Title
81276
    1CHL1    C3    1   0.729   4.229   9.825 -0.0848  0.5763  0.7100
    1CHL1    H3    2   0.649   4.152   9.828  0.5917 -0.2915 -1.2696
    1CHL1    O3    3   0.791   4.239   9.951  0.0251  0.9200  0.5058
    1CHL1   H3'    4   0.842   4.159   9.965 -0.8907  0.4877  1.5725
    1CHL1    C4    5   0.837   4.200   9.713 -0.9413 -0.2020 -0.3380
    1CHL1   H4A    6   0.923   4.266   9.736  0.5060 -2.1496  0.1987
    1CHL1   H4B    7   0.891   4.104   9.730 -0.1274  0.1969 -0.5940
    1CHL1    C5    8   0.788   4.207   9.572 -0.4055 -0.2757 -0.6000
    1CHL1    C6    9   0.794   4.104   9.484  0.3496  0.0890 -0.0198
    1CHL1    H6   10   0.848   4.016   9.522  0.7049  1.3089  2.5135
    1CHL1    C7   11   0.754   4.122   9.337 -0.5337  0.2393 -0.4205
    1CHL1   H7A   12   0.831   4.076   9.271  1.4876  1.3624  1.0447
    1CHL1   H7B   13   0.662   4.065   9.311 -1.2131  1.2646 -0.3075
    1CHL1    C8   14   0.758   4.270   9.296  0.6393 -0.2856 -0.8204
    1CHL1    H8   15   0.861   4.311   9.299  0.5729 -0.1579  0.1464
    1CHL1   C14   16   0.700   4.293   9.150  0.1866  0.0951  0.6083
    1CHL1   H14   17   0.600   4.245   9.149  0.4002 -0.3856  1.6038
    1CHL1   C15   18   0.773   4.231   9.027 -0.3710  0.0820 -0.3416
    1CHL1  H15A   19   0.884   4.236   9.028 -0.2882 -1.2363  1.2143
    1CHL1  H15B   20   0.767   4.120   9.032  0.4286  0.0691  0.9772
    1CHL1   C16   21   0.730   4.302   8.895  0.5533 -0.4031 -0.0746
    1CHL1  H16A   22   0.813   4.334   8.828 -0.4552  2.3661 -0.1438
    1CHL1  H16B   23   0.663   4.234   8.840  1.4296  1.4277 -3.7396
    1CHL1   C17   24   0.645   4.421   8.949 -0.6690  0.4718  0.9370
    1CHL1   H17   25   0.540   4.387   8.961 -0.4746 -0.0654  1.1351
    1CHL1   C13   26   0.697   4.437   9.099  0.0780  0.2270 -0.5073
    1CHL1   C18   27   0.838   4.505   9.096 -0.2894 -1.0389  0.4860
    1CHL1  H18A   28   0.874   4.519   9.200  1.3527  0.2674 -0.2298
    1CHL1  H18B   29   0.914   4.444   9.042 -0.2487  0.9001 -1.8074
    1CHL1  H18C   30   0.833   4.606   9.051 -2.3281 -0.3078  2.1738
    1CHL1   C12   31   0.603   4.508   9.194  0.1125 -0.2616 -0.0982
    1CHL1  H12A   32   0.604   4.614   9.159  1.2613  0.3474  1.6449
    1CHL1  H12B   33   0.498   4.473   9.187 -0.1779  0.0817  1.7294
    1CHL1   C11   34   0.641   4.494   9.350 -0.4933  0.5267 -0.5937
    1CHL1  H11A   35   0.740   4.544   9.350  0.2172 -0.7404 -2.7120
    1CHL1  H11B   36   0.572   4.557   9.409 -0.3252  1.8659 -1.7689
    1CHL1    C9   37   0.661   4.352   9.396  0.0549  1.5028 -0.3816
    1CHL1    H9   38   0.556   4.313   9.396 -0.1174  1.8279  2.1895
    1CHL1   C10   39   0.727   4.346   9.542 -0.6512 -0.4192  0.3639
    1CHL1   C19   40   0.842   4.449   9.548 -0.2947 -0.2900  0.4470
    1CHL1  H19A   41   0.800   4.551   9.537 -2.2709 -1.0343  0.5922
    1CHL1  H19B   42   0.883   4.446   9.651  2.2147  0.0667 -0.4685
    1CHL1  H19C   43   0.911   4.437   9.462  0.7922  0.5449  1.1808
    1CHL1    C1   44   0.617   4.375   9.641  0.2709 -0.5423 -0.2770
    1CHL1   H1A   45   0.574   4.476   9.624 -0.0199 -0.5964  0.1134
    1CHL1   H1B   46   0.550   4.289   9.621 -0.2520 -0.6679  1.7727
    1CHL1    C2   47   0.671   4.364   9.788  0.2680 -0.2404 -0.7544
    1CHL1   H2A   48   0.589   4.385   9.860  2.0827  4.0312  0.4091
    1CHL1   H2B   49   0.745   4.446   9.803 -1.5894  1.1727  1.4032
    1CHL1   C20   50   0.648   4.538   8.846 -0.3042 -0.2566 -0.4524
    1CHL1   H20   51   0.741   4.600   8.842  0.0106 -0.6980 -0.1685
    1CHL1   C21   52   0.527   4.624   8.885 -0.8044  0.0659  0.4034
    1CHL1  H21A   53   0.487   4.691   8.806 -2.4007 -1.9766 -0.6403
    1CHL1  H21B   54   0.554   4.681   8.976  0.0518  0.3311 -0.0146
    1CHL1  H21C   55   0.442   4.561   8.921 -1.0248 -0.5030 -1.0188
    1CHL1   C22   56   0.624   4.481   8.703  0.2040 -0.5334  0.0206
    1CHL1  H22A   57   0.721   4.433   8.678  2.2103  0.9489  4.0855
    1CHL1  H22B   58   0.544   4.404   8.695 -1.0453  0.8500 -1.6133
    1CHL1   C23   59   0.584   4.583   8.600  0.0930 -0.6265 -0.1189
    1CHL1  H23A   60   0.484   4.626   8.620  0.6044  0.2576  0.6443
    1CHL1  H23B   61   0.658   4.665   8.615  2.8925 -2.0824 -4.1614
    1CHL1   C24   62   0.586   4.560   8.448 -0.6459 -0.2451 -0.0050
    1CHL1  H24A   63   0.684   4.525   8.408 -1.0274  0.2646 -1.4567
    1CHL1  H24B   64   0.514   4.479   8.424 -1.2525  0.8432 -2.1221
    1CHL1   C25   65   0.534   4.683   8.351 -0.4288  0.9136 -0.4848
    1CHL1   H25   66   0.606   4.767   8.364  0.0738  0.5623 -0.9345
    1CHL1   C26   67   0.545   4.630   8.207 -0.1761 -0.0275 -0.2004
    1CHL1  H26A   68   0.474   4.551   8.174 -0.7603  1.4611 -2.8167
    1CHL1  H26B   69   0.540   4.720   8.142  1.1232 -0.5151 -1.0047
    1CHL1  H26C   70   0.646   4.583   8.205  0.0463  0.4398 -1.7444
    1CHL1   C27   71   0.390   4.721   8.390  0.0458 -0.2189  0.8977
    1CHL1  H27A   72   0.386   4.776   8.487 -0.6145  1.2691  0.0641
    1CHL1  H27B   73   0.347   4.786   8.311  0.4491 -0.9739  0.0417
    1CHL1  H27C   74   0.326   4.630   8.393  0.4003 -0.5409 -0.6145
    2CHL1    C3   75   1.972   2.251  10.012  0.4165  0.0556  0.0371
    2CHL1    H3   76   2.023   2.154  10.000 -0.1765 -0.6159  2.3883
    2CHL1    O3   77   1.946   2.266  10.150 -0.3023 -0.5682  0.2548
    2CHL1   H3'   78   1.902   2.351  10.141 -2.1989 -1.5374  0.0567
    2CHL1    C4   79   2.077   2.359   9.969 -0.0814 -0.2664  0.4842
    2CHL1   H4A   80   2.051   2.459  10.011  2.2280  0.7158 -0.2132
    2CHL1   H4B   81   2.178   2.346  10.013 -0.1884 -2.3711  0.1838
    2CHL1    C5   82   2.099   2.378   9.819 -0.4449 -0.2861  0.7786
    2CHL1    C6   83   2.223   2.375   9.763  1.0236  0.3483 -0.3699
    2CHL1    H6   84   2.310   2.373   9.831  1.3709  1.3837 -0.7639
    2CHL1    C7   85   2.242   2.389   9.617  0.0941 -0.2309 -0.8000
    2CHL1   H7A   86   2.316   2.469   9.595  1.1854 -0.9772  0.0756
    2CHL1   H7B   87   2.281   2.295   9.574  0.8717 -0.1935 -0.2037
    2CHL1    C8   88   2.114   2.439   9.536 -0.2341 -0.2914 -0.0327
    2CHL1    H8   89   2.105   2.546   9.567  2.7120 -0.5698  2.2035
    2CHL1   C14   90   2.136   2.411   9.386  0.2268 -0.7125  0.9612
    2CHL1   H14   91   2.153   2.302   9.376 -0.1321 -0.6667 -0.3567
    2CHL1   C15   92   2.257   2.488   9.320 -0.4914  0.5228  0.0306
    2CHL1  H15A   93   2.253   2.596   9.345  1.0392  1.0687 -1.7981
    2CHL1  H15B   94   2.358   2.449   9.348  0.3366  0.8759 -2.2179
    2CHL1   C16   95   2.224   2.468   9.169  0.0316  0.7828  0.6212
    2CHL1  H16A   96   2.248   2.559   9.110 -2.0784  0.6934 -0.4679
    2CHL1  H16B   97   2.283   2.385   9.124 -2.5452 -1.2848  0.8216
    2CHL1   C17   98   2.069   2.424   9.151 -0.6423 -0.1557 -0.3831
    2CHL1   H17   99   2.051   2.316   9.136 -0.0344 -0.2686 -0.3493
    2CHL1   C13  100   2.016   2.447   9.296  0.6086  0.1150  0.3792
    2CHL1   C18  101   1.971   2.596   9.315  0.1465 -0.1969 -0.5486
    2CHL1  H18A  102   1.898   2.620   9.235 -0.2555  0.0645 -0.1038
    2CHL1  H18B  103   1.931   2.623   9.415 -1.1203  1.1258 -1.3876
    2CHL1  H18C  104   2.049   2.673   9.295  0.5498  0.0945  1.8629
    2CHL1   C12  105   1.898   2.347   9.335  0.3468  0.4083 -0.2113
    2CHL1  H12A  106   1.802   2.372   9.284  0.0629 -1.3202 -0.6011
    2CHL1  H12B  107   1.932   2.245   9.305 -0.4903 -0.6405  2.1949
    2CHL1   C11  108   1.870   2.377   9.486 -0.7735 -0.1701 -0.0839
    2CHL1  H11A  109   1.812   2.472   9.494  0.8837  0.8396  0.2371
    2CHL1  H11B  110   1.794   2.302   9.519 -2.0294  0.9718 -0.2939
    2CHL1    C9  111   1.992   2.359   9.585  0.2902  0.7882 -0.0037
    2CHL1    H9  112   2.029   2.255   9.568  0.9414  0.7351  1.5322
    2CHL1   C10  113   1.966   2.382   9.737  0.2887  0.3801 -0.6480
    2CHL1   C19  114   1.908   2.524   9.754  0.1402  0.0927 -1.1998
    2CHL1  H19A  115   1.956   2.605   9.694  1.2744  2.0102  2.0071
    2CHL1  H19B  116   1.799   2.523   9.731 -0.3110 -0.8108  0.8164
    2CHL1  H19C  117   1.918   2.551   9.861  0.8115  0.0294 -1.2436
    2CHL1    C1  118   1.881   2.266   9.780 -0.1806  0.3693  0.4056
    2CHL1   H1A  119   1.784   2.266   9.728  0.1912 -0.1985 -0.3000
    2CHL1   H1B  120   1.940   2.175   9.756 -1.4043 -0.4403  0.3810
    2CHL1    C2  121   1.840   2.278   9.929  0.4454 -0.1683 -0.3939
    2CHL1   H2A  122   1.765   2.207   9.971 -0.1123  1.0155  0.6863
    2CHL1   H2B  123   1.811   2.384   9.948 -0.0605 -0.5229  0.9653
    2CHL1   C20  124   1.998   2.480   9.026 -0.2878 -0.1176  0.2083
    2CHL1   H20  125   2.022   2.588   9.015  0.2955 -0.3625 -1.0929
    2CHL1   C21  126   1.848   2.444   9.034 -0.0581 -0.5141  0.0428
    2CHL1  H21A  127   1.797   2.495   9.118  0.6861 -0.6668  0.5917
    2CHL1  H21B  128   1.846   2.335   9.053 -1.4380 -0.3423  1.0509
    2CHL1  H21C  129   1.810   2.461   8.930  2.2319  0.5573 -0.6797
    2CHL1   C22  130   2.051   2.419   8.893  0.0892  0.9675 -0.1400
    2CHL1  H22A  131   2.162   2.423   8.890  0.1381  0.0117 -3.3060
    2CHL1  H22B  132   2.023   2.312   8.889 -0.1049  1.0387 -0.8294
    2CHL1   C23  133   2.006   2.491   8.765 -0.2168  0.6591 -0.1567
    2CHL1  H23A  134   1.899   2.465   8.753 -0.3216  1.0274 -0.0391
    2CHL1  H23B  135   2.012   2.599   8.791  0.3880  0.3969  0.8605
    2CHL1   C24  136   2.083   2.440   8.647  0.0265  0.1736  0.1528
    2CHL1  H24A  137   2.080   2.329   8.649  0.9047  0.1195 -0.9361
    2CHL1  H24B  138   2.035   2.480   8.555  0.1498 -0.1106 -0.0345
    2CHL1   C25  139   2.235   2.465   8.634 -0.6521 -0.4612  0.4860
    2CHL1   H25  140   2.300   2.403   8.699  3.5235  0.3510 -2.4764
    2CHL1   C26  141   2.274   2.429   8.491  0.2236 -0.4828 -0.1395
    2CHL1  H26A  142   2.246   2.323   8.469  1.9163 -1.4860  2.1283
    2CHL1  H26B  143   2.218   2.499   8.426 -0.6295 -1.8493 -0.9319
    2CHL1  H26C  144   2.383   2.440   8.475  0.5273 -2.4018  0.3045
    2CHL1   C27  145   2.287   2.606   8.671  0.1212  0.1285  0.5017
    2CHL1  H27A  146   2.243   2.686   8.608  0.0189 -0.0116  0.3939
    2CHL1  H27B  147   2.254   2.631   8.774 -2.2413 -0.6578  0.0057
    2CHL1  H27C  148   2.396   2.615   8.653 -0.4297  1.2742 -3.1877
    3CHL1    C3  149   2.221   1.795  10.023 -0.1397 -0.0881 -0.4955
    3CHL1    H3  150   2.110   1.801  10.012  0.0889  0.6523 -3.0130
    3CHL1    O3  151   2.242   1.773  10.157 -1.0141 -0.0910 -0.2450
    3CHL1   H3'  152   2.225   1.681  10.178  0.7357 -0.5506 -0.6542
    3CHL1    C4  153   2.274   1.681   9.941 -0.0975  1.1677 -0.0382
    3CHL1   H4A  154   2.383   1.660   9.950 -0.4456 -1.0374 -0.3316
    3CHL1   H4B  155   2.231   1.582   9.968  1.2127  0.4191 -0.6252
    3CHL1    C5  156   2.252   1.707   9.795  0.4046 -0.3291  0.3202
    3CHL1    C6  157   2.189   1.620   9.713  0.1081 -0.4510 -0.3621
    3CHL1    H6  158   2.138   1.537   9.765  0.0976  0.6949  1.5608
    3CHL1    C7  159   2.163   1.639   9.566  0.6742  0.2256  0.0033
    3CHL1   H7A  160   2.184   1.547   9.507  0.9999 -0.5705  1.3217
    3CHL1   H7B  161   2.055   1.663   9.558  0.4876 -0.3424  0.6706
    3CHL1    C8  162   2.244   1.751   9.502 -0.4122 -1.2660 -0.5934
    3CHL1    H8  163   2.350   1.719   9.490  0.3857  0.3848  1.3906
    3CHL1   C14  164   2.195   1.792   9.367 -0.2761  0.5137 -0.5754
    3CHL1   H14  165   2.096   1.840   9.370 -0.3790  0.2747  1.4206
    3CHL1   C15  166   2.191   1.687   9.247  0.8168  0.0458 -0.0350
    3CHL1  H15A  167   2.278   1.619   9.260  0.4067 -0.2473  1.3784
    3CHL1  H15B  168   2.096   1.629   9.254 -0.4176  1.8410 -1.1594
    3CHL1   C16  169   2.208   1.773   9.118 -0.4893  0.4265 -0.2158
    3CHL1  H16A  170   2.294   1.735   9.058  0.6986  3.3142 -0.5657
    3CHL1  H16B  171   2.120   1.760   9.051 -1.7458  2.4506  0.9305
    3CHL1   C17  172   2.217   1.918   9.165 -0.0241  0.4286  0.4407
    3CHL1   H17  173   2.112   1.951   9.178 -0.6273 -1.1222 -0.2469
    3CHL1   C13  174   2.277   1.910   9.311  0.1857 -0.3717 -0.6051
    3CHL1   C18  175   2.431   1.891   9.306  0.0328 -0.5568  0.7572
    3CHL1  H18A  176   2.477   1.884   9.407 -0.1473  1.8072  1.0612
    3CHL1  H18B  177   2.456   1.799   9.250  0.0972 -1.3378  2.0199
    3CHL1  H18C  178   2.470   1.979   9.252 -0.4667 -0.5438  0.4105
    3CHL1   C12  179   2.233   2.033   9.397 -0.0680  0.2695  0.5204
    3CHL1  H12A  180   2.285   2.127   9.368  2.4078 -0.6986  1.5761
    3CHL1  H12B  181   2.125   2.056   9.389 -0.0301  0.0844 -0.5694
    3CHL1   C11  182   2.270   2.018   9.546 -0.1044  0.8667 -0.1431
    3CHL1  H11A  183   2.380   2.035   9.551  0.0564 -0.0004  4.9169
    3CHL1  H11B  184   2.212   2.089   9.610 -1.1238 -0.2518  0.2047
    3CHL1    C9  185   2.242   1.873   9.607 -0.3252 -1.2402 -0.0091
    3CHL1    H9  186   2.132   1.884   9.624 -0.6846  1.0166 -2.8901
    3CHL1   C10  187   2.305   1.850   9.743  0.2019  1.1527 -0.9886
    3CHL1   C19  188   2.458   1.836   9.722  0.5356  0.0998  0.1394
    3CHL1  H19A  189   2.506   1.930   9.687  3.7288 -0.0706  3.4801
    3CHL1  H19B  190   2.506   1.808   9.818  0.0643 -0.6018  0.1806
    3CHL1  H19C  191   2.483   1.750   9.656  2.2290 -0.3462  1.3025
    3CHL1    C1  192   2.269   1.962   9.843  0.2667 -0.0233  0.0470
    3CHL1   H1A  193   2.324   2.056   9.823  0.5260 -0.4095 -1.1676
    3CHL1   H1B  194   2.160   1.977   9.830  0.0625 -0.1973  1.4006
    3CHL1    C2  195   2.291   1.925   9.991  0.7642  0.0724 -0.1545
    3CHL1   H2A  196   2.262   2.014  10.051 -1.4271 -0.5034 -0.2772
    3CHL1   H2B  197   2.400   1.909  10.007  1.1509  1.2415 -1.4124
    3CHL1   C20  198   2.274   2.008   9.053 -0.3318  0.3090  0.6256
    3CHL1   H20  199   2.305   2.106   9.095  2.2202  1.0065 -2.4914
    3CHL1   C21  200   2.172   2.042   8.949 -0.4502  0.3233  0.1544
    3CHL1  H21A  201   2.127   1.952   8.901 -0.5866  0.8957 -0.8351
    3CHL1  H21B  202   2.212   2.109   8.870  1.2654  0.9857  1.5313
    3CHL1  H21C  203   2.096   2.102   9.003  0.3164  0.7027  0.8251
    3CHL1   C22  204   2.403   1.958   8.980 -0.1883  0.0822  0.2931
    3CHL1  H22A  205   2.460   1.893   9.049 -1.9503 -1.0212  0.7960
    3CHL1  H22B  206   2.377   1.884   8.901  1.9262 -1.6562  1.1350
    3CHL1   C23  207   2.486   2.082   8.919  0.2774  0.4734 -0.2467
    3CHL1  H23A  208   2.424   2.114   8.832 -2.2963 -2.3491  0.4027
    3CHL1  H23B  209   2.482   2.168   8.989 -3.0857  0.9996 -0.9186
    3CHL1   C24  210   2.629   2.053   8.879  0.0923 -0.5361 -0.6656
    3CHL1  H24A  211   2.676   2.151   8.856 -0.5055  0.4122  1.8588
    3CHL1  H24B  212   2.679   2.022   8.974 -0.5946  1.1765  0.3083
    3CHL1   C25  213   2.668   1.943   8.777  0.2141  0.4036 -0.5582
    3CHL1   H25  214   2.623   1.848   8.813 -1.9245  1.0243 -1.4151
    3CHL1   C26  215   2.604   1.981   8.643  0.6225 -0.3564  0.1930
    3CHL1  H26A  216   2.635   1.904   8.569 -1.8220 -0.5593 -0.7044
    3CHL1  H26B  217   2.496   1.959   8.654  0.3442  1.0271  0.4222
    3CHL1  H26C  218   2.638   2.082   8.613  0.9993 -1.3062 -2.9567
    3CHL1   C27  219   2.824   1.930   8.765 -0.2710  0.2200  0.1233
    3CHL1  H27A  220   2.862   1.838   8.716  1.3859  1.2413 -0.5620
    3CHL1  H27B  221   2.867   2.024   8.724  0.5174 -0.5033 -0.7271
    3CHL1  H27C  222   2.852   1.933   8.873  2.4482  0.9777 -0.5484
    4CHL1    C3  223   2.049   3.623  10.075  0.6136  0.2620 -0.6143
    4CHL1    H3  224   1.952   3.584  10.040  0.9165 -1.9939  0.8613
    4CHL1    O3  225   2.052   3.641  10.218  0.2720 -0.3381  0.2611
    4CHL1   H3'  226   2.108   3.718  10.233  0.3354 -0.4167  0.4363
    4CHL1    C4  227   2.163   3.527  10.045  0.8682 -0.0776  0.4671
    4CHL1   H4A  228   2.250   3.568  10.101 -0.1466  0.1298  1.9594
    4CHL1   H4B  229   2.147   3.433  10.102 -1.9780  0.8403  1.3619
    4CHL1    C5  230   2.188   3.510   9.896  0.5317  0.5252 -0.7285
    4CHL1    C6  231   2.171   3.388   9.846 -0.2824 -0.6953  0.4243
    4CHL1    H6  232   2.168   3.303   9.917  1.4602 -0.2206  1.1212
    4CHL1    C7  233   2.170   3.359   9.699  0.1828 -0.1064 -0.1348
    4CHL1   H7A  234   2.235   3.271   9.678  0.3591 -0.3730  1.4125
    4CHL1   H7B  235   2.072   3.332   9.655  0.1107  0.8288 -0.5648
    4CHL1    C8  236   2.216   3.483   9.612 -0.2047  0.5898  0.1678
    4CHL1    H8  237   2.325   3.488   9.630 -0.5436  1.0907  2.3459
    4CHL1   C14  238   2.193   3.465   9.458  0.3247  0.5607 -0.3537
    4CHL1   H14  239   2.083   3.466   9.443  0.2311 -2.7284 -0.4744
    4CHL1   C15  240   2.242   3.332   9.392 -0.2586 -0.2963  0.5145
    4CHL1  H15A  241   2.334   3.302   9.448  0.8832  0.9133 -0.6373
    4CHL1  H15B  242   2.163   3.258   9.417  0.6253 -1.4163  0.0876
    4CHL1   C16  243   2.261   3.368   9.244  0.8135 -0.1514  0.6773
    4CHL1  H16A  244   2.369   3.357   9.219  0.3240  2.1485 -3.3547
    4CHL1  H16B  245   2.203   3.303   9.175 -0.9741  1.7141  0.3132
    4CHL1   C17  246   2.211   3.513   9.228  0.1219 -0.3053  0.4281
    4CHL1   H17  247   2.102   3.505   9.210 -0.1791 -1.1454  2.3996
    4CHL1   C13  248   2.244   3.575   9.364  0.2928  0.3224 -0.9401
    4CHL1   C18  249   2.398   3.591   9.380 -0.0863 -1.4135  0.6381
    4CHL1  H18A  250   2.448   3.667   9.315 -1.7581 -2.2158 -1.7302
    4CHL1  H18B  251   2.418   3.606   9.488  1.5601 -2.3405  0.4813
    4CHL1  H18C  252   2.458   3.500   9.365  1.6245 -0.5867  2.1553
    4CHL1   C12  253   2.163   3.704   9.409 -0.3074  0.2587  0.5648
    4CHL1  H12A  254   2.190   3.794   9.350  0.7273  0.4182  1.2653
    4CHL1  H12B  255   2.057   3.676   9.391 -0.6763  1.4000  0.9177
    4CHL1   C11  256   2.178   3.739   9.560  0.1977  0.2952  0.2558
    4CHL1  H11A  257   2.283   3.772   9.572  0.9719 -2.4392  2.0804
    4CHL1  H11B  258   2.119   3.826   9.595  0.2094 -0.0481  1.1411
    4CHL1    C9  259   2.155   3.618   9.659  0.5273  0.4905 -0.2504
    4CHL1    H9  260   2.047   3.594   9.649  0.5525 -0.8731  1.9766
    4CHL1   C10  261   2.192   3.634   9.806  0.5640 -0.4981 -0.4116
    4CHL1   C19  262   2.336   3.700   9.817 -0.3222  0.4995 -0.3943
    4CHL1  H19A  263   2.420   3.642   9.773 -0.1072  0.1507  0.4705
    4CHL1  H19B  264   2.337   3.799   9.766  1.2336  0.6725 -0.0584
    4CHL1  H19C  265   2.358   3.730   9.921 -0.4155 -0.2893 -0.1404
    4CHL1    C1  266   2.078   3.731   9.855  0.8431  0.2409 -0.2783
    4CHL1   H1A  267   2.078   3.825   9.795  1.8442  0.2771 -0.2397
    4CHL1   H1B  268   1.983   3.677   9.836  1.3913 -0.4249 -1.1567
    4CHL1    C2  269   2.071   3.763  10.005 -0.8581  0.6748  0.2066
    4CHL1   H2A  270   1.989   3.833  10.030  0.2536  2.0741  0.0671
    4CHL1   H2B  271   2.166   3.813  10.032 -1.3399  0.9832  1.3579
    4CHL1   C20  272   2.280   3.585   9.105 -0.0256 -0.3307 -0.4888
    4CHL1   H20  273   2.390   3.598   9.112  0.1600 -0.5319 -2.4429
    4CHL1   C21  274   2.216   3.725   9.077 -0.5612  0.0087 -0.5684
    4CHL1  H21A  275   2.262   3.781   8.992 -0.8783  3.3273  1.2707
    4CHL1  H21B  276   2.236   3.792   9.163  0.7953 -0.8254 -0.2110
    4CHL1  H21C  277   2.108   3.714   9.052 -0.9079  3.0075 -0.7936
    4CHL1   C22  278   2.286   3.504   8.972  0.4990  0.7144  0.1543
    4CHL1  H22A  279   2.327   3.571   8.893 -0.4048  0.2590 -0.7262
    4CHL1  H22B  280   2.350   3.414   8.982 -1.5581 -0.7948  0.1866
    4CHL1   C23  281   2.151   3.450   8.918  0.1982  0.3743 -0.3513
    4CHL1  H23A  282   2.118   3.357   8.969 -0.5947  1.8915  2.0379
    4CHL1  H23B  283   2.068   3.522   8.934  1.1382  0.9938  1.9848
    4CHL1   C24  284   2.158   3.422   8.764  0.1025  0.5876  0.5226
    4CHL1  H24A  285   2.258   3.379   8.743  0.1795  1.6202 -1.5588
    4CHL1  H24B  286   2.078   3.351   8.731  2.9823 -1.9981 -1.4386
    4CHL1   C25  287   2.153   3.542   8.669 -0.0823  0.6210  0.0363
    4CHL1   H25  288   2.236   3.608   8.704 -0.1036 -0.3080  2.0114
    4CHL1   C26  289   2.190   3.488   8.525  0.6232 -0.0147 -0.1862
    4CHL1  H26A  290   2.273   3.415   8.524  2.5761  2.0769  0.2247
    4CHL1  H26B  291   2.108   3.438   8.469  1.7194 -1.7082 -0.3490
    4CHL1  H26C  292   2.233   3.570   8.462  0.6091 -0.7288 -1.1525
    4CHL1   C27  293   2.021   3.623   8.660  0.8092  0.3921  0.3247
    4CHL1  H27A  294   2.023   3.699   8.578 -1.7860  1.1748  0.8750
    4CHL1  H27B  295   1.937   3.552   8.641  1.0140 -0.0576  1.0754
    4CHL1  H27C  296   1.994   3.668   8.758 -1.4156  2.2700 -1.0551
    5CHL1    C3  297   3.635   1.560  10.035 -0.5090 -0.5146 -0.0027
    5CHL1    H3  298   3.737   1.524  10.010 -0.8514 -1.1027 -0.5681
    5CHL1    O3  299   3.626   1.552  10.177  0.3039  0.8740 -0.7291
    5CHL1   H3'  300   3.538   1.547  10.215  1.5914  1.6017  2.6096
    5CHL1    C4  301   3.603   1.698   9.979 -0.2741 -0.2182 -0.5032
    5CHL1   H4A  302   3.494   1.709  10.001  0.4016  1.5785  2.5916
    5CHL1   H4B  303   3.661   1.772  10.038 -0.2251 -1.4960  1.1125
    5CHL1    C5  304   3.643   1.701   9.831 -0.2515 -0.1463  0.5180
    5CHL1    C6  305   3.737   1.784   9.779  0.2278  0.0304  0.2949
    5CHL1    H6  306   3.785   1.851   9.852 -2.6106  3.1779 -0.4894
    5CHL1    C7  307   3.778   1.791   9.634  0.9330 -0.1871 -0.2295
    5CHL1   H7A  308   3.784   1.894   9.592  3.3106 -1.2729 -2.9359
    5CHL1   H7B  309   3.879   1.755   9.604  1.0016  1.0754 -1.6326
    5CHL1    C8  310   3.670   1.716   9.547 -0.1313  0.2431 -0.7223
    5CHL1    H8  311   3.580   1.780   9.537  2.0124  3.2916 -1.8945
    5CHL1   C14  312   3.725   1.677   9.409  0.5552 -0.0235 -0.3094
    5CHL1   H14  313   3.792   1.591   9.431 -0.9961 -1.6523 -1.6521
    5CHL1   C15  314   3.809   1.783   9.340 -0.2569 -0.0684 -0.1080
    5CHL1  H15A  315   3.793   1.890   9.365  0.0233  0.0102 -0.2604
    5CHL1  H15B  316   3.914   1.760   9.368 -0.8179 -0.0389  2.3067
    5CHL1   C16  317   3.789   1.752   9.189  0.3565 -0.0207  0.1966
    5CHL1  H16A  318   3.722   1.832   9.151  0.1473 -0.1543  0.2809
    5CHL1  H16B  319   3.885   1.748   9.135  0.5135  1.4169  0.3299
    5CHL1   C17  320   3.708   1.617   9.175 -0.0594 -0.9773 -0.2273
    5CHL1   H17  321   3.781   1.534   9.185 -1.0735 -1.8847 -0.2023
    5CHL1   C13  322   3.623   1.624   9.305 -0.2917  0.3254 -0.6523
    5CHL1   C18  323   3.517   1.733   9.283  0.1238  0.0049  0.1494
    5CHL1  H18A  324   3.474   1.728   9.181  1.6218  1.5785 -0.5944
    5CHL1  H18B  325   3.426   1.730   9.347 -1.6639 -0.8628 -2.2851
    5CHL1  H18C  326   3.569   1.831   9.294 -0.9658  0.8000 -1.4017
    5CHL1   C12  327   3.566   1.494   9.361  0.6431  0.0833 -0.1278
    5CHL1  H12A  328   3.477   1.441   9.321  0.5611  0.7041 -0.7991
    5CHL1  H12B  329   3.644   1.415   9.363 -0.4589 -1.0278  0.3146
    5CHL1   C11  330   3.521   1.513   9.509  0.5474 -0.2313  0.2687
    5CHL1  H11A  331   3.426   1.571   9.510  0.3905 -0.4867  0.6536
    5CHL1  H11B  332   3.497   1.414   9.554 -0.3824  0.5123  1.4695
    5CHL1    C9  333   3.613   1.581   9.607 -0.2676 -0.2229 -0.1633
    5CHL1    H9  334   3.701   1.516   9.623 -1.1061 -0.9390  1.9038
    5CHL1   C10  335   3.551   1.600   9.750 -0.4819 -0.2078  0.4444
    5CHL1   C19  336   3.409   1.660   9.756 -0.8993 -0.0518 -0.0161
    5CHL1  H19A  337   3.422   1.765   9.722  0.7140 -0.1646  0.1744
    5CHL1  H19B  338   3.346   1.599   9.687  1.1355  1.3753 -3.4042
    5CHL1  H19C  339   3.357   1.667   9.853  2.7662 -0.2652  2.1559
    5CHL1    C1  340   3.555   1.463   9.816 -0.2721 -0.3398 -0.0454
    5CHL1   H1A  341   3.474   1.397   9.778 -0.0960  0.8946 -2.7559
    5CHL1   H1B  342   3.657   1.421   9.804 -0.6684 -2.5292  3.0185
    5CHL1    C2  343   3.543   1.455   9.971 -0.7427  0.3646  0.4223
    5CHL1   H2A  344   3.574   1.353  10.000 -0.5928  0.0951 -0.6512
    5CHL1   H2B  345   3.444   1.486  10.010 -0.3531  1.1780  0.8001
    5CHL1   C20  346   3.649   1.613   9.031  0.3998  0.2794 -0.2730
    5CHL1   H20  347   3.574   1.693   9.013  2.6427  2.2250 -1.5028
    5CHL1   C21  348   3.569   1.477   9.023  0.3080  0.1316  0.9984
    5CHL1  H21A  349   3.472   1.482   9.078  0.5995 -1.3683  1.7127
    5CHL1  H21B  350   3.624   1.391   9.068  0.0883 -0.1410  0.7491
    5CHL1  H21C  351   3.538   1.450   8.920  2.4283  1.2896  0.0165
    5CHL1   C22  352   3.749   1.631   8.909  0.4106  0.2798  0.0580
    5CHL1  H22A  353   3.823   1.712   8.929  0.2031  1.0630 -2.0164
    5CHL1  H22B  354   3.799   1.532   8.903 -0.5289 -0.1168 -3.0206
    5CHL1   C23  355   3.674   1.656   8.783 -0.4801  1.1650 -0.5088
    5CHL1  H23A  356   3.610   1.567   8.763  0.4451 -0.4412  2.8001
    5CHL1  H23B  357   3.599   1.733   8.813 -1.3736  0.0133  0.3399
    5CHL1   C24  358   3.765   1.693   8.663  0.5513 -0.6973  0.1423
    5CHL1  H24A  359   3.822   1.781   8.699 -0.6458 -0.6355  2.0551
    5CHL1  H24B  360   3.832   1.611   8.629  1.7193 -0.0133  0.7304
    5CHL1   C25  361   3.696   1.725   8.531 -0.0562 -0.5704 -0.5485
    5CHL1   H25  362   3.770   1.786   8.473 -0.9719  2.6422  1.4022
    5CHL1   C26  363   3.643   1.604   8.453  0.0569 -0.1048  0.0535
    5CHL1  H26A  364   3.726   1.530   8.449 -0.4315 -0.5968 -2.0410
    5CHL1  H26B  365   3.559   1.553   8.506  0.0641  0.1438  0.3072
    5CHL1  H26C  366   3.608   1.630   8.351  0.9817  1.8331  0.1812
    5CHL1   C27  367   3.577   1.821   8.544  0.0903 -0.0556 -0.1831
    5CHL1  H27A  368   3.524   1.843   8.449  0.5350  1.4576 -0.1103
    5CHL1  H27B  369   3.507   1.770   8.613  0.1992  0.3051  0.1964
    5CHL1  H27C  370   3.617   1.914   8.590  0.8037 -1.0067  1.1994
    6CHL1    C3  371   3.537   5.332  10.037  0.4714  1.0802  0.5243
    6CHL1    H3  372   3.609   5.252  10.009  1.1649  2.1794 -0.9679
    6CHL1    O3  373   3.560   5.359  10.175  0.4995  0.5688  0.0422
    6CHL1   H3'  374   3.472   5.346  10.212 -1.0407  1.8677 -2.8255
    6CHL1    C4  375   3.568   5.464   9.958  0.1560  0.1960  0.4397
    6CHL1   H4A  376   3.496   5.539   9.998 -0.5583 -1.3834  2.3368
    6CHL1   H4B  377   3.674   5.481   9.987  0.1272  0.1396  0.5822
    6CHL1    C5  378   3.545   5.453   9.811  0.3233  0.5179 -0.6736
    6CHL1    C6  379   3.649   5.477   9.733  0.5582 -0.2992 -0.1137
    6CHL1    H6  380   3.740   5.512   9.784 -0.8373  1.4795  1.3053
    6CHL1    C7  381   3.654   5.458   9.583  0.8985  0.0622 -0.8581
    6CHL1   H7A  382   3.700   5.541   9.525  2.3676 -0.4565 -0.4682
    6CHL1   H7B  383   3.716   5.366   9.579  0.8497  0.0039 -0.3676
    6CHL1    C8  384   3.513   5.438   9.535 -0.2646  0.8570  0.8633
    6CHL1    H8  385   3.472   5.540   9.521  2.1091  1.9083  1.0167
    6CHL1   C14  386   3.516   5.363   9.407  0.5742  0.4087  0.3275
    6CHL1   H14  387   3.556   5.263   9.433  1.5902  0.7861  0.2402
    6CHL1   C15  388   3.623   5.408   9.294 -0.0915 -0.3159 -0.4441
    6CHL1  H15A  389   3.619   5.519   9.304 -2.3470 -0.5486  3.8356
    6CHL1  H15B  390   3.720   5.363   9.324  0.8917  1.9805  0.0565
    6CHL1   C16  391   3.564   5.341   9.168 -0.1287  0.4733  0.1549
    6CHL1  H16A  392   3.545   5.413   9.085 -0.8094  0.1286  0.0009
    6CHL1  H16B  393   3.641   5.265   9.142  0.2542  0.7292  0.5536
    6CHL1   C17  394   3.431   5.267   9.209 -0.0358 -0.0205 -0.6300
    6CHL1   H17  395   3.457   5.164   9.241 -0.8829 -0.5066 -1.4568
    6CHL1   C13  396   3.381   5.339   9.331  0.5286  0.4423  0.6639
    6CHL1   C18  397   3.314   5.469   9.289  0.7981  0.1734  0.0369
    6CHL1  H18A  398   3.330   5.547   9.366  0.1069  1.7050 -1.3094
    6CHL1  H18B  399   3.361   5.509   9.197 -0.0693  0.0086 -0.4892
    6CHL1  H18C  400   3.208   5.461   9.258  0.1596  2.7416  1.2723
    6CHL1   C12  401   3.284   5.256   9.420 -0.0761 -0.3367  0.5049
    6CHL1  H12A  402   3.181   5.258   9.378  0.2596 -1.5861 -0.4428
    6CHL1  H12B  403   3.316   5.150   9.419 -1.2529 -0.7212  1.5218
    6CHL1   C11  404   3.274   5.324   9.558 -0.8984  0.3421  0.2149
    6CHL1  H11A  405   3.219   5.421   9.547  1.1162  1.5474  0.2928
    6CHL1  H11B  406   3.223   5.258   9.632 -2.5858  0.5440 -0.7170
    6CHL1    C9  407   3.417   5.351   9.618 -0.3221  0.2787  0.3325
    6CHL1    H9  408   3.468   5.253   9.629  0.5963  0.4865 -1.6577
    6CHL1   C10  409   3.413   5.395   9.765 -0.0494  0.5576  0.2128
    6CHL1   C19  410   3.296   5.490   9.793 -0.1921  0.6213 -0.1731
    6CHL1  H19A  411   3.203   5.429   9.792  0.5690 -0.6264  1.4731
    6CHL1  H19B  412   3.301   5.536   9.894  1.4663 -0.7165  0.3918
    6CHL1  H19C  413   3.279   5.569   9.716 -0.4640 -1.2960 -2.1732
    6CHL1    C1  414   3.376   5.268   9.853 -0.3438  0.4725  0.2885
    6CHL1   H1A  415   3.270   5.239   9.833  0.1620 -0.7015 -0.8938
    6CHL1   H1B  416   3.440   5.184   9.818 -1.0171  0.6219 -1.4287
    6CHL1    C2  417   3.392   5.294  10.003 -0.0435  0.6018 -0.7033
    6CHL1   H2A  418   3.363   5.202  10.058  1.4064  0.1206 -0.7030
    6CHL1   H2B  419   3.320   5.372  10.036  1.7430  2.8942 -1.8767
    6CHL1   C20  420   3.337   5.255   9.087 -0.2233  0.2422  0.6465
    6CHL1   H20  421   3.311   5.359   9.058 -3.1184 -0.3383  0.8099
    6CHL1   C21  422   3.202   5.197   9.120 -0.3848 -0.3884  0.3356
    6CHL1  H21A  423   3.151   5.270   9.186  0.7044 -0.0169  0.7861
    6CHL1  H21B  424   3.194   5.100   9.174 -1.8588 -0.6401 -0.2824
    6CHL1  H21C  425   3.133   5.181   9.034 -0.7449 -2.5780  0.9631
    6CHL1   C22  426   3.404   5.178   8.968  0.1412  0.3842  0.4768
    6CHL1  H22A  427   3.511   5.201   8.951  0.6624 -2.8016 -1.3569
    6CHL1  H22B  428   3.393   5.070   8.988 -0.0789  0.8975  3.7560
    6CHL1   C23  429   3.344   5.223   8.832  0.0048  0.3541 -0.7687
    6CHL1  H23A  430   3.236   5.197   8.833 -0.0444  0.5616 -0.2525
    6CHL1  H23B  431   3.351   5.331   8.809 -2.5053  0.6606 -0.3477
    6CHL1   C24  432   3.403   5.153   8.712 -0.1812 -0.0707  0.5864
    6CHL1  H24A  433   3.507   5.184   8.690  0.1737  1.0234  3.3962
    6CHL1  H24B  434   3.414   5.045   8.735  2.3465  0.1997  0.9625
    6CHL1   C25  435   3.325   5.183   8.580 -0.1795 -0.5789  0.7800
    6CHL1   H25  436   3.330   5.290   8.549 -0.4981 -0.4760  1.0693
    6CHL1   C26  437   3.392   5.109   8.473  0.0537 -0.0766  0.2811
    6CHL1  H26A  438   3.400   4.999   8.491  0.9322  0.1049  1.0673
    6CHL1  H26B  439   3.339   5.122   8.377 -0.4619 -1.4514  0.3455
    6CHL1  H26C  440   3.495   5.145   8.452 -0.0539  0.0640 -0.0055
    6CHL1   C27  441   3.180   5.129   8.587 -0.0069 -0.5456  0.2199
    6CHL1  H27A  442   3.143   5.152   8.484  2.7365 -2.2286 -1.2740
    6CHL1  H27B  443   3.182   5.018   8.594  0.6403 -0.6296 -1.0028
    6CHL1  H27C  444   3.108   5.176   8.657 -0.5130  2.2917 -2.0162
    7CHL1    C3  445   4.012   3.754  10.104  0.3516 -0.2716 -0.1233
    7CHL1    H3  446   3.931   3.684  10.073  0.9923 -0.8528 -0.5153
    7CHL1    O3  447   4.032   3.749  10.242  0.1032 -0.2182 -0.3353
    7CHL1   H3'  448   4.113   3.801  10.248  0.6205 -0.7931 -1.7648
    7CHL1    C4  449   4.148   3.708  10.033  0.5348  0.9368  0.3963
    7CHL1   H4A  450   4.231   3.777  10.062 -0.8583  2.2535  1.4288
    7CHL1   H4B  451   4.165   3.610  10.081  1.9902  0.6710 -0.6110
    7CHL1    C5  452   4.140   3.706   9.879 -0.5767 -0.5899  0.1711
    7CHL1    C6  453   4.182   3.598   9.813  0.4330 -0.0727  0.3051
    7CHL1    H6  454   4.217   3.510   9.869  4.3377  1.3433  0.4425
    7CHL1    C7  455   4.178   3.585   9.662  0.2830  0.4459  0.6594
    7CHL1   H7A  456   4.275   3.549   9.622 -0.2274  1.7809 -2.0118
    7CHL1   H7B  457   4.098   3.516   9.629 -0.0875  0.3479  1.7400
    7CHL1    C8  458   4.152   3.726   9.602 -0.5184 -0.6028 -0.0431
    7CHL1    H8  459   4.246   3.783   9.619 -0.7297  0.1588 -1.2930
    7CHL1   C14  460   4.125   3.711   9.451 -1.2398  0.6416 -0.9703
    7CHL1   H14  461   4.029   3.657   9.439 -1.3153 -0.3637  2.9286
    7CHL1   C15  462   4.214   3.624   9.369  0.1314  0.3962 -0.3015
    7CHL1  H15A  463   4.322   3.641   9.392 -0.2431  0.6517  1.4590
    7CHL1  H15B  464   4.206   3.514   9.382  1.9453  0.4573  2.2860
    7CHL1   C16  465   4.181   3.664   9.226  0.0074  0.4370  0.7536
    7CHL1  H16A  466   4.274   3.690   9.170 -0.4509  0.0625 -0.1955
    7CHL1  H16B  467   4.121   3.585   9.176 -0.2708  0.8712  0.4019
    7CHL1   C17  468   4.092   3.792   9.232  0.3289 -0.2298 -0.4496
    7CHL1   H17  469   3.987   3.758   9.215  1.0890 -2.4402 -1.1195
    7CHL1   C13  470   4.107   3.845   9.375  0.0584  1.2710  0.0249
    7CHL1   C18  471   4.244   3.914   9.388  0.5771 -0.4651 -0.2475
    7CHL1  H18A  472   4.228   4.017   9.351  1.9070 -0.2740 -0.3350
    7CHL1  H18B  473   4.268   3.932   9.495 -2.8968  0.2395  0.5284
    7CHL1  H18C  474   4.330   3.871   9.333 -0.2462 -0.0710 -1.8856
    7CHL1   C12  475   3.976   3.911   9.439 -0.1241  0.0737  0.2186
    7CHL1  H12A  476   3.961   4.010   9.389  1.6928  0.9361  1.2858
    7CHL1  H12B  477   3.883   3.851   9.429 -0.5995  1.0943 -2.6818
    7CHL1   C11  478   3.997   3.936   9.592 -0.2517  0.0031  0.2417
    7CHL1  H11A  479   4.077   4.013   9.601 -0.9453  0.6265  1.2379
    7CHL1  H11B  480   3.903   3.979   9.633  1.1556  1.0564  2.5603
    7CHL1    C9  481   4.050   3.812   9.672  0.5985  0.1781  0.7271
    7CHL1    H9  482   3.965   3.741   9.680 -0.5657  1.5340  0.7886
    7CHL1   C10  483   4.081   3.840   9.823 -0.1230 -0.3468 -0.0764
    7CHL1   C19  484   4.185   3.960   9.827  0.4828  0.0594 -0.1032
    7CHL1  H19A  485   4.234   3.960   9.926  3.0643 -0.3414 -1.2919
    7CHL1  H19B  486   4.270   3.957   9.755 -0.9068  0.1677 -1.8320
    7CHL1  H19C  487   4.131   4.056   9.809  0.7333 -0.1160 -2.0284
    7CHL1    C1  488   3.952   3.886   9.902 -1.0907 -0.0360 -0.0719
    7CHL1   H1A  489   3.921   3.988   9.870  0.1332  1.8616  4.1366
    7CHL1   H1B  490   3.862   3.821   9.892 -0.6293 -1.0848  2.0592
    7CHL1    C2  491   3.968   3.886  10.053  0.0586  0.2227  0.0249
    7CHL1   H2A  492   3.870   3.916  10.096 -1.1090 -3.5709  0.3474
    7CHL1   H2B  493   4.037   3.970  10.080  1.7241 -1.1066  0.0833
    7CHL1   C20  494   4.115   3.883   9.111  0.2345  0.6744  0.6582
    7CHL1   H20  495   4.225   3.901   9.111  0.5953 -1.3166  0.2675
    7CHL1   C21  496   4.027   4.003   9.119 -0.2788  0.7060 -0.0849
    7CHL1  H21A  497   4.022   4.073   9.034  1.4152 -0.6919 -1.4122
    7CHL1  H21B  498   4.046   4.062   9.212  0.7491 -0.4702  0.4803
    7CHL1  H21C  499   3.922   3.970   9.137  0.1834 -0.3574  0.7825
    7CHL1   C22  500   4.093   3.817   8.969 -0.6702  0.5347 -0.4758
    7CHL1  H22A  501   4.149   3.721   8.967  0.7804  1.3631 -0.9751
    7CHL1  H22B  502   3.987   3.784   8.961 -0.1161 -1.5292  0.0758
    7CHL1   C23  503   4.133   3.902   8.847  0.5355  0.3926  0.3550
    7CHL1  H23A  504   4.086   3.996   8.882  0.3006  0.1896  0.5908
    7CHL1  H23B  505   4.244   3.906   8.839  0.6996 -2.0761  0.5345
    7CHL1   C24  506   4.079   3.864   8.712  0.0292  1.1488 -0.0198
    7CHL1  H24A  507   4.083   3.754   8.697 -0.3234  0.5818  3.2820
    7CHL1  H24B  508   3.972   3.887   8.694  0.0118 -0.3888 -2.2873
    7CHL1   C25  509   4.157   3.924   8.587  0.1104  0.4008  0.0155
    7CHL1   H25  510   4.267   3.908   8.596  0.1210 -0.8504 -1.7164
    7CHL1   C26  511   4.104   3.858   8.460  0.1588 -0.1635  0.2046
    7CHL1  H26A  512   4.005   3.906   8.444 -0.7630 -2.5384 -1.9581
    7CHL1  H26B  513   4.178   3.889   8.383 -1.3349 -0.6954 -1.5128
    7CHL1  H26C  514   4.089   3.748   8.471 -2.2658 -0.4343 -3.7853
    7CHL1   C27  515   4.141   4.077   8.582  0.2146 -0.2193  0.2729
    7CHL1  H27A  516   4.151   4.125   8.682  0.7682  0.6523 -0.1870
    7CHL1  H27B  517   4.219   4.125   8.520 -1.7565  2.8503 -0.0438
    7CHL1  H27C  518   4.040   4.106   8.545 -0.4077 -0.9972  1.2895
    8CHL1    C3  519   4.420   5.350  10.022 -0.0820 -0.1710 -1.4935
    8CHL1    H3  520   4.330   5.295   9.987 -0.1184 -2.2961  1.5911
    8CHL1    O3  521   4.408   5.374  10.164  0.4029 -0.3030  0.3163
    8CHL1   H3'  522   4.480   5.430  10.195  1.1155 -1.1728  0.2910
    8CHL1    C4  523   4.549   5.276   9.983 -0.0286  0.4218 -0.3982
    8CHL1   H4A  524   4.631   5.334  10.030  1.0442 -0.0943 -1.5546
    8CHL1   H4B  525   4.558   5.175  10.029  0.3823  0.4067 -0.4987
    8CHL1    C5  526   4.591   5.280   9.841 -0.8587  0.9912 -0.2803
    8CHL1    C6  527   4.636   5.165   9.775  0.2363 -0.4126 -0.6311
    8CHL1    H6  528   4.633   5.072   9.834  1.3069  1.3805  2.4724
    8CHL1    C7  529   4.681   5.167   9.629  0.1565  0.6522  0.2454
    8CHL1   H7A  530   4.772   5.107   9.608 -1.9888 -2.8872  0.1776
    8CHL1   H7B  531   4.606   5.113   9.568  0.7784  1.5652 -1.3929
    8CHL1    C8  532   4.684   5.300   9.546  0.7026 -0.8227  0.6780
    8CHL1    H8  533   4.786   5.343   9.554  0.8390 -0.6954 -1.4331
    8CHL1   C14  534   4.663   5.282   9.399 -0.1583 -0.0846  0.4280
    8CHL1   H14  535   4.560   5.245   9.380 -0.1371  0.6417 -1.2589
    8CHL1   C15  536   4.757   5.189   9.322 -0.5636  0.2127 -0.2392
    8CHL1  H15A  537   4.865   5.210   9.335 -0.4486 -1.0763  1.2446
    8CHL1  H15B  538   4.735   5.082   9.344 -0.2240  0.4322  1.3137
    8CHL1   C16  539   4.732   5.233   9.177 -0.0088  0.5020 -0.8685
    8CHL1  H16A  540   4.825   5.277   9.135  1.9746 -3.1286 -0.6995
    8CHL1  H16B  541   4.705   5.148   9.111 -0.8591 -1.1325  1.4618
    8CHL1   C17  542   4.638   5.357   9.183 -0.3900 -0.8532  0.2209
    8CHL1   H17  543   4.534   5.316   9.185 -0.2566 -1.2765 -0.7572
    8CHL1   C13  544   4.654   5.412   9.322 -0.2309 -0.4662 -0.0759
    8CHL1   C18  545   4.787   5.488   9.320  0.2651 -0.9099  0.0823
    8CHL1  H18A  546   4.814   5.510   9.426  1.1316 -3.9096  0.5720
    8CHL1  H18B  547   4.878   5.429   9.293  0.5674 -1.3511  1.9070
    8CHL1  H18C  548   4.780   5.587   9.271 -0.3525 -0.8732  0.2452
    8CHL1   C12  549   4.548   5.509   9.385  0.0293  0.2179 -0.1524
    8CHL1  H12A  550   4.555   5.604   9.328 -0.4699  0.4837  0.2280
    8CHL1  H12B  551   4.444   5.470   9.374  0.7180 -1.8286  0.2253
    8CHL1   C11  552   4.573   5.527   9.540 -0.6157  0.2016 -0.2782
    8CHL1  H11A  553   4.669   5.577   9.566 -1.1478  1.3103 -0.4065
    8CHL1  H11B  554   4.493   5.593   9.578 -1.1265 -0.4429 -0.2148
    8CHL1    C9  555   4.577   5.390   9.602  0.2329  0.0048  0.6068
    8CHL1    H9  556   4.480   5.336   9.586 -0.4927  0.6349  2.5588
    8CHL1   C10  557   4.573   5.405   9.763  0.1713 -0.4402  0.8738
    8CHL1   C19  558   4.694   5.492   9.805  0.0960 -0.3955  0.1143
    8CHL1  H19A  559   4.790   5.440   9.788 -0.6061 -1.5539 -0.3824
    8CHL1  H19B  560   4.703   5.593   9.759 -2.3959  0.5483  1.5152
    8CHL1  H19C  561   4.694   5.505   9.916 -0.2027 -0.6771  0.1472
    8CHL1    C1  562   4.433   5.476   9.798 -0.2333  0.4282  0.3336
    8CHL1   H1A  563   4.426   5.579   9.757  0.9240 -0.6481 -2.7840
    8CHL1   H1B  564   4.354   5.416   9.749  0.5826  0.4010 -0.9749
    8CHL1    C2  565   4.411   5.483   9.950 -1.0765 -0.0536  0.0388
    8CHL1   H2A  566   4.308   5.520   9.971 -1.8332 -1.2032 -1.3459
    8CHL1   H2B  567   4.484   5.552   9.995 -2.0017 -0.5905  2.5175
    8CHL1   C20  568   4.647   5.441   9.053  0.1198 -0.1960 -0.5348
    8CHL1   H20  569   4.744   5.496   9.059 -0.1751  0.1667  2.1983
    8CHL1   C21  570   4.533   5.551   9.045 -0.2091  0.6388  0.0864
    8CHL1  H21A  571   4.554   5.627   8.967 -1.2122 -0.6181 -1.4735
    8CHL1  H21B  572   4.504   5.600   9.139 -3.2279 -1.1047  0.1832
    8CHL1  H21C  573   4.447   5.491   9.009 -0.0720  0.8805 -0.6781
    8CHL1   C22  574   4.654   5.354   8.922 -0.7227 -0.6719 -0.0525
    8CHL1  H22A  575   4.738   5.282   8.917  1.0924  1.3247  0.3662
    8CHL1  H22B  576   4.560   5.295   8.914 -1.1803  0.0370  0.0745
    8CHL1   C23  577   4.676   5.450   8.798 -0.5089 -0.4287 -0.1827
    8CHL1  H23A  578   4.580   5.497   8.767  0.0865 -0.1291 -1.7186
    8CHL1  H23B  579   4.755   5.525   8.820  1.2198 -2.1621 -0.1771
    8CHL1   C24  580   4.724   5.376   8.672 -0.1964 -0.0202 -0.0642
    8CHL1  H24A  581   4.813   5.312   8.689 -0.5114 -0.6551 -0.7274
    8CHL1  H24B  582   4.636   5.317   8.641  0.3367 -0.3603 -0.9679
    8CHL1   C25  583   4.760   5.466   8.551  0.4102  0.2978  0.4948
    8CHL1   H25  584   4.838   5.535   8.590  1.6517  0.0109 -1.3296
    8CHL1   C26  585   4.824   5.378   8.434 -0.0635 -0.5382  0.1773
    8CHL1  H26A  586   4.904   5.320   8.484  0.2186 -0.5933 -0.3360
    8CHL1  H26B  587   4.753   5.305   8.389 -2.4757  0.9557  1.3659
    8CHL1  H26C  588   4.852   5.438   8.345  1.1502 -1.5969 -0.1753
    8CHL1   C27  589   4.644   5.549   8.491  0.1505  0.1337 -0.2617
    8CHL1  H27A  590   4.675   5.600   8.397 -0.0655 -2.4969 -1.8767
    8CHL1  H27B  591   4.566   5.473   8.468  0.2620 -0.1732  0.3489
    8CHL1  H27C  592   4.605   5.619   8.567  0.7391 -1.3832  1.5131
    9CHL1    C3  593   3.298   6.222  10.216  0.4591 -0.3108 -0.3995
    9CHL1    H3  594   3.367   6.141  10.186  1.1448 -0.6414  1.8464
    9CHL1    O3  595   3.284   6.217  10.356  0.5311 -0.0794  0.4132
    9CHL1   H3'  596   3.247   6.302  10.381  1.6410  0.6092 -0.1979
    9CHL1    C4  597   3.361   6.348  10.165 -0.0965 -0.6473  0.6169
    9CHL1   H4A  598   3.304   6.437  10.200  0.6654  0.5022 -0.9525
    9CHL1   H4B  599   3.461   6.349  10.213 -0.7988  1.3085  2.1966
    9CHL1    C5  600   3.381   6.365  10.011 -0.3140  0.0107 -0.3545
    9CHL1    C6  601   3.500   6.386   9.955  0.2188 -0.0765 -0.4432
    9CHL1    H6  602   3.594   6.407  10.008 -0.1353  1.8976 -0.5367
    9CHL1    C7  603   3.535   6.394   9.806 -1.1445  0.3821 -0.2525
    9CHL1   H7A  604   3.601   6.481   9.785  1.0816 -1.2489 -0.3671
    9CHL1   H7B  605   3.599   6.312   9.768 -2.6996  0.2718 -2.8930
    9CHL1    C8  606   3.401   6.398   9.723  0.1843 -0.9261 -0.2376
    9CHL1    H8  607   3.365   6.503   9.734 -0.6000 -0.9524 -2.2104
    9CHL1   C14  608   3.436   6.372   9.574  0.1355 -0.7332 -0.1026
    9CHL1   H14  609   3.478   6.270   9.580 -0.8408 -1.1062  0.6327
    9CHL1   C15  610   3.555   6.452   9.520 -0.1489  0.6059  0.5596
    9CHL1  H15A  611   3.549   6.563   9.526  0.7185  0.9035 -2.3483
    9CHL1  H15B  612   3.653   6.421   9.561  0.8103  0.7255 -1.5103
    9CHL1   C16  613   3.545   6.432   9.371  1.1194  0.8195  0.6203
    9CHL1  H16A  614   3.545   6.526   9.313  3.2177 -0.4915 -1.7082
    9CHL1  H16B  615   3.614   6.362   9.318  0.5284  1.4092 -0.9839
    9CHL1   C17  616   3.404   6.362   9.348 -0.9474  0.2995  0.3071
    9CHL1   H17  617   3.414   6.251   9.349  3.2615  0.5311 -0.3531
    9CHL1   C13  618   3.325   6.378   9.480 -0.7810  0.0206  0.3485
    9CHL1   C18  619   3.267   6.520   9.484  0.2884  0.8256  0.5988
    9CHL1  H18A  620   3.223   6.551   9.582  0.5109 -0.4616  1.1295
    9CHL1  H18B  621   3.345   6.585   9.440  1.9129 -1.8826 -0.8336
    9CHL1  H18C  622   3.177   6.525   9.420 -0.6823  3.1309  2.0137
    9CHL1   C12  623   3.218   6.275   9.527 -0.7356 -0.2779  0.6509
    9CHL1  H12A  624   3.130   6.273   9.459 -2.2981 -2.7857  2.5690
    9CHL1  H12B  625   3.264   6.174   9.519 -0.5461 -0.2015  0.7683
    9CHL1   C11  626   3.176   6.286   9.677  0.0050 -0.2713  0.6004
    9CHL1  H11A  627   3.102   6.369   9.686  0.1245 -0.1947  0.8834
    9CHL1  H11B  628   3.109   6.201   9.701 -0.4100 -0.1858 -0.2170
    9CHL1    C9  629   3.297   6.301   9.776  0.6685 -0.1802  0.1517
    9CHL1    H9  630   3.347   6.202   9.775 -1.6210 -1.4147  0.2839
    9CHL1   C10  631   3.257   6.325   9.928  0.2665 -1.0410 -0.4629
    9CHL1   C19  632   3.164   6.444   9.936 -0.5074 -0.2129  0.6165
    9CHL1  H19A  633   3.060   6.411   9.917 -0.0788 -0.6490 -1.1379
    9CHL1  H19B  634   3.160   6.486  10.039  0.1146  0.6210  0.3124
    9CHL1  H19C  635   3.200   6.524   9.868  1.6729 -1.9325 -0.3859
    9CHL1    C1  636   3.190   6.196   9.979  0.8109 -0.2109  0.1778
    9CHL1   H1A  637   3.094   6.185   9.925 -0.3538  1.6023  1.7508
    9CHL1   H1B  638   3.252   6.104   9.976  1.4437  0.2294 -1.0646
    9CHL1    C2  639   3.163   6.199  10.133 -0.6445  0.0639  0.3598
    9CHL1   H2A  640   3.120   6.102  10.165  0.3084 -0.2034  0.8768
    9CHL1   H2B  641   3.090   6.282  10.143 -1.7901 -0.7612 -0.9535
    9CHL1   C20  642   3.346   6.402   9.215  0.7352 -0.2432  0.0507
    9CHL1   H20  643   3.327   6.511   9.216 -0.8857 -0.4962 -0.3029
    9CHL1   C21  644   3.206   6.338   9.191 -0.3418 -0.1414  0.2535
    9CHL1  H21A  645   3.209   6.235   9.232 -1.2004 -0.4223 -0.3831
    9CHL1  H21B  646   3.178   6.350   9.084 -0.0394  0.5873  0.2524
    9CHL1  H21C  647   3.131   6.398   9.246  0.4040  0.9942  0.0623
    9CHL1   C22  648   3.440   6.359   9.108 -0.2844  0.6419  0.8878
    9CHL1  H22A  649   3.536   6.412   9.123  0.9940 -0.1894 -3.1722
    9CHL1  H22B  650   3.464   6.251   9.100 -0.7327  0.5796  0.3771
    9CHL1   C23  651   3.405   6.412   8.966  0.4483  1.5335 -0.6328
    9CHL1  H23A  652   3.302   6.382   8.938 -0.1032 -0.2080  2.7173
    9CHL1  H23B  653   3.405   6.522   8.983 -2.0744  1.5066 -0.1487
    9CHL1   C24  654   3.492   6.363   8.854 -1.0846  0.1627 -0.3306
    9CHL1  H24A  655   3.598   6.367   8.890 -1.9076  0.1501  2.3295
    9CHL1  H24B  656   3.473   6.258   8.825 -1.1673  0.9320 -3.3949
    9CHL1   C25  657   3.464   6.427   8.715  0.5393 -0.2162 -0.2054
    9CHL1   H25  658   3.355   6.447   8.703 -0.1327 -2.5420  1.2982
    9CHL1   C26  659   3.551   6.550   8.704 -0.0100  0.0877  0.1826
    9CHL1  H26A  660   3.549   6.617   8.793 -1.1329  2.0323 -1.2419
    9CHL1  H26B  661   3.658   6.523   8.693  0.3821  1.9860 -0.9424
    9CHL1  H26C  662   3.524   6.610   8.615  0.2062 -0.5787 -0.3357
    9CHL1   C27  663   3.483   6.330   8.600  0.0177 -0.7909  0.0718
    9CHL1  H27A  664   3.589   6.297   8.598  0.2428 -0.2343 -3.8428
    9CHL1  H27B  665   3.423   6.237   8.608 -1.1844  0.0707  1.6775
    9CHL1  H27C  666   3.473   6.371   8.497 -0.0194 -0.1726  0.3176
   10CHL1    C3  667   1.578   3.836  10.170  0.3969 -0.0354  0.2106
   10CHL1    H3  668   1.671   3.859  10.227  2.4840 -2.1362 -2.1213
   10CHL1    O3  669   1.502   3.800  10.281  0.1900  0.1646  0.1071
   10CHL1   H3'  670   1.439   3.734  10.251 -0.2775  0.9891 -0.7487
   10CHL1    C4  671   1.504   3.960  10.110 -0.5209  0.0776  0.1411
   10CHL1   H4A  672   1.396   3.937  10.091 -0.6364  0.2354  0.6045
   10CHL1   H4B  673   1.506   4.039  10.188  1.8705  0.0562  0.1785
   10CHL1    C5  674   1.585   3.999   9.983  0.3676  1.1709  0.1741
   10CHL1    C6  675   1.621   4.124   9.965 -0.2682  0.8500 -0.2651
   10CHL1    H6  676   1.592   4.197  10.041 -1.2821 -0.3831  0.5704
   10CHL1    C7  677   1.684   4.169   9.837 -0.9915  0.1788 -0.1313
   10CHL1   H7A  678   1.624   4.257   9.808 -0.2261  0.9023  0.4338
   10CHL1   H7B  679   1.788   4.202   9.858 -1.6317  1.4536  1.1462
   10CHL1    C8  680   1.677   4.068   9.717 -0.2364  0.2730  0.6653
   10CHL1    H8  681   1.576   4.078   9.672 -0.0599 -0.2427  0.1363
   10CHL1   C14  682   1.778   4.107   9.606  0.1080 -0.4291  0.5716
   10CHL1   H14  683   1.874   4.092   9.660  1.6932  1.4664 -1.5320
   10CHL1   C15  684   1.786   4.250   9.550  0.2950  0.1908  0.1900
   10CHL1  H15A  685   1.688   4.301   9.565  0.3827 -0.0095  1.5510
   10CHL1  H15B  686   1.868   4.313   9.589  0.3932  0.4444 -0.4136
   10CHL1   C16  687   1.826   4.236   9.409 -0.8379 -0.0608  0.3001
   10CHL1  H16A  688   1.746   4.268   9.338 -1.1039  1.6301  1.3167
   10CHL1  H16B  689   1.912   4.295   9.370 -1.5235  0.5879 -0.2702
   10CHL1   C17  690   1.874   4.089   9.396  0.0532 -0.0841  0.5069
   10CHL1   H17  691   1.976   4.089   9.440 -0.1375  0.1563  0.9574
   10CHL1   C13  692   1.779   4.011   9.487  0.4345  0.4425 -0.6036
   10CHL1   C18  693   1.644   4.014   9.416 -0.4404  0.3923  0.5528
   10CHL1  H18A  694   1.565   3.988   9.489  0.2695  0.3647  1.3211
   10CHL1  H18B  695   1.615   4.113   9.375  0.2138 -0.2503 -1.5999
   10CHL1  H18C  696   1.642   3.940   9.332 -1.0764 -0.4088  1.2509
   10CHL1   C12  697   1.817   3.867   9.541 -0.1868 -0.1925 -0.0335
   10CHL1  H12A  698   1.818   3.797   9.455  0.2077  0.2919 -0.4360
   10CHL1  H12B  699   1.921   3.892   9.574 -0.3617 -0.9758  1.1686
   10CHL1   C11  700   1.725   3.828   9.646 -0.0605  1.3084 -0.2435
   10CHL1  H11A  701   1.625   3.794   9.610  1.1312 -0.8631 -1.7417
   10CHL1  H11B  702   1.771   3.733   9.680 -1.6887 -0.0380 -1.6246
   10CHL1    C9  703   1.705   3.928   9.764 -0.4563  0.0004 -0.5340
   10CHL1    H9  704   1.807   3.936   9.806 -0.0415 -0.8395 -1.3503
   10CHL1   C10  705   1.612   3.884   9.875 -0.3297 -0.4973 -0.5467
   10CHL1   C19  706   1.474   3.847   9.811  0.4244 -0.3432 -0.4469
   10CHL1  H19A  707   1.423   3.933   9.763  0.3967  0.2628  0.6311
   10CHL1  H19B  708   1.479   3.756   9.747 -1.8290 -1.9451  1.4574
   10CHL1  H19C  709   1.404   3.817   9.892  2.9500 -0.5390  1.7924
   10CHL1    C1  710   1.678   3.765   9.953  0.1964 -0.6940  0.6502
   10CHL1   H1A  711   1.707   3.690   9.877  0.9395 -0.5460  0.7812
   10CHL1   H1B  712   1.778   3.790   9.995 -0.0176 -0.4944  1.0471
   10CHL1    C2  713   1.600   3.718  10.073 -0.1468 -0.6074  0.5056
   10CHL1   H2A  714   1.654   3.637  10.127  1.3914 -0.1022 -0.2266
   10CHL1   H2B  715   1.503   3.678  10.036 -1.0594  1.2472  0.7828
   10CHL1   C20  716   1.902   4.043   9.248 -0.3713 -0.5140 -0.3386
   10CHL1   H20  717   1.881   3.934   9.242 -0.6771 -0.6399  2.1945
   10CHL1   C21  718   2.056   4.053   9.211  0.2244 -0.0368 -0.3383
   10CHL1  H21A  719   2.086   4.158   9.231  0.0261 -0.2306  1.1300
   10CHL1  H21B  720   2.076   4.009   9.111  4.1673 -0.1316  0.3148
   10CHL1  H21C  721   2.111   3.985   9.280  0.6620  1.8203  1.2233
   10CHL1   C22  722   1.817   4.110   9.138 -0.9687 -0.0597 -0.1600
   10CHL1  H22A  723   1.710   4.122   9.168 -0.8015 -0.0891  0.4462
   10CHL1  H22B  724   1.858   4.210   9.112 -0.1310 -1.2271 -4.0206
   10CHL1   C23  725   1.822   4.028   8.997  0.6213  0.0675  0.1621
   10CHL1  H23A  726   1.923   4.019   8.953  0.0584  0.3954 -1.2408
   10CHL1  H23B  727   1.783   3.926   9.018 -0.1616  0.5753  1.3408
   10CHL1   C24  728   1.729   4.086   8.886 -0.4628 -0.0095  0.2850
   10CHL1  H24A  729   1.629   4.083   8.935  0.3890 -2.0217  2.0711
   10CHL1  H24B  730   1.750   4.192   8.860 -1.9914  0.3478  0.4380
   10CHL1   C25  731   1.709   4.007   8.755  0.3754  0.1800 -0.1138
   10CHL1   H25  732   1.693   3.899   8.777  0.6334 -0.0586 -1.0282
   10CHL1   C26  733   1.591   4.054   8.677 -0.4290 -0.6711  0.2396
   10CHL1  H26A  734   1.600   4.156   8.635 -0.5948 -0.3716  0.9113
   10CHL1  H26B  735   1.566   3.977   8.601  1.2451 -0.2033 -0.8282
   10CHL1  H26C  736   1.509   4.045   8.752 -0.2907 -1.8079  0.2801
   10CHL1   C27  737   1.833   4.004   8.669  0.2257 -0.9939  0.0032
   10CHL1  H27A  738   1.913   3.939   8.711 -0.0341 -1.3659 -0.0692
   10CHL1  H27B  739   1.798   3.969   8.569 -1.5302 -1.3670  0.7252
   10CHL1  H27C  740   1.867   4.109   8.658  2.3993 -1.2482  3.0476
   11CHL1    C3  741   3.577   1.064  10.246 -0.0032  0.2679  0.3213
   11CHL1    H3  742   3.538   1.167  10.236  0.2843  0.3182 -0.3409
   11CHL1    O3  743   3.569   1.034  10.384  0.4437 -0.2863  0.5661
   11CHL1   H3'  744   3.656   1.003  10.411  1.9348  1.3952 -1.9373
   11CHL1    C4  745   3.489   0.958  10.175  0.3344 -0.2660 -0.1118
   11CHL1   H4A  746   3.533   0.856  10.180  0.2625 -0.3778 -1.4206
   11CHL1   H4B  747   3.385   0.962  10.215 -0.1247  1.3350 -1.3610
   11CHL1    C5  748   3.492   0.987  10.026  0.2615 -0.1337 -0.2624
   11CHL1    C6  749   3.374   1.023   9.971 -0.0971 -0.7858 -0.2266
   11CHL1    H6  750   3.283   1.014  10.032  0.1648  0.9522  0.4523
   11CHL1    C7  751   3.362   1.058   9.827  0.7556 -0.2852 -0.3103
   11CHL1   H7A  752   3.274   1.021   9.770 -0.3270  1.9672 -0.2030
   11CHL1   H7B  753   3.371   1.169   9.821 -0.5286  0.1683  3.2942
   11CHL1    C8  754   3.487   1.021   9.753 -0.0558 -0.0682  1.0357
   11CHL1    H8  755   3.495   0.910   9.748 -0.5660 -0.0491 -0.4893
   11CHL1   C14  756   3.483   1.070   9.609 -0.5754 -0.6682 -0.7712
   11CHL1   H14  757   3.465   1.180   9.607  1.3479 -0.2372  1.2414
   11CHL1   C15  758   3.365   1.024   9.523  0.0210  0.2919  0.4038
   11CHL1  H15A  759   3.362   0.913   9.526 -0.5998  0.0665 -3.2479
   11CHL1  H15B  760   3.268   1.070   9.553  0.3533  0.0162  1.9993
   11CHL1   C16  761   3.411   1.064   9.381  0.2794 -0.1408  0.5022
   11CHL1  H16A  762   3.382   0.979   9.315 -0.7173  1.0102 -0.6174
   11CHL1  H16B  763   3.356   1.154   9.344  2.7493  0.5161 -1.8678
   11CHL1   C17  764   3.563   1.083   9.387  0.4306 -0.8946  0.9072
   11CHL1   H17  765   3.576   1.194   9.385 -0.4201 -0.7949 -0.8507
   11CHL1   C13  766   3.608   1.041   9.519 -0.3494  0.7209 -0.3524
   11CHL1   C18  767   3.640   0.885   9.506 -0.1010 -0.5715 -0.3621
   11CHL1  H18A  768   3.652   0.854   9.612 -1.2162  3.3047  1.0955
   11CHL1  H18B  769   3.555   0.834   9.457 -0.6833  0.7765 -0.8102
   11CHL1  H18C  770   3.736   0.877   9.451  0.9528 -3.9001  1.6556
   11CHL1   C12  771   3.727   1.119   9.584 -0.2168 -0.0645 -0.6254
   11CHL1  H12A  772   3.815   1.115   9.517 -0.8912 -1.5203 -1.4728
   11CHL1  H12B  773   3.692   1.222   9.604 -0.0781 -0.6861  4.0394
   11CHL1   C11  774   3.738   1.060   9.732 -0.3137 -0.1237  0.0359
   11CHL1  H11A  775   3.780   0.957   9.724 -0.3776 -0.0267 -2.6103
   11CHL1  H11B  776   3.821   1.110   9.785  0.1022 -3.4180  2.8462
   11CHL1    C9  777   3.611   1.070   9.823  0.2938  0.2550 -0.2361
   11CHL1    H9  778   3.602   1.180   9.834 -0.5325  0.3890 -1.8894
   11CHL1   C10  779   3.631   1.002   9.967 -0.1716 -0.6553  0.4045
   11CHL1   C19  780   3.686   0.857   9.947 -0.5405  0.1639  0.3189
   11CHL1  H19A  781   3.634   0.803   9.865 -0.6733  1.8700 -0.7763
   11CHL1  H19B  782   3.795   0.863   9.925 -0.8330 -1.1163 -1.6919
   11CHL1  H19C  783   3.674   0.796  10.039 -1.0848  2.5149  1.8848
   11CHL1    C1  784   3.737   1.086  10.045  0.7649 -0.1646 -0.6814
   11CHL1   H1A  785   3.841   1.058  10.017  1.1766  0.1520  0.4781
   11CHL1   H1B  786   3.724   1.195  10.033  0.2956 -0.4136 -2.9298
   11CHL1    C2  787   3.728   1.052  10.198 -0.3136  0.0972 -0.6126
   11CHL1   H2A  788   3.798   1.129  10.238 -0.4787  0.3193 -0.7498
   11CHL1   H2B  789   3.768   0.950  10.216 -2.2490 -0.7618 -1.0089
   11CHL1   C20  790   3.629   1.043   9.256 -0.1287  0.3041  0.5101
   11CHL1   H20  791   3.620   0.934   9.241 -0.2075  0.4476 -0.5383
   11CHL1   C21  792   3.780   1.083   9.256  0.0306  0.3491 -0.3608
   11CHL1  H21A  793   3.799   1.188   9.287 -0.6700 -0.4640  3.2438
   11CHL1  H21B  794   3.829   1.053   9.161 -0.0745 -1.4225  0.1074
   11CHL1  H21C  795   3.834   1.019   9.328 -2.1170  0.5179  1.5218
   11CHL1   C22  796   3.556   1.102   9.125  0.1954 -0.2089  0.4711
   11CHL1  H22A  797   3.467   1.037   9.116  0.3321 -0.5766  1.6390
   11CHL1  H22B  798   3.523   1.207   9.140 -1.0740 -0.5155 -0.0829
   11CHL1   C23  799   3.631   1.091   8.999  0.5292 -0.0079 -0.0929
   11CHL1  H23A  800   3.717   1.160   8.986  0.4385  0.0596 -0.3271
   11CHL1  H23B  801   3.660   0.985   8.983  3.4713  0.5645  0.8700
   11CHL1   C24  802   3.542   1.118   8.877 -0.3341  0.7703 -0.1896
   11CHL1  H24A  803   3.454   1.053   8.898 -0.0929  0.9392  1.5074
   11CHL1  H24B  804   3.525   1.227   8.870  0.6531  1.0921  1.6535
   11CHL1   C25  805   3.598   1.064   8.738 -0.0285 -0.3220  0.1837
   11CHL1   H25  806   3.524   1.087   8.659 -0.6908  0.4733  1.0217
   11CHL1   C26  807   3.734   1.132   8.705  0.5682  1.2153 -0.4695
   11CHL1  H26A  808   3.805   1.105   8.786  0.5905 -0.6418 -1.0603
   11CHL1  H26B  809   3.768   1.086   8.609 -1.6189 -0.0797 -0.6956
   11CHL1  H26C  810   3.710   1.240   8.699  0.2651  1.2762  1.3811
   11CHL1   C27  811   3.614   0.908   8.730  1.1138 -0.6448  0.9621
   11CHL1  H27A  812   3.656   0.872   8.633 -1.5065  1.9574 -1.3198
   11CHL1  H27B  813   3.680   0.868   8.811  1.8955  0.1303  0.7226
   11CHL1  H27C  814   3.514   0.861   8.740  0.7241  0.1483  0.7930
   12CHL1    C3  815   5.578   4.914   9.947  0.2481 -0.0999 -0.1966
   12CHL1    H3  816   5.519   5.006   9.926 -2.7585 -1.5231  1.2758
   12CHL1    O3  817   5.573   4.877  10.084  0.5565 -0.4327 -0.5009
   12CHL1   H3'  818   5.609   4.788  10.094 -1.2114 -1.3121 -1.3439
   12CHL1    C4  819   5.509   4.798   9.863 -0.2318  0.0148  0.1720
   12CHL1   H4A  820   5.548   4.697   9.886  2.2740  0.6831 -0.8176
   12CHL1   H4B  821   5.403   4.793   9.897 -1.1491  3.4933 -1.6359
   12CHL1    C5  822   5.518   4.802   9.715 -0.1220  0.0372  0.6609
   12CHL1    C6  823   5.401   4.816   9.639  0.1152  0.1956  0.1495
   12CHL1    H6  824   5.305   4.793   9.688  0.8113 -1.3657  0.8616
   12CHL1    C7  825   5.398   4.813   9.492 -0.9531  0.4683  0.7482
   12CHL1   H7A  826   5.323   4.738   9.457  0.2810  0.1550 -1.3954
   12CHL1   H7B  827   5.365   4.911   9.450  0.7882  1.0177  0.6003
   12CHL1    C8  828   5.537   4.793   9.432 -0.1301  0.2299 -0.4056
   12CHL1    H8  829   5.563   4.687   9.453  1.9150  1.0066  1.4215
   12CHL1   C14  830   5.540   4.817   9.285  1.1215  0.5946 -0.6131
   12CHL1   H14  831   5.512   4.925   9.280  0.0079  0.3722  0.4906
   12CHL1   C15  832   5.448   4.716   9.208  0.0851  0.0937  0.4351
   12CHL1  H15A  833   5.466   4.613   9.246  0.4041 -0.1946 -0.4717
   12CHL1  H15B  834   5.341   4.738   9.225 -0.6033 -2.0593 -0.8116
   12CHL1   C16  835   5.500   4.721   9.067 -0.4524 -0.5637 -0.2871
   12CHL1  H16A  836   5.515   4.615   9.035 -2.1897 -0.8228 -0.3517
   12CHL1  H16B  837   5.417   4.763   9.008 -2.8211 -0.4473  2.8492
   12CHL1   C17  838   5.632   4.807   9.068  0.1525 -0.2393  0.0518
   12CHL1   H17  839   5.597   4.911   9.052 -1.8861 -0.5770  1.9421
   12CHL1   C13  840   5.679   4.804   9.218  0.1447 -0.3622  0.3990
   12CHL1   C18  841   5.740   4.666   9.242  0.4594  0.2501 -0.1235
   12CHL1  H18A  842   5.740   4.644   9.351  0.6233 -0.7925 -0.3159
   12CHL1  H18B  843   5.696   4.581   9.185 -0.7764  0.6992  0.1475
   12CHL1  H18C  844   5.847   4.660   9.210 -0.8078  2.0564 -5.8191
   12CHL1   C12  845   5.771   4.912   9.273 -0.4474 -0.1433 -0.5147
   12CHL1  H12A  846   5.872   4.893   9.230 -0.6739  0.1898 -1.2165
   12CHL1  H12B  847   5.745   5.019   9.255 -0.4397  0.1867  1.2829
   12CHL1   C11  848   5.783   4.894   9.425  0.0578 -0.0988 -0.1057
   12CHL1  H11A  849   5.846   4.804   9.443  1.2759  0.4860 -1.3372
   12CHL1  H11B  850   5.836   4.983   9.465  1.7521 -0.9003 -0.4643
   12CHL1    C9  851   5.646   4.880   9.506 -0.1520  0.5330 -0.1717
   12CHL1    H9  852   5.610   4.984   9.515  0.4297  0.6556  0.8204
   12CHL1   C10  853   5.657   4.834   9.656 -0.1431 -0.0983  0.0125
   12CHL1   C19  854   5.736   4.703   9.668  0.8405 -0.7553 -0.4000
   12CHL1  H19A  855   5.736   4.670   9.774  1.4294  1.7979  0.4634
   12CHL1  H19B  856   5.703   4.630   9.591  0.6177 -1.7050  0.5857
   12CHL1  H19C  857   5.839   4.736   9.641 -0.1355  2.9083 -0.2351
   12CHL1    C1  858   5.720   4.950   9.736 -0.3752 -0.8611 -0.3200
   12CHL1   H1A  859   5.827   4.962   9.708 -0.6093  0.7178 -0.6421
   12CHL1   H1B  860   5.663   5.044   9.718 -0.1693  0.2593  3.7546
   12CHL1    C2  861   5.722   4.943   9.890  0.3200 -0.3501  0.0655
   12CHL1   H2A  862   5.772   5.024   9.946  0.2489 -0.6017  0.4960
   12CHL1   H2B  863   5.788   4.856   9.912  0.4830 -0.9108 -2.2848
   12CHL1   C20  864   5.728   4.764   8.951  0.3654  0.2653 -0.4742
   12CHL1   H20  865   5.756   4.657   8.966 -2.4091 -0.3147  1.3749
   12CHL1   C21  866   5.847   4.858   8.960 -0.0446  0.1907  0.7207
   12CHL1  H21A  867   5.914   4.804   9.030  1.3576 -0.9990 -1.4336
   12CHL1  H21B  868   5.822   4.958   9.003  0.3136  0.3423  0.5787
   12CHL1  H21C  869   5.904   4.870   8.866 -1.2575 -1.8366 -0.3351
   12CHL1   C22  870   5.669   4.770   8.810  0.0545  0.1961 -0.6415
   12CHL1  H22A  871   5.572   4.716   8.805  0.8873 -1.2790 -2.3205
   12CHL1  H22B  872   5.653   4.876   8.781 -1.1817  0.0240 -0.6031
   12CHL1   C23  873   5.748   4.701   8.692 -0.2401  0.3306  0.0722
   12CHL1  H23A  874   5.844   4.749   8.662  1.9571 -2.0312  2.7125
   12CHL1  H23B  875   5.784   4.604   8.733 -0.2066  0.3842  0.1704
   12CHL1   C24  876   5.666   4.694   8.561  0.0909  0.8445 -0.7115
   12CHL1  H24A  877   5.721   4.618   8.501 -0.8546 -0.1194 -0.3967
   12CHL1  H24B  878   5.567   4.664   8.602  0.4511  0.8892  0.2198
   12CHL1   C25  879   5.650   4.821   8.480  0.5504 -0.2642  0.3006
   12CHL1   H25  880   5.737   4.884   8.507 -0.1879  1.7055 -1.5766
   12CHL1   C26  881   5.662   4.798   8.323 -0.3596 -0.3590 -0.0421
   12CHL1  H26A  882   5.760   4.747   8.310  0.1146 -0.2521  2.5571
   12CHL1  H26B  883   5.576   4.735   8.295  0.2391 -1.5156  0.6495
   12CHL1  H26C  884   5.672   4.893   8.265  1.1450  0.6323  1.6903
   12CHL1   C27  885   5.517   4.890   8.506 -0.4666  0.2491  0.0553
   12CHL1  H27A  886   5.515   4.990   8.456 -0.3912 -0.9844 -2.6174
   12CHL1  H27B  887   5.440   4.834   8.449 -0.0963  0.0660 -0.2721
   12CHL1  H27C  888   5.500   4.902   8.615  2.3378 -2.0704  0.8847
   13CHL1    C3  889   6.175   5.829   9.733  0.1851  0.2716  0.0845
   13CHL1    H3  890   6.083   5.768   9.727  0.1873  0.3339 -0.7367
   13CHL1    O3  891   6.231   5.819   9.866 -0.2211  0.1531  0.0568
   13CHL1   H3'  892   6.320   5.853   9.874 -1.3076  3.2191  0.2941
   13CHL1    C4  893   6.270   5.781   9.626 -0.2134 -0.2948  0.9065
   13CHL1   H4A  894   6.367   5.835   9.635  0.2763 -0.0657 -3.5603
   13CHL1   H4B  895   6.294   5.675   9.652 -0.8174 -0.5034  0.6220
   13CHL1    C5  896   6.217   5.812   9.483  0.5058  1.6915  0.1601
   13CHL1    C6  897   6.205   5.712   9.392 -0.0031 -0.0126 -0.6910
   13CHL1    H6  898   6.236   5.614   9.432  0.0954 -0.9317 -2.9205
   13CHL1    C7  899   6.171   5.727   9.252 -0.6291  0.7333  0.2080
   13CHL1   H7A  900   6.243   5.669   9.191  1.0052  1.4985  1.3350
   13CHL1   H7B  901   6.073   5.680   9.229  0.7073 -1.4769 -1.3859
   13CHL1    C8  902   6.165   5.873   9.209  0.2055 -0.4849  0.5593
   13CHL1    H8  903   6.266   5.911   9.183 -0.9649 -0.3339 -5.0454
   13CHL1   C14  904   6.090   5.876   9.080  0.3993 -0.5619  0.2204
   13CHL1   H14  905   5.993   5.829   9.109 -0.4851  1.4394  0.6953
   13CHL1   C15  906   6.140   5.788   8.963  0.5574 -0.2894 -0.0704
   13CHL1  H15A  907   6.251   5.788   8.953  0.6062 -0.6501  0.4440
   13CHL1  H15B  908   6.100   5.685   8.972 -0.5047 -0.1796 -2.6671
   13CHL1   C16  909   6.063   5.851   8.839 -1.2166 -0.0710 -0.3818
   13CHL1  H16A  910   6.148   5.884   8.776  0.9310 -1.2162  1.7521
   13CHL1  H16B  911   5.988   5.780   8.799  0.7443 -2.6979  0.3124
   13CHL1   C17  912   5.992   5.985   8.888 -0.7730  0.1125 -0.3864
   13CHL1   H17  913   5.887   5.958   8.912 -1.0996  2.0028  0.5423
   13CHL1   C13  914   6.062   6.010   9.022  0.0309 -1.1555  0.0905
   13CHL1   C18  915   6.192   6.085   9.001 -0.0074  0.2814  0.1772
   13CHL1  H18A  916   6.251   6.108   9.093  0.1791  0.6082 -0.0228
   13CHL1  H18B  917   6.250   6.012   8.941 -2.9392 -1.6076 -0.5809
   13CHL1  H18C  918   6.179   6.177   8.941  3.5273  0.9298  0.1884
   13CHL1   C12  919   5.989   6.096   9.131 -0.4088 -0.6988 -0.4467
   13CHL1  H12A  920   5.972   6.199   9.093 -2.5887 -0.3084  1.3734
   13CHL1  H12B  921   5.885   6.069   9.158 -0.6297  2.0836  1.9894
   13CHL1   C11  922   6.059   6.095   9.270 -0.3504  0.0317  0.2581
   13CHL1  H11A  923   6.141   6.170   9.268  0.5966 -0.9726  0.5392
   13CHL1  H11B  924   5.987   6.128   9.348 -2.4832 -2.0501 -0.6794
   13CHL1    C9  925   6.101   5.954   9.316 -0.3914 -0.4160 -0.0189
   13CHL1    H9  926   6.003   5.905   9.335 -0.4519 -0.2279  0.1697
   13CHL1   C10  927   6.171   5.953   9.452  0.8604 -0.3150 -0.6519
   13CHL1   C19  928   6.304   6.030   9.442 -0.0281  0.4600 -0.1387
   13CHL1  H19A  929   6.274   6.136   9.424  2.5498  1.0453 -1.5138
   13CHL1  H19B  930   6.363   6.025   9.536  0.5794  1.3580 -0.4533
   13CHL1  H19C  931   6.360   5.990   9.355  0.2603  0.7894 -0.1071
   13CHL1    C1  932   6.075   6.010   9.569 -0.4467  0.1606  0.5839
   13CHL1   H1A  933   6.056   6.120   9.567  1.6497  0.5546 -0.9022
   13CHL1   H1B  934   5.985   5.947   9.551 -1.2018  1.4480 -0.3367
   13CHL1    C2  935   6.132   5.979   9.709  0.0140 -0.5654  1.0928
   13CHL1   H2A  936   6.052   6.006   9.781 -1.6131 -0.2659 -0.7235
   13CHL1   H2B  937   6.219   6.043   9.732 -0.9345  1.5483 -0.7630
   13CHL1   C20  938   5.982   6.089   8.775 -0.2300 -0.2977 -0.2414
   13CHL1   H20  939   6.087   6.121   8.758  0.0674 -0.5439  1.0307
   13CHL1   C21  940   5.900   6.209   8.835 -0.1390 -0.5754  0.2083
   13CHL1  H21A  941   5.960   6.270   8.905 -0.7043  1.4417 -0.9800
   13CHL1  H21B  942   5.798   6.180   8.869 -1.1761  2.0638 -0.4168
   13CHL1  H21C  943   5.870   6.277   8.753 -0.8694 -1.7314 -0.5203
   13CHL1   C22  944   5.920   6.030   8.650  0.0932 -0.0997 -0.7069
   13CHL1  H22A  945   5.987   5.948   8.616 -0.3009 -1.3476  1.3755
   13CHL1  H22B  946   5.825   5.989   8.690 -0.3039  2.5171  1.2497
   13CHL1   C23  947   5.875   6.130   8.541 -0.5074 -0.2294 -0.5146
   13CHL1  H23A  948   5.929   6.224   8.564 -0.3082 -0.6826  1.0346
   13CHL1  H23B  949   5.919   6.097   8.445  1.3174  1.1250 -0.2068
   13CHL1   C24  950   5.731   6.168   8.539 -0.2404 -0.6118  0.2137
   13CHL1  H24A  951   5.683   6.068   8.535 -1.1111 -0.2167  0.6969
   13CHL1  H24B  952   5.706   6.224   8.631  0.0510  0.9770 -0.6269
   13CHL1   C25  953   5.673   6.247   8.415  0.1552 -0.2948  0.1890
   13CHL1   H25  954   5.722   6.215   8.321 -0.0556  1.0795 -0.4091
   13CHL1   C26  955   5.518   6.217   8.408 -0.6630 -0.3017  0.6598
   13CHL1  H26A  956   5.506   6.108   8.394 -0.3115 -0.1686 -0.9613
   13CHL1  H26B  957   5.471   6.242   8.505 -0.2233  0.1604  0.7604
   13CHL1  H26C  958   5.463   6.275   8.330  1.0193  0.9100  0.3103
   13CHL1   C27  959   5.712   6.392   8.439  0.5244  0.2815  0.1028
   13CHL1  H27A  960   5.819   6.398   8.468  0.1973 -2.2908  2.2220
   13CHL1  H27B  961   5.689   6.461   8.355 -2.5490  0.9763  1.3907
   13CHL1  H27C  962   5.654   6.430   8.526  0.3183 -0.2903  0.2198
   14CHL1    C3  963   4.589   1.458  10.281  0.2829  0.0381 -0.5507
   14CHL1    H3  964   4.583   1.348  10.294 -0.2068  0.0751 -0.4567
   14CHL1    O3  965   4.583   1.528  10.401  0.1055 -0.7960 -0.3726
   14CHL1   H3'  966   4.634   1.609  10.403  2.6703 -2.3005 -0.1344
   14CHL1    C4  967   4.713   1.496  10.210  0.2969 -1.0049  0.2924
   14CHL1   H4A  968   4.741   1.603  10.208 -0.2384 -0.8613  0.2656
   14CHL1   H4B  969   4.786   1.434  10.265  0.7397 -1.2259 -0.5217
   14CHL1    C5  970   4.716   1.435  10.071 -0.1670 -0.6500  0.7138
   14CHL1    C6  971   4.815   1.356  10.025 -0.2845 -1.1968  0.9239
   14CHL1    H6  972   4.900   1.343  10.094  1.0724 -0.6282 -0.5771
   14CHL1    C7  973   4.832   1.315   9.885 -0.5110 -0.2514 -0.1325
   14CHL1   H7A  974   4.937   1.329   9.851 -0.5606  1.8105  0.3998
   14CHL1   H7B  975   4.804   1.209   9.869 -0.7379  0.0274 -1.6935
   14CHL1    C8  976   4.733   1.398   9.787  0.0867 -0.3940  0.3020
   14CHL1    H8  977   4.770   1.502   9.774 -1.5514  0.2459  0.6073
   14CHL1   C14  978   4.722   1.329   9.650 -0.1120 -0.1893 -0.1973
   14CHL1   H14  979   4.680   1.228   9.668  1.2095 -0.3558  2.5272
   14CHL1   C15  980   4.854   1.299   9.575  0.1888  0.5514  0.0320
   14CHL1  H15A  981   4.929   1.381   9.571  0.8661 -0.0818 -0.4968
   14CHL1  H15B  982   4.915   1.213   9.609 -1.0685 -1.5143 -2.4829
   14CHL1   C16  983   4.810   1.278   9.435  0.2819  0.6217 -0.5787
   14CHL1  H16A  984   4.874   1.330   9.360  0.5944  0.0990 -0.6760
   14CHL1  H16B  985   4.834   1.172   9.414  3.0630  1.2516 -0.9557
   14CHL1   C17  986   4.653   1.312   9.423  0.2040 -0.1886  0.2002
   14CHL1   H17  987   4.589   1.222   9.436  0.4068 -0.0731  2.2942
   14CHL1   C13  988   4.627   1.401   9.547 -0.0509  0.2907 -0.4257
   14CHL1   C18  989   4.670   1.545   9.517  0.1332  0.5134  0.1187
   14CHL1  H18A  990   4.603   1.589   9.440 -1.1232  0.1258  0.9601
   14CHL1  H18B  991   4.682   1.611   9.606  2.6709 -0.6281  0.7228
   14CHL1  H18C  992   4.764   1.531   9.459 -0.6587  0.6404 -1.2562
   14CHL1   C12  993   4.488   1.394   9.606  0.4982 -1.0459 -0.5376
   14CHL1  H12A  994   4.410   1.441   9.543  1.0491 -0.8812 -1.1158
   14CHL1  H12B  995   4.457   1.287   9.617  1.3943 -1.4288 -1.4854
   14CHL1   C11  996   4.491   1.458   9.746  0.1061  0.8037  0.3191
   14CHL1  H11A  997   4.517   1.565   9.736  0.3662  0.6404 -0.8977
   14CHL1  H11B  998   4.384   1.456   9.775  0.8259  3.0703  3.7554
   14CHL1    C9  999   4.595   1.400   9.849  0.8048  0.0036  0.4724
   14CHL1    H9 1000   4.566   1.296   9.876  1.3246 -0.3816 -0.4094
   14CHL1   C10 1001   4.593   1.480   9.985 -0.1936 -0.2613  1.1828
   14CHL1   C19 1002   4.597   1.633   9.959  0.1521  0.0997 -0.5078
   14CHL1  H19A 1003   4.685   1.662   9.898  0.2193  1.0908  0.0401
   14CHL1  H19B 1004   4.503   1.666   9.911  0.3619  0.6291 -0.5604
   14CHL1  H19C 1005   4.599   1.683  10.059  1.5118 -1.2243  0.1763
   14CHL1    C1 1006   4.463   1.445  10.065 -0.0176 -0.3231 -0.3865
   14CHL1   H1A 1007   4.376   1.481  10.006  2.0129  1.4049 -2.4796
   14CHL1   H1B 1008   4.457   1.335  10.079  1.3973 -0.2794  0.8537
   14CHL1    C2 1009   4.460   1.499  10.204 -0.0135  0.0073 -0.2231
   14CHL1   H2A 1010   4.369   1.460  10.255 -0.5131  0.2627 -0.8947
   14CHL1   H2B 1011   4.449   1.609  10.193  0.4618 -0.2107 -4.6328
   14CHL1   C20 1012   4.618   1.373   9.284  0.4168 -0.2360  0.1375
   14CHL1   H20 1013   4.663   1.473   9.260  1.6142  0.1626  3.4811
   14CHL1   C21 1014   4.461   1.394   9.277  0.0811  0.6929 -0.1561
   14CHL1  H21A 1015   4.421   1.474   9.343  0.5515  1.4017 -0.7146
   14CHL1  H21B 1016   4.423   1.292   9.298 -1.0331  1.2176  0.4753
   14CHL1  H21C 1017   4.424   1.432   9.179 -0.5377  1.4186  0.3531
   14CHL1   C22 1018   4.659   1.275   9.176  0.3633  0.0049  0.1767
   14CHL1  H22A 1019   4.769   1.266   9.179  0.3322 -0.2047  1.9984
   14CHL1  H22B 1020   4.621   1.173   9.199  1.4904  0.2814  4.0584
   14CHL1   C23 1021   4.636   1.317   9.033  0.7515 -0.2926  0.1117
   14CHL1  H23A 1022   4.528   1.337   9.016 -0.1438 -1.8074  3.3036
   14CHL1  H23B 1023   4.693   1.411   9.016  2.7840 -0.8722  2.9288
   14CHL1   C24 1024   4.682   1.217   8.931 -0.0685 -0.1392  0.0542
   14CHL1  H24A 1025   4.676   1.263   8.830 -1.0658  0.8061  0.5168
   14CHL1  H24B 1026   4.790   1.192   8.944  0.5434  1.1486 -2.0706
   14CHL1   C25 1027   4.608   1.082   8.931  0.2751  0.0257 -0.6019
   14CHL1   H25 1028   4.638   1.045   9.031 -1.4231  2.9676  1.1265
   14CHL1   C26 1029   4.457   1.096   8.907 -0.0450  0.3599 -0.1009
   14CHL1  H26A 1030   4.401   1.169   8.969  0.1513 -1.1992  2.0038
   14CHL1  H26B 1031   4.435   1.124   8.802 -1.3917 -0.3700 -0.0343
   14CHL1  H26C 1032   4.402   1.000   8.923 -0.6746  1.1489  3.0353
   14CHL1   C27 1033   4.663   0.988   8.820 -0.3330  0.5245 -0.3139
   14CHL1  H27A 1034   4.640   1.031   8.720  1.0383  0.4624 -0.6732
   14CHL1  H27B 1035   4.772   0.973   8.816 -0.6134 -1.5365 -2.3831
   14CHL1  H27C 1036   4.610   0.891   8.833 -0.2076  0.3132 -1.3202
   15CHL1    C3 1037   4.633   6.572  10.001  0.6139 -0.8284  0.3000
   15CHL1    H3 1038   4.718   6.629   9.958 -0.5128  2.3227  1.9406
   15CHL1    O3 1039   4.645   6.560  10.143  0.0415  0.2316  0.0716
   15CHL1   H3' 1040   4.670   6.469  10.158 -0.3622 -0.2061 -1.6327
   15CHL1    C4 1041   4.505   6.651   9.966  0.8426 -0.2170  0.4747
   15CHL1   H4A 1042   4.423   6.613  10.030  2.3877 -0.6547  2.2959
   15CHL1   H4B 1043   4.524   6.754  10.003  2.2159 -0.4201  0.4112
   15CHL1    C5 1044   4.463   6.653   9.821 -0.4104 -0.1703 -0.4561
   15CHL1    C6 1045   4.434   6.767   9.770  0.6700 -0.1401 -0.5528
   15CHL1    H6 1046   4.426   6.856   9.834 -2.7433  1.0096 -2.3037
   15CHL1    C7 1047   4.392   6.784   9.622  0.2887  0.0806 -0.3380
   15CHL1   H7A 1048   4.302   6.850   9.616  1.2045  1.7060  2.1951
   15CHL1   H7B 1049   4.464   6.841   9.560 -2.1152  0.5525 -2.9186
   15CHL1    C8 1050   4.363   6.647   9.549 -0.1634  0.4583 -0.5176
   15CHL1    H8 1051   4.259   6.620   9.575 -0.0125 -0.2377 -0.6181
   15CHL1   C14 1052   4.378   6.666   9.403 -0.0026  0.3769  0.1568
   15CHL1   H14 1053   4.484   6.697   9.389 -0.0688  0.3207 -0.5159
   15CHL1   C15 1054   4.296   6.775   9.337  0.0803  0.2597 -0.6070
   15CHL1  H15A 1055   4.192   6.760   9.375  1.2983 -1.8606  2.2237
   15CHL1  H15B 1056   4.328   6.877   9.365 -0.9726  0.6704 -0.8249
   15CHL1   C16 1057   4.309   6.741   9.192 -0.1367 -0.3027 -0.5013
   15CHL1  H16A 1058   4.210   6.725   9.146 -1.6829  3.0107  1.3104
   15CHL1  H16B 1059   4.356   6.829   9.143 -2.1114  2.6670  2.5170
   15CHL1   C17 1060   4.398   6.610   9.180  0.0101 -0.8568 -0.1963
   15CHL1   H17 1061   4.506   6.634   9.176 -0.3701  1.3055  0.9809
   15CHL1   C13 1062   4.375   6.544   9.309  0.4715 -0.0581 -0.7979
   15CHL1   C18 1063   4.236   6.475   9.310  0.2776 -0.0416  0.4726
   15CHL1  H18A 1064   4.236   6.378   9.255 -0.9203  0.5589 -0.6667
   15CHL1  H18B 1065   4.204   6.459   9.415  0.2001  1.6087  0.7203
   15CHL1  H18C 1066   4.157   6.535   9.258 -0.5645 -1.7222 -0.2771
   15CHL1   C12 1067   4.480   6.447   9.359  0.1572  0.4250 -0.0475
   15CHL1  H12A 1068   4.471   6.350   9.305  0.4286  0.6031 -0.4176
   15CHL1  H12B 1069   4.581   6.486   9.332 -0.5097  3.0030  0.9339
   15CHL1   C11 1070   4.480   6.422   9.515  0.1761  0.4663 -0.2886
   15CHL1  H11A 1071   4.391   6.357   9.526  1.6990 -2.0409 -1.7448
   15CHL1  H11B 1072   4.572   6.363   9.537  0.6699  0.4188 -2.2310
   15CHL1    C9 1073   4.477   6.553   9.594  0.4822 -0.7710 -0.0703
   15CHL1    H9 1074   4.569   6.610   9.571 -1.2269  2.5034  0.5999
   15CHL1   C10 1075   4.468   6.524   9.751  0.1479 -0.2730 -0.2472
   15CHL1   C19 1076   4.340   6.440   9.775  0.1757  0.0698 -0.3145
   15CHL1  H19A 1077   4.316   6.412   9.880 -2.2900  4.4421  0.5213
   15CHL1  H19B 1078   4.253   6.505   9.752 -0.6504 -0.5505  0.9238
   15CHL1  H19C 1079   4.332   6.348   9.713 -3.0258  0.4041 -0.5489
   15CHL1    C1 1080   4.591   6.446   9.794 -0.8149 -0.3367 -0.3973
   15CHL1   H1A 1081   4.578   6.344   9.754 -0.9854 -0.3723 -0.2510
   15CHL1   H1B 1082   4.679   6.498   9.751 -1.2578  0.4088 -0.4274
   15CHL1    C2 1083   4.625   6.434   9.941 -0.0484  0.3861 -0.4069
   15CHL1   H2A 1084   4.723   6.384   9.956 -0.0212  0.8258  0.9852
   15CHL1   H2B 1085   4.550   6.369   9.991 -0.4489  2.1825  1.4241
   15CHL1   C20 1086   4.373   6.526   9.051  0.3266 -0.3758  0.1480
   15CHL1   H20 1087   4.285   6.458   9.061 -0.4587  0.7880  1.5834
   15CHL1   C21 1088   4.499   6.445   9.024  0.1770 -0.6013  0.7599
   15CHL1  H21A 1089   4.487   6.365   8.949 -0.6369  0.1291  0.0926
   15CHL1  H21B 1090   4.558   6.403   9.108  1.9549 -2.7923 -1.4399
   15CHL1  H21C 1091   4.566   6.512   8.966 -2.0564  0.1503 -1.0724
   15CHL1   C22 1092   4.340   6.621   8.932 -0.2217 -0.0624  0.2437
   15CHL1  H22A 1093   4.249   6.676   8.964 -0.0908 -0.6409  1.6482
   15CHL1  H22B 1094   4.423   6.694   8.926 -0.0194 -0.1540  1.6610
   15CHL1   C23 1095   4.310   6.561   8.789  0.2131 -0.3727 -0.1786
   15CHL1  H23A 1096   4.398   6.509   8.745  0.6369  0.1896 -0.0097
   15CHL1  H23B 1097   4.227   6.488   8.802  1.6440 -2.0237  0.0955
   15CHL1   C24 1098   4.254   6.673   8.690 -0.5258 -0.2391  0.3397
   15CHL1  H24A 1099   4.172   6.733   8.736 -3.7623 -1.4459 -3.2694
   15CHL1  H24B 1100   4.338   6.743   8.675 -0.0879 -0.8977 -0.3221
   15CHL1   C25 1101   4.214   6.619   8.553  0.1970 -0.2497 -0.1642
   15CHL1   H25 1102   4.164   6.520   8.558  1.9359 -1.1832 -0.4579
   15CHL1   C26 1103   4.131   6.724   8.470  0.1559  0.2489 -1.0345
   15CHL1  H26A 1104   4.105   6.667   8.378 -1.8219 -0.5657 -0.0402
   15CHL1  H26B 1105   4.038   6.742   8.529  0.2016 -2.0004 -0.1747
   15CHL1  H26C 1106   4.189   6.808   8.427  0.4603  0.8217  0.4334
   15CHL1   C27 1107   4.338   6.597   8.474 -1.1729 -0.0774  0.1394
   15CHL1  H27A 1108   4.390   6.506   8.510 -1.8166 -0.7744 -0.6383
   15CHL1  H27B 1109   4.304   6.569   8.372 -1.2303  4.9767 -1.5044
   15CHL1  H27C 1110   4.406   6.684   8.460 -0.2281 -0.9091 -0.6267
   16CHL1    C3 1111   5.120   2.259  10.186  0.2082  0.2077 -0.8132
   16CHL1    H3 1112   5.201   2.332  10.206 -1.6941  1.5750  2.9315
   16CHL1    O3 1113   5.060   2.225  10.308 -0.2264 -0.4446 -0.4269
   16CHL1   H3' 1114   5.013   2.302  10.341 -1.8701 -1.3640 -0.5619
   16CHL1    C4 1115   5.011   2.319  10.101  0.1301 -0.6280  0.2015
   16CHL1   H4A 1116   4.924   2.250  10.102  0.1651 -0.6880 -0.5407
   16CHL1   H4B 1117   4.958   2.410  10.139 -0.5899 -0.8220 -0.3110
   16CHL1    C5 1118   5.050   2.335   9.958 -0.3434  0.2014 -0.0389
   16CHL1    C6 1119   5.048   2.450   9.902 -0.0388 -0.3314 -0.0599
   16CHL1    H6 1120   5.021   2.542   9.958  2.3513  0.7379 -0.5358
   16CHL1    C7 1121   5.075   2.478   9.754 -0.3549  0.0806  0.0079
   16CHL1   H7A 1122   4.995   2.545   9.716 -0.2949 -0.0666 -0.3759
   16CHL1   H7B 1123   5.180   2.507   9.729  0.3414  0.0672  2.5771
   16CHL1    C8 1124   5.062   2.347   9.675  0.2056  0.4271  0.1296
   16CHL1    H8 1125   4.954   2.321   9.678  0.2296  0.3628  0.4461
   16CHL1   C14 1126   5.113   2.365   9.528  0.0912 -1.2503 -0.6226
   16CHL1   H14 1127   5.218   2.401   9.540 -0.3729 -0.6955  2.9387
   16CHL1   C15 1128   5.044   2.477   9.445 -0.3754 -0.3390 -0.2057
   16CHL1  H15A 1129   4.934   2.466   9.453 -0.2017 -1.2778  1.2088
   16CHL1  H15B 1130   5.076   2.574   9.489 -0.7843 -0.4074  0.2558
   16CHL1   C16 1131   5.082   2.452   9.301  0.4509 -0.3653 -0.6921
   16CHL1  H16A 1132   4.985   2.439   9.248 -1.3815  2.6518  1.5462
   16CHL1  H16B 1133   5.146   2.532   9.258  0.3920 -1.4488 -2.9407
   16CHL1   C17 1134   5.167   2.321   9.310 -0.1244 -0.0479  0.2284
   16CHL1   H17 1135   5.270   2.356   9.332  0.8596 -1.7730 -1.3260
   16CHL1   C13 1136   5.119   2.246   9.435  0.1770 -0.5872 -0.3511
   16CHL1   C18 1137   4.971   2.194   9.424 -0.1247  0.0268 -0.1409
   16CHL1  H18A 1138   4.962   2.116   9.346 -0.0410  0.5126 -0.6442
   16CHL1  H18B 1139   4.941   2.154   9.523  0.1473  1.3710  0.5099
   16CHL1  H18C 1140   4.908   2.278   9.389  0.5651  0.4474 -0.3971
   16CHL1   C12 1141   5.218   2.146   9.502 -0.9359  0.1926 -0.8715
   16CHL1  H12A 1142   5.224   2.047   9.451  0.8449  0.5886 -1.5163
   16CHL1  H12B 1143   5.322   2.186   9.502 -1.0327  0.4626  0.0565
   16CHL1   C11 1144   5.183   2.118   9.651 -0.5503  0.2890 -0.5709
   16CHL1  H11A 1145   5.097   2.047   9.651  0.6309 -1.2110 -1.2613
   16CHL1  H11B 1146   5.266   2.062   9.700 -0.9817 -1.4279 -1.6981
   16CHL1    C9 1147   5.147   2.239   9.744 -0.3982  0.4718  0.5433
   16CHL1    H9 1148   5.248   2.281   9.761  0.2409 -1.1705  0.9497
   16CHL1   C10 1149   5.098   2.203   9.886  0.4652 -0.5598 -0.0668
   16CHL1   C19 1150   4.978   2.106   9.873 -0.3363  0.1632 -0.7592
   16CHL1  H19A 1151   4.904   2.139   9.797 -0.7988 -0.1615 -0.4609
   16CHL1  H19B 1152   5.007   2.003   9.842  0.9173 -0.2270  1.5079
   16CHL1  H19C 1153   4.924   2.085   9.968  1.1387 -0.6069 -0.0610
   16CHL1    C1 1154   5.211   2.135   9.974  0.3415 -1.0494  0.6697
   16CHL1   H1A 1155   5.239   2.037   9.932  0.8803 -1.7337  2.5247
   16CHL1   H1B 1156   5.301   2.199   9.963  0.0134 -1.0249 -2.8147
   16CHL1    C2 1157   5.179   2.126  10.128 -0.3444  0.1087 -0.8018
   16CHL1   H2A 1158   5.263   2.094  10.193 -0.7259 -1.8313 -1.2055
   16CHL1   H2B 1159   5.097   2.051  10.133 -0.0443 -0.1494  0.7998
   16CHL1   C20 1160   5.163   2.254   9.169  0.2027  1.0365  0.1335
   16CHL1   H20 1161   5.058   2.221   9.152  0.5455  0.5260 -1.0777
   16CHL1   C21 1162   5.258   2.120   9.170 -0.1728 -0.8933 -0.2904
   16CHL1  H21A 1163   5.351   2.143   9.226  0.6427 -1.6404 -1.3140
   16CHL1  H21B 1164   5.271   2.092   9.064 -0.3519  0.1708 -0.6031
   16CHL1  H21C 1165   5.201   2.039   9.222  0.2932 -1.5138 -0.7240
   16CHL1   C22 1166   5.190   2.346   9.050 -0.2027  0.5469  0.4896
   16CHL1  H22A 1167   5.175   2.286   8.958  2.7303  1.9320 -1.0237
   16CHL1  H22B 1168   5.124   2.435   9.049 -1.2500 -0.2049 -0.7189
   16CHL1   C23 1169   5.340   2.391   9.039  0.3590 -0.0443 -0.0242
   16CHL1  H23A 1170   5.369   2.457   9.124 -1.3792  0.6629  0.0609
   16CHL1  H23B 1171   5.414   2.308   9.041  0.4727  0.0468 -0.4660
   16CHL1   C24 1172   5.354   2.478   8.914 -0.2341 -0.1759  0.3246
   16CHL1  H24A 1173   5.325   2.421   8.824 -0.9459  1.8218 -0.7680
   16CHL1  H24B 1174   5.271   2.552   8.921 -1.0732 -0.8966 -1.5132
   16CHL1   C25 1175   5.501   2.533   8.887  0.8601  1.0011  0.5608
   16CHL1   H25 1176   5.530   2.592   8.976  1.1442 -1.1357  1.9708
   16CHL1   C26 1177   5.607   2.426   8.869 -0.3687  0.1975  0.3470
   16CHL1  H26A 1178   5.714   2.456   8.864  0.1548 -1.4811  0.9323
   16CHL1  H26B 1179   5.605   2.365   8.962 -0.1210  2.1714  1.6992
   16CHL1  H26C 1180   5.584   2.365   8.779 -4.7067 -2.0699  2.6754
   16CHL1   C27 1181   5.499   2.631   8.764  0.1343 -0.3337 -0.1394
   16CHL1  H27A 1182   5.438   2.720   8.792  0.6905  0.1253 -0.3640
   16CHL1  H27B 1183   5.606   2.659   8.752  1.2518 -3.5370  1.3044
   16CHL1  H27C 1184   5.461   2.580   8.673 -1.0405 -2.8918  1.6525
   17CHL1    C3 1185   4.402   1.006  10.233 -0.6942 -0.0663  0.5246
   17CHL1    H3 1186   4.345   1.101  10.224  1.1609  0.9967 -0.7849
   17CHL1    O3 1187   4.451   1.004  10.368 -0.3301  0.4513 -0.1883
   17CHL1   H3' 1188   4.486   1.091  10.384  1.5729 -0.4826  1.0581
   17CHL1    C4 1189   4.315   0.876  10.188 -0.8738 -0.4271 -0.4133
   17CHL1   H4A 1190   4.376   0.786  10.211 -0.5498 -0.0709  0.1397
   17CHL1   H4B 1191   4.230   0.869  10.259  1.8318  0.1803  3.1890
   17CHL1    C5 1192   4.271   0.885  10.048  0.4594  0.3550  0.6687
   17CHL1    C6 1193   4.143   0.867  10.022 -0.2465 -0.2305  0.0948
   17CHL1    H6 1194   4.076   0.847  10.107  0.4022  0.7277  0.8540
   17CHL1    C7 1195   4.089   0.864   9.879  0.1066  0.6442 -0.2742
   17CHL1   H7A 1196   4.025   0.773   9.873  0.1360  0.4707  1.4826
   17CHL1   H7B 1197   4.029   0.953   9.851  2.1945  1.9241 -0.9740
   17CHL1    C8 1198   4.202   0.859   9.773  1.0586  0.2360 -0.2125
   17CHL1    H8 1199   4.245   0.757   9.767  3.5140  1.2360 -0.9512
   17CHL1   C14 1200   4.152   0.892   9.635 -0.1829  0.6404 -0.1016
   17CHL1   H14 1201   4.108   0.993   9.647  1.5468  1.1456  3.0641
   17CHL1   C15 1202   4.045   0.790   9.582 -0.1631 -0.0190 -0.8070
   17CHL1  H15A 1203   4.076   0.683   9.579  1.0930  0.2648  0.8501
   17CHL1  H15B 1204   3.954   0.779   9.644  0.8118 -0.0717  0.6513
   17CHL1   C16 1205   4.034   0.838   9.439  0.4257 -0.2413  0.0268
   17CHL1  H16A 1206   4.008   0.758   9.367 -0.5992 -0.4610  0.6135
   17CHL1  H16B 1207   3.946   0.906   9.437 -0.8995 -1.6768  2.8822
   17CHL1   C17 1208   4.160   0.925   9.399 -0.8714 -0.4475 -0.3027
   17CHL1   H17 1209   4.135   1.033   9.406  0.4540 -0.1388  0.0910
   17CHL1   C13 1210   4.254   0.898   9.521 -0.2232 -0.1172  0.3045
   17CHL1   C18 1211   4.328   0.769   9.501 -0.1502  0.3104  0.4673
   17CHL1  H18A 1212   4.361   0.725   9.597 -2.2177 -0.5488  0.8528
   17CHL1  H18B 1213   4.260   0.695   9.453  1.1026  0.1945 -1.2003
   17CHL1  H18C 1214   4.413   0.781   9.431 -1.7424  0.4775 -1.5473
   17CHL1   C12 1215   4.361   1.007   9.555 -0.1069  0.2740  0.3431
   17CHL1  H12A 1216   4.444   0.998   9.482 -0.4576 -3.2657  0.2296
   17CHL1  H12B 1217   4.305   1.102   9.543 -1.7916 -1.0120 -3.0383
   17CHL1   C11 1218   4.410   0.983   9.695  0.0605 -0.3163  0.1156
   17CHL1  H11A 1219   4.483   0.899   9.694 -0.4059 -0.7467  1.1971
   17CHL1  H11B 1220   4.462   1.079   9.715 -0.8241  0.2263 -0.1515
   17CHL1    C9 1221   4.315   0.954   9.807 -0.2869  0.4660 -0.2315
   17CHL1    H9 1222   4.267   1.048   9.839 -1.6188 -0.9863  2.3876
   17CHL1   C10 1223   4.382   0.910   9.944  0.1996 -0.1582  0.4726
   17CHL1   C19 1224   4.472   0.791   9.927 -0.1119  0.2190  0.8611
   17CHL1  H19A 1225   4.507   0.761  10.028 -2.4677 -0.4382  1.5511
   17CHL1  H19B 1226   4.418   0.710   9.874  1.8462 -0.0380 -0.8825
   17CHL1  H19C 1227   4.566   0.818   9.874 -1.1175  0.3244 -0.9261
   17CHL1    C1 1228   4.467   1.032  10.001  0.1544  0.2338  0.2929
   17CHL1   H1A 1229   4.549   1.051   9.928 -2.4024  1.8906 -2.3852
   17CHL1   H1B 1230   4.402   1.121   9.991  0.7014  0.6116  0.0306
   17CHL1    C2 1231   4.521   1.025  10.143  0.3179  0.5919 -0.6808
   17CHL1   H2A 1232   4.574   1.122  10.158  0.8639  0.7113 -2.9671
   17CHL1   H2B 1233   4.584   0.934  10.156 -2.1823 -1.2719 -0.9378
   17CHL1   C20 1234   4.211   0.897   9.252 -0.0765 -0.2068 -0.2132
   17CHL1   H20 1235   4.259   0.797   9.254  0.1616 -0.0906  1.5130
   17CHL1   C21 1236   4.318   1.000   9.204  0.0077 -0.4701 -0.4405
   17CHL1  H21A 1237   4.395   0.950   9.142  1.5494  1.2216  0.0183
   17CHL1  H21B 1238   4.371   1.049   9.289 -1.8390  0.5097  0.2072
   17CHL1  H21C 1239   4.268   1.079   9.144  1.1399  1.0243  0.5088
   17CHL1   C22 1240   4.101   0.885   9.147 -0.1525  0.0524  0.5919
   17CHL1  H22A 1241   4.031   0.803   9.173  0.6680 -0.4700  1.1797
   17CHL1  H22B 1242   4.051   0.984   9.136 -0.0162 -0.0499 -1.1829
   17CHL1   C23 1243   4.151   0.854   9.006  0.2749 -0.4196  0.7557
   17CHL1  H23A 1244   4.194   0.948   8.965  0.2527 -1.6308 -2.3633
   17CHL1  H23B 1245   4.227   0.773   9.007 -0.3610 -1.0437  2.5635
   17CHL1   C24 1246   4.039   0.799   8.917 -0.1776  0.0653  0.5453
   17CHL1  H24A 1247   4.003   0.703   8.960  1.1027 -0.9229 -0.5165
   17CHL1  H24B 1248   3.944   0.857   8.913 -0.6635 -0.7835 -0.4529
   17CHL1   C25 1249   4.075   0.781   8.767  1.1143 -0.2925  0.3975
   17CHL1   H25 1250   4.072   0.878   8.713  1.6124 -0.0087  0.8661
   17CHL1   C26 1251   4.213   0.723   8.741  0.0182  0.3059  0.6786
   17CHL1  H26A 1252   4.246   0.712   8.635  2.0512 -1.0910  1.3932
   17CHL1  H26B 1253   4.294   0.775   8.796 -0.1426  0.6090  0.6266
   17CHL1  H26C 1254   4.211   0.615   8.768 -0.5658 -0.8421 -3.3012
   17CHL1   C27 1255   3.968   0.697   8.693 -0.0923 -0.2800  0.4235
   17CHL1  H27A 1256   3.871   0.748   8.712 -0.2657 -0.7987  0.9620
   17CHL1  H27B 1257   3.978   0.706   8.583  0.2485  1.0777  0.5475
   17CHL1  H27C 1258   3.964   0.592   8.728  0.6770 -0.7488 -0.8182
   18CHL1    C3 1259   6.614   4.004  10.395 -0.0448 -0.2765  0.4033
   18CHL1    H3 1260   6.685   3.919  10.392 -0.5186 -0.6469 -1.3022
   18CHL1    O3 1261   6.591   4.036  10.535  0.0960 -0.1675  0.6329
   18CHL1   H3' 1262   6.581   4.131  10.527 -2.9691 -0.5366 -2.2203
   18CHL1    C4 1263   6.660   4.131  10.315  0.7483 -0.3531 -0.3532
   18CHL1   H4A 1264   6.591   4.216  10.333 -0.3483 -1.4856  1.0330
   18CHL1   H4B 1265   6.756   4.165  10.357  1.5409 -0.3904 -2.0657
   18CHL1    C5 1266   6.655   4.112  10.160  0.1548  0.4399  0.2303
   18CHL1    C6 1267   6.768   4.136  10.095  0.0292  0.2969 -0.2091
   18CHL1    H6 1268   6.853   4.184  10.146 -0.9362  1.6252  0.2181
   18CHL1    C7 1269   6.769   4.120   9.945 -0.0333  0.4548 -0.1588
   18CHL1   H7A 1270   6.844   4.184   9.893  0.4804 -2.8888 -4.0770
   18CHL1   H7B 1271   6.818   4.023   9.925  1.5432  1.1687  0.0421
   18CHL1    C8 1272   6.636   4.127   9.873  0.0967  0.1948 -0.3787
   18CHL1    H8 1273   6.597   4.230   9.886  0.6297  0.2089  1.3111
   18CHL1   C14 1274   6.655   4.087   9.727 -0.0786  0.5787  0.1077
   18CHL1   H14 1275   6.695   3.984   9.733 -1.8758 -0.0851  1.3215
   18CHL1   C15 1276   6.757   4.164   9.638 -0.2069 -0.6822  0.4614
   18CHL1  H15A 1277   6.748   4.274   9.649 -1.7734 -0.7713  0.2500
   18CHL1  H15B 1278   6.859   4.127   9.662 -0.1417 -2.0325 -1.5559
   18CHL1   C16 1279   6.722   4.126   9.488  0.1809  0.3051  0.2642
   18CHL1  H16A 1280   6.722   4.218   9.426  1.3325 -0.5976 -1.1352
   18CHL1  H16B 1281   6.801   4.058   9.450  1.4847  0.0695  3.1286
   18CHL1   C17 1282   6.584   4.047   9.505 -0.8524  0.0714  0.0357
   18CHL1   H17 1283   6.613   3.940   9.508  0.5793  0.3759 -1.3381
   18CHL1   C13 1284   6.525   4.085   9.646 -0.5884 -0.0341  0.4983
   18CHL1   C18 1285   6.466   4.228   9.638 -0.0510  0.4060  0.7393
   18CHL1  H18A 1286   6.534   4.308   9.602 -1.4900  1.2581 -0.1868
   18CHL1  H18B 1287   6.372   4.228   9.578 -0.6512  2.3424  1.5936
   18CHL1  H18C 1288   6.431   4.246   9.742  2.0027  1.5248  1.2812
   18CHL1   C12 1289   6.434   3.978   9.710 -0.8706  0.0883  0.2324
   18CHL1  H12A 1290   6.338   3.968   9.655  0.7589  0.6000 -2.9633
   18CHL1  H12B 1291   6.487   3.882   9.697  1.1972  1.1447  0.4835
   18CHL1   C11 1292   6.413   4.008   9.864  1.0455 -0.1040  0.1541
   18CHL1  H11A 1293   6.352   4.100   9.862 -0.0712 -0.7783 -2.6660
   18CHL1  H11B 1294   6.357   3.924   9.910 -0.2306  1.0507  0.7867
   18CHL1    C9 1295   6.541   4.030   9.944  0.0071  0.0785 -0.5881
   18CHL1    H9 1296   6.597   3.934   9.943  2.9015  1.5210  2.6852
   18CHL1   C10 1297   6.528   4.064  10.099  0.3846  0.5711  0.9485
   18CHL1   C19 1298   6.410   4.166  10.111 -0.1115  0.4305 -0.3439
   18CHL1  H19A 1299   6.318   4.112  10.081  0.8813 -1.8988  0.5015
   18CHL1  H19B 1300   6.399   4.212  10.211 -1.7454  1.7466 -1.1005
   18CHL1  H19C 1301   6.427   4.256  10.049 -2.6760  1.3505  0.1788
   18CHL1    C1 1302   6.491   3.931  10.183  0.7457 -0.9216  0.4414
   18CHL1   H1A 1303   6.395   3.891  10.147 -0.2864  1.6187  0.1639
   18CHL1   H1B 1304   6.562   3.850  10.157 -0.2559 -1.7099  0.1091
   18CHL1    C2 1305   6.483   3.950  10.334  0.0310 -0.5738 -0.0015
   18CHL1   H2A 1306   6.457   3.856  10.387 -0.2470 -1.0030 -0.8734
   18CHL1   H2B 1307   6.406   4.026  10.357 -0.8970 -1.0996 -1.2382
   18CHL1   C20 1308   6.498   4.062   9.364 -0.3714  0.9967 -0.5027
   18CHL1   H20 1309   6.483   4.172   9.359  0.5839  1.0771 -2.5523
   18CHL1   C21 1310   6.355   3.994   9.376 -0.3003  0.4025  0.0419
   18CHL1  H21A 1311   6.293   4.023   9.289  0.1982  0.0160 -0.4425
   18CHL1  H21B 1312   6.306   4.035   9.468  1.3464  2.2673  0.1755
   18CHL1  H21C 1313   6.358   3.884   9.369 -0.2623  0.4480 -0.6766
   18CHL1   C22 1314   6.570   4.015   9.237  0.2044 -0.2466  0.5951
   18CHL1  H22A 1315   6.669   4.064   9.230 -0.0004 -0.0862 -2.2095
   18CHL1  H22B 1316   6.576   3.904   9.239 -0.0378 -0.2506  1.5735
   18CHL1   C23 1317   6.499   4.056   9.106 -0.3160  0.0797  0.0313
   18CHL1  H23A 1318   6.423   3.978   9.085 -0.5828  0.7570 -1.7015
   18CHL1  H23B 1319   6.438   4.146   9.129 -0.4322 -0.1312  0.5594
   18CHL1   C24 1320   6.594   4.083   8.986  0.1017 -0.0580 -0.0692
   18CHL1  H24A 1321   6.684   4.139   9.020 -1.7227  2.1270  1.4551
   18CHL1  H24B 1322   6.627   3.981   8.958 -1.8278 -0.7327 -0.0126
   18CHL1   C25 1323   6.527   4.158   8.864  0.0209  0.2947 -0.2165
   18CHL1   H25 1324   6.476   4.246   8.907 -1.6399 -0.1736 -1.1514
   18CHL1   C26 1325   6.627   4.194   8.760 -0.2099 -0.8927  0.5995
   18CHL1  H26A 1326   6.580   4.262   8.685  1.1985  0.5024  0.9170
   18CHL1  H26B 1327   6.713   4.253   8.798 -0.3721  0.9636 -1.6822
   18CHL1  H26C 1328   6.673   4.110   8.704 -1.6543 -0.1473 -1.8874
   18CHL1   C27 1329   6.433   4.054   8.798 -0.6346  0.1653  0.0976
   18CHL1  H27A 1330   6.355   4.016   8.867 -1.0304 -1.1442 -1.0309
   18CHL1  H27B 1331   6.366   4.095   8.719 -0.4702  0.0494 -0.1025
   18CHL1  H27C 1332   6.489   3.967   8.759 -0.2121  0.7753 -0.6927
   19CHL1    C3 1333   6.108   0.548  10.089  0.0111 -0.2689  0.7638
   19CHL1    H3 1334   6.071   0.647  10.055 -0.2280 -0.5848  0.0947
   19CHL1    O3 1335   6.148   0.571  10.226  1.2909 -0.0313 -0.2681
   19CHL1   H3' 1336   6.121   0.496  10.281  0.9071 -0.3584 -0.8961
   19CHL1    C4 1337   6.005   0.436  10.079 -0.1573  0.0767  0.2743
   19CHL1   H4A 1338   6.049   0.343  10.120  0.1914 -0.5781 -1.4850
   19CHL1   H4B 1339   5.916   0.469  10.137 -2.2777  0.3237 -2.8153
   19CHL1    C5 1340   5.969   0.402   9.937  0.0177 -0.2024  0.0831
   19CHL1    C6 1341   5.839   0.397   9.896 -0.4776 -0.2625 -0.1125
   19CHL1    H6 1342   5.758   0.426   9.963  0.1266  1.3709 -0.0459
   19CHL1    C7 1343   5.800   0.369   9.761 -0.3620  0.3007  0.3475
   19CHL1   H7A 1344   5.714   0.299   9.766  0.4283 -0.7819 -0.6464
   19CHL1   H7B 1345   5.765   0.466   9.719 -0.4311  2.3131  4.5915
   19CHL1    C8 1346   5.913   0.293   9.678  0.3677  0.0348  0.3661
   19CHL1    H8 1347   5.936   0.192   9.719  5.3453  1.1327  0.9137
   19CHL1   C14 1348   5.862   0.288   9.532  0.3363 -0.3419  0.5726
   19CHL1   H14 1349   5.852   0.396   9.512 -2.1533 -0.7808 -0.8518
   19CHL1   C15 1350   5.723   0.229   9.498 -0.3109  0.4290 -0.1598
   19CHL1  H15A 1351   5.712   0.135   9.555 -1.0775  1.3920  1.3351
   19CHL1  H15B 1352   5.655   0.307   9.537 -0.9413  0.2913 -0.9561
   19CHL1   C16 1353   5.735   0.217   9.345 -0.1182 -0.2530 -0.2320
   19CHL1  H16A 1354   5.716   0.108   9.329 -0.8823 -0.3854  1.3474
   19CHL1  H16B 1355   5.666   0.278   9.282  1.5103  0.2437 -1.6174
   19CHL1   C17 1356   5.880   0.248   9.309 -0.7842  0.1283  0.1819
   19CHL1   H17 1357   5.896   0.355   9.284  0.7362  0.1851  1.2333
   19CHL1   C13 1358   5.961   0.227   9.435  0.6468 -0.3087 -0.1081
   19CHL1   C18 1359   5.985   0.076   9.461  0.1318  0.0799 -0.3810
   19CHL1  H18A 1360   6.011   0.062   9.569  0.0248  1.6678 -0.1255
   19CHL1  H18B 1361   5.899   0.014   9.429  0.1629 -1.0096  1.4925
   19CHL1  H18C 1362   6.074   0.043   9.403  0.3252 -0.8718  0.4269
   19CHL1   C12 1363   6.091   0.308   9.453  0.2225 -0.3538  0.8677
   19CHL1  H12A 1364   6.171   0.278   9.382 -0.9936  1.4977 -1.4487
   19CHL1  H12B 1365   6.076   0.410   9.411  0.0890 -1.4688 -1.9771
   19CHL1   C11 1366   6.146   0.305   9.596  0.3396 -0.1210 -0.2144
   19CHL1  H11A 1367   6.171   0.199   9.614  0.2142 -0.2282 -0.6554
   19CHL1  H11B 1368   6.244   0.357   9.602  0.9204 -0.9970 -1.6449
   19CHL1    C9 1369   6.043   0.367   9.694 -0.4031  0.2700 -0.0955
   19CHL1    H9 1370   6.025   0.476   9.676 -1.1577 -0.0251 -1.2925
   19CHL1   C10 1371   6.090   0.368   9.844  0.3230  0.0573  0.8194
   19CHL1   C19 1372   6.156   0.229   9.880 -0.1612  0.4608 -0.6047
   19CHL1  H19A 1373   6.186   0.240   9.987  0.1922  0.2062 -0.6771
   19CHL1  H19B 1374   6.067   0.163   9.883 -1.5270  2.1902 -1.1730
   19CHL1  H19C 1375   6.239   0.198   9.813  0.9832 -0.3956  1.1331
   19CHL1    C1 1376   6.197   0.477   9.865 -0.0677  0.5221 -0.0324
   19CHL1   H1A 1377   6.285   0.448   9.804 -0.3758  2.7904 -1.6832
   19CHL1   H1B 1378   6.161   0.573   9.822  0.3282  0.0215 -1.5421
   19CHL1    C2 1379   6.234   0.506  10.011  0.4747  0.1471  0.1163
   19CHL1   H2A 1380   6.299   0.596  10.020  0.1269  0.4501 -0.3266
   19CHL1   H2B 1381   6.279   0.422  10.068 -2.8443 -2.4872 -0.7832
   19CHL1   C20 1382   5.935   0.173   9.178  0.0713  0.0838 -1.1618
   19CHL1   H20 1383   5.916   0.065   9.192  2.4119 -0.2314  0.1340
   19CHL1   C21 1384   6.082   0.198   9.152 -0.7131  0.4461 -0.4124
   19CHL1  H21A 1385   6.144   0.137   9.221  0.3446 -0.4756 -2.1175
   19CHL1  H21B 1386   6.105   0.307   9.154 -2.4579  0.8396  0.8779
   19CHL1  H21C 1387   6.112   0.156   9.054  0.2859 -0.6407  0.3427
   19CHL1   C22 1388   5.851   0.215   9.057 -0.6657  1.0335  0.1964
   19CHL1  H22A 1389   5.744   0.192   9.072 -0.4551 -0.5524 -0.5049
   19CHL1  H22B 1390   5.858   0.324   9.034 -0.9933  1.4097  1.7354
   19CHL1   C23 1391   5.886   0.119   8.943  0.2638  0.2246  0.6453
   19CHL1  H23A 1392   5.968   0.169   8.887  0.0760  0.0086  0.1705
   19CHL1  H23B 1393   5.912   0.020   8.985 -3.0322 -0.8805  0.3998
   19CHL1   C24 1394   5.774   0.103   8.836 -0.1469  0.8895  0.2382
   19CHL1  H24A 1395   5.676   0.102   8.888 -0.2512  0.4553  0.0337
   19CHL1  H24B 1396   5.771   0.205   8.791 -0.1117  0.8743  0.2010
   19CHL1   C25 1397   5.795  -0.002   8.728  0.0104 -0.1821  0.5611
   19CHL1   H25 1398   5.768  -0.100   8.774 -0.8539 -0.1926  0.0583
   19CHL1   C26 1399   5.693   0.028   8.614 -0.0482  0.2131 -0.5870
   19CHL1  H26A 1400   5.666  -0.063   8.557 -0.9641  0.1471 -0.0521
   19CHL1  H26B 1401   5.598   0.069   8.653  0.3275  0.6183 -0.0947
   19CHL1  H26C 1402   5.744   0.096   8.541 -2.6229 -0.2767 -3.0225
   19CHL1   C27 1403   5.945   0.001   8.670 -0.1556 -0.8971 -0.1981
   19CHL1  H27A 1404   5.974   0.102   8.634 -2.3443 -0.1312  0.0187
   19CHL1  H27B 1405   6.024  -0.036   8.739  1.4593 -1.1548 -2.0690
   19CHL1  H27C 1406   5.941  -0.074   8.588 -1.8006 -1.7885  0.6535
   20CHL1    C3 1407   6.564   1.816  10.150 -0.8733 -0.4390 -0.3476
   20CHL1    H3 1408   6.500   1.733  10.114 -1.3427 -0.1831 -0.1053
   20CHL1    O3 1409   6.568   1.812  10.290 -0.3437  0.0969 -0.3668
   20CHL1   H3' 1410   6.632   1.873  10.327  0.3920 -0.0583 -1.3401
   20CHL1    C4 1411   6.709   1.794  10.096 -0.2784 -0.1721 -0.3050
   20CHL1   H4A 1412   6.763   1.884  10.132  0.0315 -0.4997  0.0557
   20CHL1   H4B 1413   6.763   1.711  10.146 -0.2661 -0.4376 -0.7588
   20CHL1    C5 1414   6.705   1.792   9.944  0.4670 -0.8213 -0.9658
   20CHL1    C6 1415   6.752   1.693   9.872  0.2259  0.8962  0.5578
   20CHL1    H6 1416   6.799   1.609   9.926 -0.6114  0.6664  0.9434
   20CHL1    C7 1417   6.760   1.693   9.716 -0.1430  0.1852 -0.4321
   20CHL1   H7A 1418   6.868   1.670   9.703  0.3825  0.7218  2.3385
   20CHL1   H7B 1419   6.698   1.610   9.679  0.3677 -0.3794 -0.0490
   20CHL1    C8 1420   6.729   1.838   9.664 -0.2861 -0.0216  0.2539
   20CHL1    H8 1421   6.815   1.907   9.676  1.6264 -2.4088  1.0358
   20CHL1   C14 1422   6.714   1.829   9.511  0.0026  0.3979 -0.6634
   20CHL1   H14 1423   6.621   1.770   9.498 -0.9840  1.4522  1.1537
   20CHL1   C15 1424   6.827   1.761   9.432 -0.5258  0.1837 -0.8197
   20CHL1  H15A 1425   6.924   1.797   9.472 -2.0694  2.2530  1.2880
   20CHL1  H15B 1426   6.827   1.651   9.448 -0.0480  0.3302  0.3117
   20CHL1   C16 1427   6.800   1.808   9.286  0.7455 -0.5166  0.2330
   20CHL1  H16A 1428   6.891   1.854   9.243 -0.7220  0.9729 -1.4332
   20CHL1  H16B 1429   6.764   1.724   9.222 -0.1332 -2.2691  2.8469
   20CHL1   C17 1430   6.690   1.917   9.290 -0.0883 -0.3352 -0.7134
   20CHL1   H17 1431   6.593   1.866   9.273 -0.4724 -1.1405  3.1105
   20CHL1   C13 1432   6.689   1.964   9.438  0.0582 -0.0267 -1.1956
   20CHL1   C18 1433   6.817   2.055   9.459  0.6178  0.0747  0.1776
   20CHL1  H18A 1434   6.835   2.079   9.566 -2.3261  0.4119  0.6569
   20CHL1  H18B 1435   6.904   1.995   9.424  0.3800  0.0623 -0.3894
   20CHL1  H18C 1436   6.807   2.156   9.415 -1.4661  0.3208  1.1044
   20CHL1   C12 1437   6.561   2.026   9.502 -0.2470 -0.1058  0.0277
   20CHL1  H12A 1438   6.533   2.125   9.460 -1.0126 -0.8893 -1.3918
   20CHL1  H12B 1439   6.478   1.955   9.483  1.2165 -1.7991 -0.2886
   20CHL1   C11 1440   6.572   2.040   9.656 -0.0944 -0.8297 -0.2756
   20CHL1  H11A 1441   6.658   2.105   9.681 -0.2687 -0.6958 -0.0269
   20CHL1  H11B 1442   6.475   2.077   9.697 -0.8441 -1.1550 -1.6920
   20CHL1    C9 1443   6.612   1.905   9.732  0.7215 -0.3079  0.3168
   20CHL1    H9 1444   6.534   1.826   9.716  1.2663 -0.2536 -3.5083
   20CHL1   C10 1445   6.637   1.919   9.888 -0.1810  0.2188  0.7439
   20CHL1   C19 1446   6.725   2.047   9.910  1.2053 -0.0394  0.8599
   20CHL1  H19A 1447   6.652   2.129   9.892 -1.0266 -1.9671  0.5402
   20CHL1  H19B 1448   6.763   2.061  10.013 -1.0740  0.2804  1.7174
   20CHL1  H19C 1449   6.804   2.049   9.832  0.0993 -2.0800 -0.4217
   20CHL1    C1 1450   6.499   1.938   9.953 -0.0839 -0.1914  0.1243
   20CHL1   H1A 1451   6.450   2.029   9.911 -1.0951 -0.4469  0.7138
   20CHL1   H1B 1452   6.430   1.857   9.920 -0.4355 -0.7119  2.0629
   20CHL1    C2 1453   6.496   1.943  10.103  0.5844  0.4628 -0.3462
   20CHL1   H2A 1454   6.391   1.939  10.138  0.6843 -1.2760 -0.1475
   20CHL1   H2B 1455   6.550   2.032  10.143 -0.9277  0.0186  3.0042
   20CHL1   C20 1456   6.699   2.012   9.173  0.0137 -0.0437  0.2777
   20CHL1   H20 1457   6.794   2.068   9.186  0.7741 -0.9879 -0.9316
   20CHL1   C21 1458   6.590   2.122   9.188  0.9104 -0.0795  0.2135
   20CHL1  H21A 1459   6.591   2.194   9.104 -1.2794 -0.9230 -0.5930
   20CHL1  H21B 1460   6.585   2.181   9.282  3.1272 -0.0850  0.4010
   20CHL1  H21C 1461   6.494   2.069   9.172  0.5760 -0.1118  2.1181
   20CHL1   C22 1462   6.709   1.944   9.033  0.4375  0.5153  0.2713
   20CHL1  H22A 1463   6.786   1.864   9.033  1.6481  1.6269 -0.0375
   20CHL1  H22B 1464   6.611   1.901   9.005  1.4918 -1.3625 -0.6977
   20CHL1   C23 1465   6.751   2.039   8.920  0.3074 -0.7112  0.1610
   20CHL1  H23A 1466   6.686   2.129   8.914  0.4718 -0.6714 -2.0446
   20CHL1  H23B 1467   6.845   2.087   8.954  0.2920 -0.8118  0.3421
   20CHL1   C24 1468   6.761   1.972   8.785 -0.4508 -0.1078  0.1404
   20CHL1  H24A 1469   6.825   1.882   8.787 -0.6031 -0.4678 -3.5978
   20CHL1  H24B 1470   6.663   1.932   8.754 -0.5479 -0.3973  0.8047
   20CHL1   C25 1471   6.825   2.057   8.677  0.7456 -0.3481  0.4373
   20CHL1   H25 1472   6.905   2.116   8.726 -0.2770  1.9986 -0.5582
   20CHL1   C26 1473   6.881   1.970   8.564  0.2896 -0.9868 -0.5643
   20CHL1  H26A 1474   6.801   1.923   8.504  0.3661 -2.7621  0.6381
   20CHL1  H26B 1475   6.939   2.043   8.504  2.8660 -0.5451  2.2037
   20CHL1  H26C 1476   6.944   1.884   8.598  0.8944  0.2093  1.5398
   20CHL1   C27 1477   6.732   2.168   8.633  0.2334  0.1913  0.8059
   20CHL1  H27A 1478   6.694   2.232   8.715 -0.8071 -1.1110  1.3759
   20CHL1  H27B 1479   6.768   2.226   8.545 -0.8530 -2.9964 -1.9667
   20CHL1  H27C 1480   6.637   2.125   8.595 -0.7907  1.7095  1.5584
   21CHL1    C3 1481   5.993   3.180  10.087 -0.0812  0.2670  0.3384
   21CHL1    H3 1482   5.999   3.069  10.091  0.1895  0.2758  0.1681
   21CHL1    O3 1483   6.010   3.223  10.221  0.3994 -0.4980 -0.0825
   21CHL1   H3' 1484   5.964   3.157  10.274  0.9363 -1.3280 -0.6311
   21CHL1    C4 1485   6.113   3.226  10.004  0.3377 -0.9320 -0.1996
   21CHL1   H4A 1486   6.130   3.335  10.018  0.3875 -0.7515 -1.5545
   21CHL1   H4B 1487   6.206   3.177  10.040 -1.4097 -2.4515  2.6101
   21CHL1    C5 1488   6.105   3.194   9.851 -0.5266 -0.2797 -0.4008
   21CHL1    C6 1489   6.202   3.132   9.781  0.1041  0.5529  0.0421
   21CHL1    H6 1490   6.276   3.085   9.848 -1.6971 -0.6352  1.2881
   21CHL1    C7 1491   6.205   3.110   9.630 -0.5225 -0.3450 -0.7636
   21CHL1   H7A 1492   6.297   3.151   9.583 -0.7675  0.0378 -0.9073
   21CHL1   H7B 1493   6.204   3.001   9.610 -1.9575 -0.6192  0.6333
   21CHL1    C8 1494   6.080   3.179   9.558  0.8047  0.0946 -0.3545
   21CHL1    H8 1495   6.117   3.284   9.558 -0.7640  0.6651  0.1407
   21CHL1   C14 1496   6.054   3.120   9.421 -0.0448 -1.1535 -0.6350
   21CHL1   H14 1497   6.026   3.014   9.437 -1.7369 -1.1639 -3.0723
   21CHL1   C15 1498   6.182   3.117   9.337 -0.1852 -0.7735  0.7393
   21CHL1  H15A 1499   6.233   3.214   9.354 -2.3297  0.7001 -0.6948
   21CHL1  H15B 1500   6.241   3.029   9.371 -0.6560 -1.6414 -0.5960
   21CHL1   C16 1501   6.128   3.102   9.194  0.5689  0.4403  0.3245
   21CHL1  H16A 1502   6.179   3.170   9.123 -1.2883  1.6966  0.1489
   21CHL1  H16B 1503   6.147   2.997   9.163 -1.0685  0.4908 -1.0123
   21CHL1   C17 1504   5.975   3.128   9.197  0.8132  0.3655 -0.8736
   21CHL1   H17 1505   5.931   3.026   9.195 -1.2054  1.1755 -0.0981
   21CHL1   C13 1506   5.949   3.200   9.345  0.0461  0.6633  0.4681
   21CHL1   C18 1507   5.986   3.352   9.335  0.1125 -0.6846  0.4828
   21CHL1  H18A 1508   6.077   3.373   9.276  0.2788 -0.3898  0.8432
   21CHL1  H18B 1509   5.900   3.404   9.287  0.2488  0.9134  1.8766
   21CHL1  H18C 1510   6.003   3.403   9.433  0.2768  1.9034 -0.8136
   21CHL1   C12 1511   5.817   3.179   9.416 -0.7700 -0.4267  0.0555
   21CHL1  H12A 1512   5.741   3.246   9.370  0.3974  2.0509  1.5246
   21CHL1  H12B 1513   5.784   3.073   9.423  0.7572 -1.0301 -1.2276
   21CHL1   C11 1514   5.829   3.225   9.563 -0.5766  0.2686 -0.1177
   21CHL1  H11A 1515   5.814   3.335   9.558 -1.6468  0.1413  0.0690
   21CHL1  H11B 1516   5.739   3.196   9.621  0.1635 -1.1929  0.3654
   21CHL1    C9 1517   5.949   3.174   9.644 -0.1300  0.4519 -0.2441
   21CHL1    H9 1518   5.941   3.064   9.658 -1.5750  0.4728 -0.7599
   21CHL1   C10 1519   5.978   3.232   9.786  0.3914  0.5386 -0.4087
   21CHL1   C19 1520   5.959   3.386   9.780 -0.6420 -0.2107 -0.9140
   21CHL1  H19A 1521   6.025   3.430   9.702 -0.2886 -1.4998 -1.3546
   21CHL1  H19B 1522   5.854   3.410   9.752 -1.7588 -0.8067  2.2934
   21CHL1  H19C 1523   5.973   3.431   9.881 -1.4227  0.1257 -0.9445
   21CHL1    C1 1524   5.861   3.176   9.874 -0.0067  0.0263  0.4172
   21CHL1   H1A 1525   5.767   3.200   9.819 -1.3422 -1.8179  1.7926
   21CHL1   H1B 1526   5.865   3.065   9.868 -0.4132  0.0259  0.0948
   21CHL1    C2 1527   5.865   3.220  10.022  0.5754  0.2114 -0.1300
   21CHL1   H2A 1528   5.785   3.163  10.075  1.4569 -1.7706 -0.8272
   21CHL1   H2B 1529   5.848   3.329  10.036 -3.4343 -0.3178  0.3497
   21CHL1   C20 1530   5.923   3.209   9.076 -0.2626 -0.3198  0.0268
   21CHL1   H20 1531   5.979   3.305   9.076 -0.9661  0.1022 -0.9729
   21CHL1   C21 1532   5.772   3.240   9.081  0.2712  0.1566  0.2448
   21CHL1  H21A 1533   5.716   3.150   9.113 -1.1578  1.1945  0.7833
   21CHL1  H21B 1534   5.737   3.301   8.995  0.6465  0.8353  0.5644
   21CHL1  H21C 1535   5.767   3.307   9.170 -0.4458 -0.6268  0.8077
   21CHL1   C22 1536   5.961   3.139   8.948  0.1248  0.5457  0.0147
   21CHL1  H22A 1537   6.068   3.111   8.935 -0.0588 -0.0822 -0.1911
   21CHL1  H22B 1538   5.901   3.048   8.928  0.6349 -0.2043  1.7575
   21CHL1   C23 1539   5.937   3.235   8.835 -0.8354  0.6558  0.4763
   21CHL1  H23A 1540   5.828   3.253   8.826 -1.1589 -1.8525 -1.7620
   21CHL1  H23B 1541   5.988   3.334   8.845 -0.5009  0.3556  1.9077
   21CHL1   C24 1542   5.991   3.184   8.699  0.0692  0.6962  0.0942
   21CHL1  H24A 1543   5.993   3.266   8.624 -2.5356  1.1290  0.3908
   21CHL1  H24B 1544   6.096   3.146   8.700 -0.6703 -1.4800  0.1222
   21CHL1   C25 1545   5.905   3.076   8.626  0.7399  0.1239  0.5692
   21CHL1   H25 1546   5.894   2.991   8.697  0.1472 -0.1660  0.1443
   21CHL1   C26 1547   5.763   3.136   8.606  0.5918 -0.1834  0.2547
   21CHL1  H26A 1548   5.695   3.095   8.528 -0.7731  3.0793 -0.4843
   21CHL1  H26B 1549   5.709   3.138   8.703  0.1511  1.0393  0.0057
   21CHL1  H26C 1550   5.777   3.244   8.584  0.7140  0.1885  2.0427
   21CHL1   C27 1551   5.978   3.024   8.500  0.5516 -0.1042 -0.0962
   21CHL1  H27A 1552   6.002   3.106   8.429  1.4393  0.7748  1.1829
   21CHL1  H27B 1553   6.075   2.980   8.529 -0.8472 -2.2044  1.7078
   21CHL1  H27C 1554   5.914   2.946   8.452 -0.2688 -1.1191  2.5152
   22CHL1    C3 1555   0.781   4.929  10.084  0.1723  0.3715 -0.1826
   22CHL1    H3 1556   0.842   5.020  10.061  1.8903 -0.2921  1.5054
   22CHL1    O3 1557   0.797   4.910  10.219 -0.1729 -0.6174 -0.2614
   22CHL1   H3' 1558   0.741   4.836  10.243  0.0416 -0.0879  2.1689
   22CHL1    C4 1559   0.633   4.959  10.045 -0.7732 -0.1781  0.1526
   22CHL1   H4A 1560   0.564   4.875  10.070 -2.8560  1.5528  0.4729
   22CHL1   H4B 1561   0.606   5.040  10.116  0.2798 -1.1793  1.7685
   22CHL1    C5 1562   0.628   4.995   9.898 -0.3279  0.4181 -0.0904
   22CHL1    C6 1563   0.579   5.112   9.862  0.3964 -0.6469 -0.1029
   22CHL1    H6 1564   0.541   5.188   9.932  2.6083  1.6816 -1.2510
   22CHL1    C7 1565   0.568   5.151   9.718 -0.3276 -0.0730 -0.2886
   22CHL1   H7A 1566   0.466   5.191   9.702  0.5844  2.2786 -0.5495
   22CHL1   H7B 1567   0.628   5.240   9.691 -1.2343  0.4445 -0.6151
   22CHL1    C8 1568   0.598   5.037   9.615  0.0415 -0.1729 -0.3228
   22CHL1    H8 1569   0.510   4.970   9.602  1.8773 -2.5773 -1.1626
   22CHL1   C14 1570   0.620   5.088   9.472  0.0506 -0.5315 -0.0976
   22CHL1   H14 1571   0.720   5.134   9.484  0.5735 -1.2728 -1.3786
   22CHL1   C15 1572   0.528   5.197   9.411 -0.6115  0.0300  0.1707
   22CHL1  H15A 1573   0.420   5.182   9.433 -0.3974 -2.0213  0.0153
   22CHL1  H15B 1574   0.554   5.297   9.451 -1.4830  0.0363  0.7274
   22CHL1   C16 1575   0.561   5.185   9.261  0.5304  0.0937  0.4547
   22CHL1  H16A 1576   0.465   5.178   9.207  1.0939  1.2252 -0.7446
   22CHL1  H16B 1577   0.622   5.268   9.220  0.5538 -1.4872 -3.0421
   22CHL1   C17 1578   0.664   5.068   9.248  0.1763 -0.3742  0.9704
   22CHL1   H17 1579   0.761   5.119   9.268 -1.5139  2.6033  2.3404
   22CHL1   C13 1580   0.640   4.976   9.367 -0.7820  0.0307  0.1026
   22CHL1   C18 1581   0.517   4.887   9.343  0.0032 -0.8923  0.6621
   22CHL1  H18A 1582   0.544   4.814   9.264 -1.2857 -1.0147  0.3155
   22CHL1  H18B 1583   0.486   4.834   9.436 -3.3035  0.5252  0.5140
   22CHL1  H18C 1584   0.428   4.938   9.300 -0.3771 -1.8795  0.2536
   22CHL1   C12 1585   0.757   4.886   9.418  0.0565  0.1571  0.0133
   22CHL1  H12A 1586   0.779   4.793   9.362 -2.1112  1.3194 -3.0521
   22CHL1  H12B 1587   0.849   4.947   9.431 -1.0536  1.6724  1.1707
   22CHL1   C11 1588   0.740   4.829   9.560  0.6703  0.5150 -0.2707
   22CHL1  H11A 1589   0.648   4.766   9.559  1.1048 -0.1155 -1.1496
   22CHL1  H11B 1590   0.829   4.774   9.596  1.3454  1.4459 -0.4608
   22CHL1    C9 1591   0.711   4.941   9.664 -0.3332 -0.6966  0.0830
   22CHL1    H9 1592   0.806   5.000   9.665 -0.6878 -0.0886 -0.6851
   22CHL1   C10 1593   0.682   4.884   9.810 -0.7413 -0.9150  0.1638
   22CHL1   C19 1594   0.587   4.764   9.812  0.1590 -0.2325 -0.6711
   22CHL1  H19A 1595   0.642   4.683   9.760  2.5002  2.1217 -2.1156
   22CHL1  H19B 1596   0.568   4.731   9.916  1.0338 -0.1324 -0.4750
   22CHL1  H19C 1597   0.491   4.793   9.763  0.6115 -0.1826 -1.5452
   22CHL1    C1 1598   0.818   4.829   9.858 -0.1377  0.4190  0.3992
   22CHL1   H1A 1599   0.845   4.736   9.803  0.1004  1.7705 -1.9051
   22CHL1   H1B 1600   0.895   4.897   9.816 -1.6493  0.6275 -2.2323
   22CHL1    C2 1601   0.835   4.815  10.010 -0.1990 -0.3656  0.2115
   22CHL1   H2A 1602   0.943   4.794  10.023 -0.2680  0.2051  1.9675
   22CHL1   H2B 1603   0.774   4.725  10.031 -0.9365 -0.3405 -1.6690
   22CHL1   C20 1604   0.668   5.004   9.109 -0.1810  0.2160  0.6157
   22CHL1   H20 1605   0.568   4.957   9.098  0.7506 -1.7390  0.2062
   22CHL1   C21 1606   0.781   4.897   9.086  0.1342 -0.2836  0.1367
   22CHL1  H21A 1607   0.840   4.925   8.996  0.0908 -1.2179 -0.1944
   22CHL1  H21B 1608   0.737   4.796   9.075 -1.8154  0.1414  2.9759
   22CHL1  H21C 1609   0.843   4.895   9.178 -0.7148 -0.0236  0.7235
   22CHL1   C22 1610   0.679   5.124   9.003 -0.0842  0.3508  0.9035
   22CHL1  H22A 1611   0.581   5.174   9.015 -1.0732 -0.0792 -3.5878
   22CHL1  H22B 1612   0.762   5.184   9.047  0.2288 -0.0617  0.8825
   22CHL1   C23 1613   0.682   5.093   8.854 -0.3839  0.1046  0.0522
   22CHL1  H23A 1614   0.688   5.190   8.801 -0.4283 -0.6125 -1.3351
   22CHL1  H23B 1615   0.779   5.045   8.826 -0.8615 -0.6778 -0.3181
   22CHL1   C24 1616   0.562   5.010   8.808 -0.3781 -0.3723  0.3026
   22CHL1  H24A 1617   0.573   4.955   8.713 -2.3113  0.0409 -0.1969
   22CHL1  H24B 1618   0.565   4.934   8.889  1.9876  2.1759  2.8787
   22CHL1   C25 1619   0.429   5.090   8.804 -0.0439  0.0723 -0.0745
   22CHL1   H25 1620   0.387   5.108   8.906  2.6599 -2.5727  1.6851
   22CHL1   C26 1621   0.436   5.219   8.731 -0.4410  0.1293 -0.6274
   22CHL1  H26A 1622   0.467   5.207   8.624  0.2900 -0.9038 -0.3124
   22CHL1  H26B 1623   0.334   5.262   8.729 -0.5043  0.0185  0.2930
   22CHL1  H26C 1624   0.516   5.282   8.776  0.6074 -2.7357  1.8381
   22CHL1   C27 1625   0.320   5.005   8.735 -0.8520 -0.5197  0.9470
   22CHL1  H27A 1626   0.297   4.917   8.798  2.5015 -1.6665  0.7796
   22CHL1  H27B 1627   0.225   5.062   8.732 -1.1777 -1.0983  0.1788
   22CHL1  H27C 1628   0.350   4.981   8.631 -0.1535 -0.5166  1.1404
   23CHL1    C3 1629   3.931   5.099   9.932  0.4327  0.3952 -0.2462
   23CHL1    H3 1630   3.836   5.055   9.896  1.0756 -1.5019  0.2623
   23CHL1    O3 1631   3.919   5.133  10.069 -0.4443 -0.0556 -0.1435
   23CHL1   H3' 1632   4.007   5.159  10.095 -0.5753 -0.0646  0.3366
   23CHL1    C4 1633   4.038   4.993   9.902 -0.4486 -0.4941  0.7677
   23CHL1   H4A 1634   4.124   5.035   9.957 -0.1778  0.8858 -0.6352
   23CHL1   H4B 1635   4.006   4.898   9.951  1.5027 -2.4199 -1.4435
   23CHL1    C5 1636   4.063   4.977   9.756  0.0835  0.2696 -0.1585
   23CHL1    C6 1637   4.072   4.854   9.706 -0.6472  0.1142  0.1302
   23CHL1    H6 1638   4.049   4.764   9.765  0.0828 -0.6275 -0.6882
   23CHL1    C7 1639   4.104   4.814   9.571 -0.9173 -0.1258  0.2701
   23CHL1   H7A 1640   4.171   4.725   9.567  1.0099  1.2492  0.3621
   23CHL1   H7B 1641   4.014   4.777   9.517 -0.3073 -1.2625 -0.0093
   23CHL1    C8 1642   4.177   4.931   9.496  0.6363  0.1703  0.5849
   23CHL1    H8 1643   4.280   4.942   9.536  0.9914  0.9788 -0.5169
   23CHL1   C14 1644   4.187   4.909   9.342  0.4751  0.5366 -0.2682
   23CHL1   H14 1645   4.084   4.917   9.300  1.1121  1.7694 -1.6988
   23CHL1   C15 1646   4.254   4.777   9.286 -0.0084 -0.2050 -0.8643
   23CHL1  H15A 1647   4.350   4.772   9.342  0.9375  0.6360 -2.3118
   23CHL1  H15B 1648   4.194   4.685   9.297 -0.9116  0.6192  1.9548
   23CHL1   C16 1649   4.278   4.816   9.140 -0.5637  0.5717  0.2668
   23CHL1  H16A 1650   4.387   4.793   9.137 -0.1327  2.5007 -1.2417
   23CHL1  H16B 1651   4.224   4.753   9.066 -1.4012  2.4957 -0.8368
   23CHL1   C17 1652   4.255   4.966   9.127  0.0379 -0.0884 -0.1023
   23CHL1   H17 1653   4.153   4.980   9.086  1.2467  2.8128 -2.4434
   23CHL1   C13 1654   4.263   5.025   9.270  0.1000  0.3203  0.2151
   23CHL1   C18 1655   4.411   5.037   9.325 -0.1811 -0.6173  0.3047
   23CHL1  H18A 1656   4.478   5.097   9.260  0.9697 -1.0683  1.0274
   23CHL1  H18B 1657   4.407   5.094   9.420  0.0867  0.0169 -0.0543
   23CHL1  H18C 1658   4.461   4.939   9.340 -2.1723 -2.1605 -2.3536
   23CHL1   C12 1659   4.182   5.154   9.286 -0.4990 -0.4506 -0.1101
   23CHL1  H12A 1660   4.250   5.236   9.256 -1.0648 -0.6001 -1.8876
   23CHL1  H12B 1661   4.091   5.150   9.222 -0.1325 -0.0946 -0.6586
   23CHL1   C11 1662   4.160   5.184   9.435  0.1289 -0.2052  0.8403
   23CHL1  H11A 1663   4.252   5.218   9.487  0.3024  0.0274  0.3824
   23CHL1  H11B 1664   4.095   5.274   9.442  0.8131  0.2441  1.6401
   23CHL1    C9 1665   4.105   5.073   9.523 -0.0428  0.1382  0.0202
   23CHL1    H9 1666   4.000   5.065   9.488 -1.1538  0.3817  2.9892
   23CHL1   C10 1667   4.094   5.098   9.674 -0.2010 -0.3905 -0.5380
   23CHL1   C19 1668   4.227   5.157   9.731  0.0944  0.2805 -1.0080
   23CHL1  H19A 1669   4.323   5.119   9.689  0.4246 -1.1062  0.8984
   23CHL1  H19B 1670   4.234   5.265   9.708 -3.0841  0.3262 -2.3241
   23CHL1  H19C 1671   4.229   5.153   9.842  0.9317  4.1520 -0.7343
   23CHL1    C1 1672   3.982   5.206   9.710  0.7091  0.0380 -0.2280
   23CHL1   H1A 1673   4.022   5.303   9.675 -2.3563  1.9213  1.0921
   23CHL1   H1B 1674   3.889   5.177   9.655  1.1555  1.1534 -1.6388
   23CHL1    C2 1675   3.953   5.222   9.855  0.3498 -0.8618  0.1748
   23CHL1   H2A 1676   3.863   5.283   9.877  0.6959 -0.5992  0.8916
   23CHL1   H2B 1677   4.034   5.281   9.902  0.3981  0.2216 -1.1996
   23CHL1   C20 1678   4.351   5.018   9.019  0.2746 -0.2916  0.0364
   23CHL1   H20 1679   4.458   5.000   9.043  0.4346 -0.7885 -0.9831
   23CHL1   C21 1680   4.316   5.166   8.991  0.0087  0.2142  0.1902
   23CHL1  H21A 1681   4.215   5.181   8.948  0.3000  0.8495 -0.2823
   23CHL1  H21B 1682   4.377   5.209   8.909 -1.0053  3.0813  0.8341
   23CHL1  H21C 1683   4.346   5.237   9.070  0.4937  1.0885 -0.7556
   23CHL1   C22 1684   4.334   4.947   8.884 -0.4858  0.0792 -0.4271
   23CHL1  H22A 1685   4.352   4.838   8.902 -1.0066  0.1342  0.4780
   23CHL1  H22B 1686   4.229   4.971   8.857 -0.1287  0.0900 -1.8876
   23CHL1   C23 1687   4.440   4.998   8.779  1.1148  0.3194 -0.1023
   23CHL1  H23A 1688   4.406   5.097   8.742  2.4783  1.1837  0.8158
   23CHL1  H23B 1689   4.533   5.011   8.839 -0.0313  0.7523  1.6321
   23CHL1   C24 1690   4.468   4.906   8.660 -0.0715  0.3122  0.3747
   23CHL1  H24A 1691   4.491   4.798   8.671  3.0618  0.5974 -2.0425
   23CHL1  H24B 1692   4.368   4.906   8.613 -0.5549 -1.3538  1.3282
   23CHL1   C25 1693   4.564   4.959   8.557  0.3609  0.0913 -0.0334
   23CHL1   H25 1694   4.542   5.063   8.527  1.2074  1.4832  3.6272
   23CHL1   C26 1695   4.704   4.998   8.623 -0.0105  0.7003  0.3022
   23CHL1  H26A 1696   4.685   5.073   8.703  1.8206 -0.1997  1.6300
   23CHL1  H26B 1697   4.740   4.908   8.677  0.7483  1.3866  0.9771
   23CHL1  H26C 1698   4.770   5.049   8.550  0.9304  0.7289  1.1501
   23CHL1   C27 1699   4.577   4.860   8.437  0.5678 -0.4772  0.0109
   23CHL1  H27A 1700   4.479   4.858   8.386  0.0096  0.4254  0.9967
   23CHL1  H27B 1701   4.656   4.893   8.366  2.6712  1.1107  2.8363
   23CHL1  H27C 1702   4.599   4.759   8.478  2.5115 -0.1502 -0.1059
   24CHL1    C3 1703   5.096   1.758  10.034 -0.1320 -0.2942  0.2019
   24CHL1    H3 1704   5.090   1.866  10.007  3.2336 -0.1943 -0.6067
   24CHL1    O3 1705   5.055   1.731  10.166  0.1649  0.0667  0.1211
   24CHL1   H3' 1706   5.054   1.635  10.175  1.9702  0.0503  0.5024
   24CHL1    C4 1707   4.996   1.687   9.943  0.2416 -0.0125 -0.2538
   24CHL1   H4A 1708   5.001   1.579   9.966 -1.5795  0.2118  1.4698
   24CHL1   H4B 1709   4.898   1.727   9.975  1.0372  1.2185  0.7790
   24CHL1    C5 1710   5.030   1.705   9.797  0.7746 -0.2549  0.0569
   24CHL1    C6 1711   4.935   1.763   9.724  1.1575 -0.4249  1.2774
   24CHL1    H6 1712   4.842   1.801   9.769  0.3362 -1.2259  0.3126
   24CHL1    C7 1713   4.957   1.781   9.577  0.4258 -0.0216 -0.1676
   24CHL1   H7A 1714   4.861   1.764   9.523  0.6227  0.0829 -0.5564
   24CHL1   H7B 1715   4.988   1.885   9.554  1.4779 -0.2653  0.0680
   24CHL1    C8 1716   5.072   1.688   9.518 -0.2381  0.1308 -0.5571
   24CHL1    H8 1717   5.031   1.585   9.519  0.6542 -0.2271 -0.4141
   24CHL1   C14 1718   5.114   1.720   9.376  0.2167  0.1367  0.0019
   24CHL1   H14 1719   5.147   1.826   9.370  0.2356  0.3813  2.9262
   24CHL1   C15 1720   4.992   1.714   9.282 -0.3091  0.7307 -0.3329
   24CHL1  H15A 1721   4.941   1.618   9.303 -0.7107  0.8613 -0.7069
   24CHL1  H15B 1722   4.919   1.798   9.284 -0.3779  0.6660 -0.1136
   24CHL1   C16 1723   5.070   1.706   9.147  0.7190  0.4716 -0.0955
   24CHL1  H16A 1724   5.042   1.610   9.097 -1.0476  1.2916 -0.7878
   24CHL1  H16B 1725   5.038   1.791   9.082 -0.8487  0.6660  0.8616
   24CHL1   C17 1726   5.223   1.692   9.173 -0.4474 -0.1560 -0.4946
   24CHL1   H17 1727   5.272   1.791   9.186  0.0533 -0.0172 -2.9060
   24CHL1   C13 1728   5.231   1.630   9.319  0.3731  0.8959  0.3330
   24CHL1   C18 1729   5.199   1.479   9.318  0.0917 -0.1681 -0.6451
   24CHL1  H18A 1730   5.154   1.456   9.417  1.1102  0.0592 -0.1199
   24CHL1  H18B 1731   5.123   1.455   9.240  1.5792 -0.5962 -2.0315
   24CHL1  H18C 1732   5.289   1.414   9.312  0.4608  0.1873  0.7983
   24CHL1   C12 1733   5.353   1.677   9.408  0.4699  0.0527  0.2860
   24CHL1  H12A 1734   5.441   1.619   9.374 -1.1558 -2.1142 -0.4091
   24CHL1  H12B 1735   5.381   1.785   9.402 -0.0495  0.3148  1.9527
   24CHL1   C11 1736   5.326   1.639   9.553  0.1601  0.1654  0.1185
   24CHL1  H11A 1737   5.310   1.529   9.558 -0.1659  0.2745  2.6937
   24CHL1  H11B 1738   5.413   1.664   9.617  1.0208  1.3539 -1.4335
   24CHL1    C9 1739   5.195   1.695   9.613  0.3604  0.1450 -0.1254
   24CHL1    H9 1740   5.220   1.804   9.618  1.3192 -0.0837  0.1996
   24CHL1   C10 1741   5.164   1.654   9.760 -0.4081 -0.4392  0.1395
   24CHL1   C19 1742   5.159   1.501   9.768 -0.6693  0.2452  0.3761
   24CHL1  H19A 1743   5.129   1.464   9.869 -2.0289 -0.6656 -0.3344
   24CHL1  H19B 1744   5.086   1.452   9.701 -2.4888 -1.3453  3.2984
   24CHL1  H19C 1745   5.257   1.461   9.735 -0.5221  0.2185  0.8348
   24CHL1    C1 1746   5.268   1.705   9.856 -0.9643  0.2224  0.0270
   24CHL1   H1A 1747   5.361   1.648   9.835 -1.5718 -1.7827  2.3548
   24CHL1   H1B 1748   5.295   1.810   9.832  2.2445 -0.2815  0.9579
   24CHL1    C2 1749   5.237   1.696  10.004  0.7752 -0.1961 -0.4641
   24CHL1   H2A 1750   5.322   1.742  10.059  2.4561 -2.0972 -1.3224
   24CHL1   H2B 1751   5.217   1.594  10.041  0.9909  0.8253  2.7721
   24CHL1   C20 1752   5.294   1.615   9.056  0.1227  0.6464 -0.4638
   24CHL1   H20 1753   5.246   1.515   9.050  3.4739 -1.0488 -1.3710
   24CHL1   C21 1754   5.443   1.611   9.081 -1.2659  0.0348 -0.5114
   24CHL1  H21A 1755   5.485   1.598   8.978  2.9034 -0.5100  1.0718
   24CHL1  H21B 1756   5.490   1.527   9.137 -0.4407 -1.0860 -2.7294
   24CHL1  H21C 1757   5.482   1.708   9.116 -0.5680 -0.1278 -0.8186
   24CHL1   C22 1758   5.260   1.675   8.921  0.2061  0.3248  0.3263
   24CHL1  H22A 1759   5.293   1.606   8.840 -0.1549  1.1685 -0.5578
   24CHL1  H22B 1760   5.155   1.689   8.889  0.2080 -0.4340 -0.0304
   24CHL1   C23 1761   5.336   1.811   8.889  0.7824  0.0764 -0.0423
   24CHL1  H23A 1762   5.337   1.852   8.992  0.4802 -0.4102  0.1571
   24CHL1  H23B 1763   5.441   1.800   8.854  1.0901  0.0739  0.8555
   24CHL1   C24 1764   5.256   1.910   8.794  0.7513  0.9044  0.0034
   24CHL1  H24A 1765   5.200   1.846   8.723  1.3782  1.0919 -0.6721
   24CHL1  H24B 1766   5.191   1.964   8.866 -0.9147  0.7888 -1.3470
   24CHL1   C25 1767   5.347   2.005   8.716  0.1014  0.3138  0.2200
   24CHL1   H25 1768   5.427   2.027   8.790  2.3352 -0.4005 -1.8347
   24CHL1   C26 1769   5.405   1.927   8.593 -0.1535 -0.4769 -0.9235
   24CHL1  H26A 1770   5.317   1.895   8.533  1.0294 -2.5271 -1.6547
   24CHL1  H26B 1771   5.475   1.989   8.534  1.3657 -0.4787  0.7811
   24CHL1  H26C 1772   5.446   1.829   8.624 -0.5138 -0.0322  1.1188
   24CHL1   C27 1773   5.264   2.121   8.677 -0.5181 -0.2314 -0.0726
   24CHL1  H27A 1774   5.337   2.184   8.623 -1.7683  1.0869 -0.2950
   24CHL1  H27B 1775   5.185   2.094   8.604  0.0824 -2.2270 -0.0302
   24CHL1  H27C 1776   5.219   2.186   8.756  2.1244  1.8003 -0.1283
   25CHL1    C3 1777   5.512   2.321  10.265 -0.3345 -0.3425 -0.5941
   25CHL1    H3 1778   5.415   2.285  10.223 -0.4562 -1.3940  0.5391
   25CHL1    O3 1779   5.501   2.332  10.405 -0.3397  0.3164  0.2846
   25CHL1   H3' 1780   5.450   2.413  10.407 -0.8243  0.0906 -1.4825
   25CHL1    C4 1781   5.615   2.214  10.223 -0.3185 -0.0272  0.4380
   25CHL1   H4A 1782   5.712   2.264  10.247  0.3867 -1.3775  0.5150
   25CHL1   H4B 1783   5.611   2.121  10.284  0.6014 -0.1708  0.2996
   25CHL1    C5 1784   5.593   2.180  10.077 -0.5303 -0.3174 -0.5233
   25CHL1    C6 1785   5.544   2.055  10.042 -0.2575  0.5263  0.1741
   25CHL1    H6 1786   5.522   1.978  10.117 -0.0735  0.1348 -0.1674
   25CHL1    C7 1787   5.544   2.020   9.898 -0.7062 -0.0946 -0.2910
   25CHL1   H7A 1788   5.605   1.927   9.904  0.7756  0.7078 -1.8379
   25CHL1   H7B 1789   5.447   1.985   9.858  0.3304 -3.1466 -0.3496
   25CHL1    C8 1790   5.633   2.114   9.808 -0.4685 -0.3321 -0.1354
   25CHL1    H8 1791   5.738   2.086   9.832 -0.7930 -0.1113  1.6388
   25CHL1   C14 1792   5.611   2.083   9.662 -0.5928  0.8070 -0.1519
   25CHL1   H14 1793   5.502   2.099   9.648 -0.9056 -0.2087  0.9103
   25CHL1   C15 1794   5.646   1.941   9.618  0.3343 -0.0471  0.5100
   25CHL1  H15A 1795   5.737   1.905   9.671  0.3097 -0.1143  0.5065
   25CHL1  H15B 1796   5.566   1.866   9.639  0.0046  0.7089  2.1041
   25CHL1   C16 1797   5.663   1.964   9.471  0.1051  0.4324 -0.3358
   25CHL1  H16A 1798   5.766   1.937   9.439  1.0852  2.5066  0.9221
   25CHL1  H16B 1799   5.597   1.903   9.406 -1.3210  0.3281  1.1434
   25CHL1   C17 1800   5.639   2.114   9.432 -0.0557  0.3258 -0.6038
   25CHL1   H17 1801   5.534   2.126   9.397  0.0035 -0.0902 -0.9244
   25CHL1   C13 1802   5.672   2.188   9.564  0.0156 -0.0693 -0.3029
   25CHL1   C18 1803   5.823   2.198   9.592 -0.2273 -0.2600  0.6797
   25CHL1  H18A 1804   5.849   2.232   9.694 -0.0269  2.8138 -0.2843
   25CHL1  H18B 1805   5.873   2.101   9.572  0.8574  0.9200 -3.3172
   25CHL1  H18C 1806   5.865   2.277   9.526 -0.9955 -1.4722 -1.3439
   25CHL1   C12 1807   5.605   2.321   9.592  0.4774  0.7238 -0.0145
   25CHL1  H12A 1808   5.649   2.406   9.536  0.6794  1.5037  1.2855
   25CHL1  H12B 1809   5.498   2.312   9.565  0.4943 -0.4907  0.2771
   25CHL1   C11 1810   5.634   2.369   9.740  0.5600 -0.1800 -0.5766
   25CHL1  H11A 1811   5.743   2.389   9.748  0.5047 -0.0860  0.0177
   25CHL1  H11B 1812   5.578   2.464   9.752  1.1330  0.2251 -1.0480
   25CHL1    C9 1813   5.594   2.260   9.839 -0.0425 -0.6019  0.3002
   25CHL1    H9 1814   5.483   2.264   9.835 -0.0633 -0.2502  1.0599
   25CHL1   C10 1815   5.626   2.297   9.989 -0.5708 -0.0346 -0.5237
   25CHL1   C19 1816   5.779   2.319   9.994  0.1043  0.0481 -0.6317
   25CHL1  H19A 1817   5.811   2.323  10.100  0.8006 -1.1010 -0.7842
   25CHL1  H19B 1818   5.834   2.233   9.951 -0.8307 -0.8841 -0.0135
   25CHL1  H19C 1819   5.818   2.404   9.934 -2.2815 -0.7358 -3.5136
   25CHL1    C1 1820   5.544   2.416  10.038  0.3511 -0.1684  0.1921
   25CHL1   H1A 1821   5.578   2.509   9.987  0.1373 -0.8113 -1.1786
   25CHL1   H1B 1822   5.437   2.400  10.010 -0.2298 -1.2403  2.7428
   25CHL1    C2 1823   5.550   2.449  10.189 -0.0984  0.0970  0.2769
   25CHL1   H2A 1824   5.481   2.533  10.213  2.0500  1.8497  0.6248
   25CHL1   H2B 1825   5.656   2.466  10.218 -0.1969 -1.2636  1.5301
   25CHL1   C20 1826   5.729   2.145   9.311 -0.2314 -0.0003  0.2581
   25CHL1   H20 1827   5.834   2.129   9.342 -0.6127 -1.1276  1.0691
   25CHL1   C21 1828   5.705   2.296   9.277  0.2066  0.6481  0.7837
   25CHL1  H21A 1829   5.766   2.319   9.187 -0.3458 -0.8063 -0.0104
   25CHL1  H21B 1830   5.746   2.360   9.358  0.5744 -1.2561  2.1679
   25CHL1  H21C 1831   5.599   2.322   9.256  0.4127  1.4720  0.7455
   25CHL1   C22 1832   5.703   2.045   9.191  0.3260  0.5243 -0.2363
   25CHL1  H22A 1833   5.708   1.942   9.233 -1.4457 -0.5432 -2.4115
   25CHL1  H22B 1834   5.603   2.054   9.144  0.3617 -0.3377 -0.4961
   25CHL1   C23 1835   5.806   2.062   9.083  0.0427 -0.4461  1.4413
   25CHL1  H23A 1836   5.785   2.161   9.038  2.4053  0.0093  1.2172
   25CHL1  H23B 1837   5.910   2.054   9.122  0.8853 -4.0444 -1.0798
   25CHL1   C24 1838   5.795   1.950   8.981  0.3084 -0.9302  0.2563
   25CHL1  H24A 1839   5.824   1.851   9.024  1.8019 -0.1938  1.0299
   25CHL1  H24B 1840   5.693   1.947   8.937  0.9023 -2.5672 -1.1427
   25CHL1   C25 1841   5.892   1.974   8.866  0.2061  0.1863  0.8054
   25CHL1   H25 1842   5.987   2.023   8.895  1.1635  0.3234 -2.1920
   25CHL1   C26 1843   5.917   1.836   8.798 -0.6113  0.1336 -0.3565
   25CHL1  H26A 1844   5.998   1.856   8.725  1.3032 -0.3712  1.5251
   25CHL1  H26B 1845   5.943   1.758   8.872  0.9557  0.2994 -0.7043
   25CHL1  H26C 1846   5.823   1.802   8.749  0.3944 -0.6268 -1.8489
   25CHL1   C27 1847   5.832   2.068   8.760  0.0581 -0.4044 -0.3544
   25CHL1  H27A 1848   5.899   2.093   8.676  0.5489 -1.5045 -0.3129
   25CHL1  H27B 1849   5.739   2.024   8.719 -0.8006  0.8289  0.2132
   25CHL1  H27C 1850   5.803   2.162   8.812  1.7174 -0.6386  1.0982
   26CHL1    C3 1851   1.309   5.053  10.059  0.4118 -0.1089  0.0592
   26CHL1    H3 1852   1.277   4.948  10.043  0.5951 -0.2226  0.4194
   26CHL1    O3 1853   1.297   5.061  10.207  0.4758 -0.0107 -0.1413
   26CHL1   H3' 1854   1.216   5.011  10.219  1.8556 -2.2687  0.2588
   26CHL1    C4 1855   1.452   5.094  10.011  0.8839 -0.1491  0.2647
   26CHL1   H4A 1856   1.492   5.188  10.057  0.8544  1.2569 -2.3559
   26CHL1   H4B 1857   1.522   5.014  10.043 -0.4791 -1.8843 -0.9345
   26CHL1    C5 1858   1.461   5.120   9.863  0.2264 -0.2256  0.6088
   26CHL1    C6 1859   1.559   5.060   9.799 -0.2975 -0.4401 -0.6081
   26CHL1    H6 1860   1.638   5.010   9.858  0.8755  1.7757 -0.2019
   26CHL1    C7 1861   1.576   5.069   9.650 -0.2954  0.3494 -0.2838
   26CHL1   H7A 1862   1.680   5.091   9.615 -0.3633  0.7786 -0.2191
   26CHL1   H7B 1863   1.549   4.965   9.620 -1.3275  0.9022 -1.3667
   26CHL1    C8 1864   1.484   5.169   9.575  0.1535  0.2643 -0.5041
   26CHL1    H8 1865   1.526   5.270   9.592 -1.9112  1.3918 -1.6665
   26CHL1   C14 1866   1.479   5.133   9.428 -0.2757 -0.2583  0.2668
   26CHL1   H14 1867   1.442   5.029   9.419 -2.7896  0.5655  0.3070
   26CHL1   C15 1868   1.613   5.120   9.356  0.4038  0.6260 -0.7804
   26CHL1  H15A 1869   1.679   5.197   9.401  0.8447 -0.6073  0.7784
   26CHL1  H15B 1870   1.670   5.025   9.367 -1.1149 -0.1147  1.3952
   26CHL1   C16 1871   1.579   5.125   9.209 -0.5678 -0.0446 -0.1072
   26CHL1  H16A 1872   1.647   5.200   9.162 -0.5931  1.4493  2.0986
   26CHL1  H16B 1873   1.608   5.027   9.166 -0.0892 -0.4684  1.1455
   26CHL1   C17 1874   1.428   5.153   9.204  0.7164  0.4024  0.2035
   26CHL1   H17 1875   1.388   5.049   9.203  1.0498  0.2049 -3.0346
   26CHL1   C13 1876   1.387   5.211   9.340 -0.9885 -0.0048 -0.7760
   26CHL1   C18 1877   1.430   5.359   9.342 -0.2227  0.9177  0.0453
   26CHL1  H18A 1878   1.364   5.422   9.278 -2.0326 -1.9152 -1.0680
   26CHL1  H18B 1879   1.435   5.408   9.442  0.7613  1.6474 -0.3458
   26CHL1  H18C 1880   1.533   5.369   9.300 -0.3186 -3.2055 -1.6576
   26CHL1   C12 1881   1.245   5.205   9.401  0.0719  0.2496 -0.3586
   26CHL1  H12A 1882   1.184   5.279   9.345  1.9493 -0.5264 -3.6944
   26CHL1  H12B 1883   1.194   5.111   9.371 -1.9072  1.2600 -0.3556
   26CHL1   C11 1884   1.234   5.241   9.548  0.5604  0.2567  0.0891
   26CHL1  H11A 1885   1.236   5.350   9.565  1.3920  0.6749 -2.3539
   26CHL1  H11B 1886   1.132   5.221   9.588  0.4279  0.5559 -0.1044
   26CHL1    C9 1887   1.341   5.161   9.635  0.3782 -0.3946 -0.1577
   26CHL1    H9 1888   1.308   5.056   9.618  1.0491 -0.4142 -1.4967
   26CHL1   C10 1889   1.345   5.186   9.786 -0.2115  0.2474  0.2127
   26CHL1   C19 1890   1.359   5.336   9.804  0.1458 -0.2105  0.4037
   26CHL1  H19A 1891   1.438   5.380   9.739  0.8117 -0.5276  0.9914
   26CHL1  H19B 1892   1.262   5.377   9.769  0.5367  0.0819 -0.3613
   26CHL1  H19C 1893   1.367   5.362   9.911 -1.9345  1.4919  0.2062
   26CHL1    C1 1894   1.208   5.134   9.848  0.3588 -0.8342  0.0063
   26CHL1   H1A 1895   1.130   5.194   9.795  1.6968 -0.4214 -1.5977
   26CHL1   H1B 1896   1.196   5.027   9.820 -1.2598 -1.3899  2.5231
   26CHL1    C2 1897   1.198   5.139  10.001  0.1643  0.8465  0.2234
   26CHL1   H2A 1898   1.103   5.088  10.029  0.5713  1.0648  2.1041
   26CHL1   H2B 1899   1.214   5.239  10.047  1.6949 -0.3535  2.4521
   26CHL1   C20 1900   1.384   5.214   9.071  0.3763 -0.1732 -0.4840
   26CHL1   H20 1901   1.410   5.322   9.065 -1.3550  0.2129 -1.7995
   26CHL1   C21 1902   1.231   5.208   9.069 -0.1945 -0.2845  0.3672
   26CHL1  H21A 1903   1.204   5.220   8.963  2.7678  0.6961 -0.3793
   26CHL1  H21B 1904   1.182   5.290   9.125 -0.4991 -0.5288  0.4641
   26CHL1  H21C 1905   1.201   5.106   9.103  1.0553 -0.4429  1.0938
   26CHL1   C22 1906   1.449   5.141   8.950 -1.1117  0.3853  0.1214
   26CHL1  H22A 1907   1.560   5.144   8.956 -0.9234  2.8596 -2.4443
   26CHL1  H22B 1908   1.423   5.033   8.943 -1.0837  0.3035  1.1147
   26CHL1   C23 1909   1.419   5.208   8.809  0.5549 -0.0170 -0.5650
   26CHL1  H23A 1910   1.320   5.257   8.804  1.2953  1.5880 -0.2685
   26CHL1  H23B 1911   1.491   5.289   8.784 -0.8713  1.0090 -1.4560
   26CHL1   C24 1912   1.428   5.116   8.691 -0.2222  0.6791 -0.6685
   26CHL1  H24A 1913   1.533   5.081   8.678 -1.2813 -3.5883  0.7443
   26CHL1  H24B 1914   1.378   5.022   8.723  0.3569 -0.5839 -3.1831
   26CHL1   C25 1915   1.367   5.163   8.554 -1.1228 -0.0669 -0.5478
   26CHL1   H25 1916   1.270   5.208   8.581  0.1385  1.2077  2.2784
   26CHL1   C26 1917   1.445   5.281   8.493 -0.2445 -0.2920 -0.6765
   26CHL1  H26A 1918   1.379   5.349   8.433 -1.3386 -1.1538 -0.4729
   26CHL1  H26B 1919   1.480   5.342   8.579  1.0069 -0.8217 -0.7930
   26CHL1  H26C 1920   1.529   5.238   8.435  0.5306  1.1638 -0.6838
   26CHL1   C27 1921   1.354   5.050   8.454 -0.6110 -0.5869  0.0864
   26CHL1  H27A 1922   1.307   5.081   8.358  2.4894 -0.0246 -1.3828
   26CHL1  H27B 1923   1.449   5.006   8.416 -1.4752 -2.3184 -0.1926
   26CHL1  H27C 1924   1.301   4.963   8.498 -1.2974  0.2460  0.9382
   27CHL1    C3 1925   5.522   2.986  10.350  0.2584 -0.0701 -0.4263
   27CHL1    H3 1926   5.606   3.057  10.334  2.6737 -2.5411  0.5844
   27CHL1    O3 1927   5.523   2.980  10.486 -0.1306  0.0581 -0.0274
   27CHL1   H3' 1928   5.617   2.967  10.500 -0.1207  0.3502  0.1755
   27CHL1    C4 1929   5.382   3.027  10.299 -0.1069  0.4332 -0.3224
   27CHL1   H4A 1930   5.303   2.958  10.334  1.5664 -1.4234 -0.0220
   27CHL1   H4B 1931   5.352   3.124  10.344  0.2366  0.3064  0.1949
   27CHL1    C5 1932   5.370   3.014  10.144  0.2501 -0.3846 -0.8168
   27CHL1    C6 1933   5.328   3.124  10.071  0.0132  0.0129 -0.3789
   27CHL1    H6 1934   5.302   3.216  10.126  2.2258  2.3939 -3.0410
   27CHL1    C7 1935   5.322   3.129   9.920  0.1715  0.2902 -0.3667
   27CHL1   H7A 1936   5.228   3.171   9.876  0.3970  1.2257  0.0071
   27CHL1   H7B 1937   5.395   3.197   9.871  0.5195 -0.7910 -1.3823
   27CHL1    C8 1938   5.343   2.993   9.856 -0.2123 -0.3306  0.4511
   27CHL1    H8 1939   5.241   2.949   9.865 -0.7234  0.8933  0.8246
   27CHL1   C14 1940   5.370   3.000   9.707 -0.6211 -0.3555  0.0589
   27CHL1   H14 1941   5.466   3.054   9.694 -0.2066 -1.1541 -0.2470
   27CHL1   C15 1942   5.268   3.081   9.624 -0.2131  0.1295  0.0050
   27CHL1  H15A 1943   5.165   3.070   9.666 -0.4536 -0.0563 -0.6293
   27CHL1  H15B 1944   5.296   3.188   9.630 -1.2793  0.4162 -0.0104
   27CHL1   C16 1945   5.284   3.019   9.485 -0.3195  0.7977 -0.0655
   27CHL1  H16A 1946   5.187   2.975   9.454  0.0905 -0.5240  0.4758
   27CHL1  H16B 1947   5.297   3.099   9.408 -0.8119  1.4320  0.4969
   27CHL1   C17 1948   5.393   2.906   9.492 -0.1253 -0.5086  0.5124
   27CHL1   H17 1949   5.493   2.952   9.475 -1.6720  2.7064 -0.6534
   27CHL1   C13 1950   5.393   2.860   9.637  0.1348  0.1550  0.8468
   27CHL1   C18 1951   5.271   2.767   9.661  0.1397 -0.3309 -0.0388
   27CHL1  H18A 1952   5.244   2.773   9.769  0.2031 -0.5882 -0.0078
   27CHL1  H18B 1953   5.181   2.804   9.607  0.8865 -0.1626 -1.2094
   27CHL1  H18C 1954   5.288   2.665   9.620 -1.4684 -0.0403 -1.5234
   27CHL1   C12 1955   5.522   2.795   9.696  0.1528  0.5545 -0.8723
   27CHL1  H12A 1956   5.525   2.693   9.651 -0.0020 -0.1412  0.6294
   27CHL1  H12B 1957   5.605   2.858   9.657  0.2480  0.5203 -0.7248
   27CHL1   C11 1958   5.506   2.790   9.849 -0.1442 -0.4190 -0.4314
   27CHL1  H11A 1959   5.446   2.703   9.882 -0.7983  0.7380  1.5745
   27CHL1  H11B 1960   5.611   2.778   9.883 -0.3421  1.1016  0.8324
   27CHL1    C9 1961   5.455   2.915   9.929  0.0307 -0.4977 -0.6361
   27CHL1    H9 1962   5.542   2.984   9.921 -0.3422  0.0423 -0.0980
   27CHL1   C10 1963   5.426   2.887  10.077 -0.8113  0.4325 -0.7046
   27CHL1   C19 1964   5.311   2.779  10.097  0.6337  0.1904  0.1621
   27CHL1  H19A 1965   5.295   2.760  10.205  1.3294  2.9375  0.8352
   27CHL1  H19B 1966   5.218   2.814  10.047 -2.4588 -3.6006  2.7269
   27CHL1  H19C 1967   5.343   2.686  10.045 -0.7426  0.7639 -1.8329
   27CHL1    C1 1968   5.561   2.850  10.140 -0.7487  0.4250 -0.3412
   27CHL1   H1A 1969   5.591   2.749  10.105  0.7018  0.5225  0.5625
   27CHL1   H1B 1970   5.630   2.932  10.111 -0.8695  0.9133  0.6870
   27CHL1    C2 1971   5.568   2.851  10.293  0.2179 -0.5322 -0.1251
   27CHL1   H2A 1972   5.677   2.844  10.310  0.5903  1.7102 -1.2002
   27CHL1   H2B 1973   5.505   2.769  10.335  1.0826 -1.8256 -1.2458
   27CHL1   C20 1974   5.386   2.800   9.375  0.1127 -0.6771  0.2043
   27CHL1   H20 1975   5.338   2.712   9.423 -1.2996  0.4953  1.0179
   27CHL1   C21 1976   5.534   2.757   9.340  0.6303  0.2259  0.1433
   27CHL1  H21A 1977   5.589   2.729   9.432 -0.6573  1.2294  1.2542
   27CHL1  H21B 1978   5.594   2.839   9.294  0.9478  0.0812  0.3007
   27CHL1  H21C 1979   5.544   2.667   9.276 -0.0602 -0.3192  0.7979
   27CHL1   C22 1980   5.316   2.834   9.237  0.3397  0.1411 -0.9957
   27CHL1  H22A 1981   5.314   2.740   9.177 -2.9956 -1.6112  1.4842
   27CHL1  H22B 1982   5.209   2.851   9.265  0.6019 -1.1785  1.0252
   27CHL1   C23 1983   5.373   2.953   9.154 -0.1944  0.2278  0.1887
   27CHL1  H23A 1984   5.370   3.044   9.219  1.7649  2.3052 -2.3846
   27CHL1  H23B 1985   5.484   2.944   9.145  0.2248 -0.1121  3.9157
   27CHL1   C24 1986   5.311   2.986   9.017 -0.5491 -0.2117 -1.0538
   27CHL1  H24A 1987   5.325   2.898   8.950  0.7343 -0.8105 -0.0319
   27CHL1  H24B 1988   5.205   3.014   9.038 -0.4067 -1.6169  1.9974
   27CHL1   C25 1989   5.374   3.110   8.948 -0.3639  0.0736  0.2323
   27CHL1   H25 1990   5.485   3.101   8.952 -0.2348 -0.0720 -2.1819
   27CHL1   C26 1991   5.320   3.123   8.807 -0.4175 -0.2476  0.6836
   27CHL1  H26A 1992   5.362   3.044   8.742 -0.3344 -1.8958  2.6348
   27CHL1  H26B 1993   5.210   3.118   8.799 -0.8622 -1.2067  4.8635
   27CHL1  H26C 1994   5.342   3.227   8.773 -1.4314  0.2043  1.3695
   27CHL1   C27 1995   5.330   3.240   9.021 -0.0212  0.0039 -0.1820
   27CHL1  H27A 1996   5.354   3.245   9.129 -1.4659  0.4405  0.1363
   27CHL1  H27B 1997   5.363   3.338   8.979  2.4426 -1.1588 -1.1308
   27CHL1  H27C 1998   5.219   3.237   9.014 -0.0245 -1.2190  0.2977
   28CHL1    C3 1999   0.019   0.281  10.023  0.1386  0.1786 -0.4513
   28CHL1    H3 2000   0.003   0.384   9.984 -3.4184 -0.2708 -0.5337
   28CHL1    O3 2001   0.051   0.281  10.164 -0.3852 -0.2415 -0.7409
   28CHL1   H3' 2002   0.132   0.231  10.179  1.1010  2.2400  0.1399
   28CHL1    C4 2003  -0.098   0.188  10.008  0.3823  0.0908 -0.3774
   28CHL1   H4A 2004  -0.062   0.093  10.053  0.6031  0.7889  0.9694
   28CHL1   H4B 2005  -0.182   0.226  10.069  1.2569 -0.6811  1.3790
   28CHL1    C5 2006  -0.129   0.180   9.859 -0.4588  0.2393 -0.5057
   28CHL1    C6 2007  -0.249   0.217   9.814  0.3492  0.7282  0.0584
   28CHL1    H6 2008  -0.325   0.245   9.888 -0.4881 -0.5145 -0.2849
   28CHL1    C7 2009  -0.287   0.197   9.669  0.8328  0.2736 -0.2420
   28CHL1   H7A 2010  -0.391   0.161   9.657  1.0521  0.0136 -1.4800
   28CHL1   H7B 2011  -0.276   0.295   9.618  1.2842 -0.3532 -1.3847
   28CHL1    C8 2012  -0.190   0.112   9.582  0.4635 -0.5438 -0.4934
   28CHL1    H8 2013  -0.206   0.007   9.615 -0.5825  0.1716  1.4366
   28CHL1   C14 2014  -0.214   0.119   9.432 -0.6915 -0.4560 -0.3772
   28CHL1   H14 2015  -0.209   0.228   9.406  1.2860 -0.4296 -0.0557
   28CHL1   C15 2016  -0.346   0.077   9.377 -0.8505  0.2568 -0.0749
   28CHL1  H15A 2017  -0.360  -0.020   9.430  1.3545  0.3030  0.6983
   28CHL1  H15B 2018  -0.422   0.151   9.408 -0.6479  0.0343  1.0028
   28CHL1   C16 2019  -0.324   0.049   9.229  0.4313 -0.4696  0.2478
   28CHL1  H16A 2020  -0.360  -0.052   9.201 -0.5329 -0.3614  1.0037
   28CHL1  H16B 2021  -0.371   0.127   9.165 -1.7873 -0.5114  1.6751
   28CHL1   C17 2022  -0.175   0.065   9.207  0.0010 -0.5970  0.7247
   28CHL1   H17 2023  -0.157   0.172   9.182  0.1793 -0.8306 -0.2002
   28CHL1   C13 2024  -0.114   0.048   9.343  0.2395 -0.0460  0.4306
   28CHL1   C18 2025  -0.109  -0.102   9.375 -0.4054 -0.2296  0.2484
   28CHL1  H18A 2026  -0.207  -0.149   9.348 -0.8805  1.2069 -0.6333
   28CHL1  H18B 2027  -0.031  -0.146   9.309 -0.2672  2.0371 -1.2017
   28CHL1  H18C 2028  -0.084  -0.134   9.478 -0.5802  0.2588  0.4443
   28CHL1   C12 2029   0.023   0.117   9.370  0.6194  0.3120  0.5735
   28CHL1  H12A 2030   0.094   0.081   9.292 -0.7071  0.3561 -0.6954
   28CHL1  H12B 2031  -0.003   0.223   9.347 -0.0427  0.0613  0.1298
   28CHL1   C11 2032   0.066   0.096   9.514  0.3554 -0.3557  0.6617
   28CHL1  H11A 2033   0.082  -0.013   9.524  1.2226 -0.5861 -2.1953
   28CHL1  H11B 2034   0.157   0.158   9.531 -0.4773  0.3706  2.8040
   28CHL1    C9 2035  -0.043   0.150   9.616  0.1633  0.1818  0.0307
   28CHL1    H9 2036  -0.047   0.259   9.595  0.4669  0.4533  1.3076
   28CHL1   C10 2037  -0.018   0.130   9.762  0.4843 -1.6372  0.3438
   28CHL1   C19 2038  -0.002  -0.023   9.782  0.3151  0.7285 -0.3912
   28CHL1  H19A 2039  -0.079  -0.090   9.739  0.8482 -1.1854  1.4908
   28CHL1  H19B 2040   0.094  -0.059   9.741  1.2357  0.4428  1.8631
   28CHL1  H19C 2041   0.013  -0.042   9.891  0.2151 -1.0248 -0.6580
   28CHL1    C1 2042   0.107   0.207   9.796  0.7970 -0.4062  0.0553
   28CHL1   H1A 2043   0.189   0.146   9.752  0.7938 -0.0708 -0.4217
   28CHL1   H1B 2044   0.116   0.302   9.739 -0.7256  0.8917  1.8765
   28CHL1    C2 2045   0.137   0.229   9.944  0.3639  0.5586 -0.2324
   28CHL1   H2A 2046   0.230   0.287   9.962  0.2559  0.1824  1.7329
   28CHL1   H2B 2047   0.173   0.132   9.986 -0.1351 -0.3259 -1.7445
   28CHL1   C20 2048  -0.127  -0.024   9.087  0.1927 -0.5242 -0.3475
   28CHL1   H20 2049  -0.121  -0.129   9.123  2.0148  0.1327  1.4484
   28CHL1   C21 2050   0.021   0.015   9.053 -0.1389 -0.8744  0.1441
   28CHL1  H21A 2051   0.096  -0.015   9.130 -0.8603  0.0521  1.2468
   28CHL1  H21B 2052   0.024   0.126   9.053 -0.1413 -0.8721  0.6207
   28CHL1  H21C 2053   0.042  -0.046   8.962 -0.8409 -2.2861  0.8964
   28CHL1   C22 2054  -0.222  -0.021   8.965 -0.3706 -0.4861 -0.0245
   28CHL1  H22A 2055  -0.168  -0.097   8.903 -1.3363 -1.0424 -0.2110
   28CHL1  H22B 2056  -0.321  -0.069   8.978  1.1080 -3.9326 -0.2265
   28CHL1   C23 2057  -0.225   0.112   8.897  0.1371  0.2599  0.0601
   28CHL1  H23A 2058  -0.279   0.185   8.961  0.1247  1.0949 -0.8825
   28CHL1  H23B 2059  -0.126   0.161   8.881  1.2062 -1.9705 -0.5787
   28CHL1   C24 2060  -0.296   0.107   8.760  0.2025 -0.2800 -0.0436
   28CHL1  H24A 2061  -0.262   0.189   8.693  1.9244 -0.5081  0.5154
   28CHL1  H24B 2062  -0.253   0.018   8.710 -0.8955 -1.3070  0.7916
   28CHL1   C25 2063  -0.454   0.095   8.769  0.4358  0.2250  0.4320
   28CHL1   H25 2064  -0.486   0.012   8.835  0.6380 -0.1089  0.1104
   28CHL1   C26 2065  -0.514   0.232   8.807  0.6675  0.4613  0.2539
   28CHL1  H26A 2066  -0.487   0.297   8.721 -0.5868  1.3255  0.4799
   28CHL1  H26B 2067  -0.624   0.223   8.820  0.5435  2.4372  0.9080
   28CHL1  H26C 2068  -0.467   0.264   8.903  0.6555 -1.3395  0.8901
   28CHL1   C27 2069  -0.508   0.059   8.633 -1.0873 -0.1418 -0.2857
   28CHL1  H27A 2070  -0.482   0.137   8.557  0.8204 -0.8588 -0.4061
   28CHL1  H27B 2071  -0.478  -0.041   8.596 -2.1892 -0.4678 -0.3376
   28CHL1  H27C 2072  -0.619   0.048   8.641 -1.4168  3.1073  1.2498
   29CHL1    C3 2073   5.768   3.842   6.769 -0.1181 -0.1069 -0.2170
   29CHL1    H3 2074   5.667   3.797   6.776 -0.3828  0.4521 -0.4025
   29CHL1    O3 2075   5.805   3.813   6.637 -0.0434  0.2091 -0.5994
   29CHL1   H3' 2076   5.900   3.829   6.630  0.1696 -0.7573 -0.1091
   29CHL1    C4 2077   5.759   3.992   6.796 -0.1748 -0.6455  0.0807
   29CHL1   H4A 2078   5.854   4.046   6.776 -3.0289  4.5985 -1.2626
   29CHL1   H4B 2079   5.692   4.037   6.720  1.6237 -1.0870 -1.8376
   29CHL1    C5 2080   5.715   4.026   6.938  0.6549  0.7444 -0.2581
   29CHL1    C6 2081   5.620   4.115   6.976  0.3857  0.3314  0.9165
   29CHL1    H6 2082   5.562   4.165   6.897  0.5810  1.2131  1.3251
   29CHL1    C7 2083   5.582   4.150   7.118  0.5362 -0.1466 -0.3345
   29CHL1   H7A 2084   5.580   4.261   7.121  1.8005 -0.1396  2.0352
   29CHL1   H7B 2085   5.480   4.107   7.132 -0.3803  2.0396  0.2011
   29CHL1    C8 2086   5.683   4.098   7.223  0.2282  0.4312 -0.0763
   29CHL1    H8 2087   5.771   4.165   7.221  1.5823 -1.2613 -2.6667
   29CHL1   C14 2088   5.621   4.095   7.362  0.3757 -0.3447  0.0729
   29CHL1   H14 2089   5.532   4.032   7.340  0.6760 -0.0568 -2.2171
   29CHL1   C15 2090   5.582   4.234   7.420  0.5379 -0.7339 -0.6039
   29CHL1  H15A 2091   5.673   4.298   7.423  0.2977 -0.4054 -0.3862
   29CHL1  H15B 2092   5.505   4.290   7.364 -2.1577 -1.4815  2.0750
   29CHL1   C16 2093   5.531   4.197   7.561 -0.5562  0.0633 -0.5159
   29CHL1  H16A 2094   5.566   4.285   7.621 -3.7864  1.5334 -0.5667
   29CHL1  H16B 2095   5.420   4.190   7.558 -0.5790 -0.7446  0.9751
   29CHL1   C17 2096   5.592   4.063   7.597 -0.0382 -0.0429 -0.1562
   29CHL1   H17 2097   5.513   3.987   7.585 -0.2594 -0.2151  1.9679
   29CHL1   C13 2098   5.690   4.034   7.484  0.2552 -0.2176  0.3837
   29CHL1   C18 2099   5.825   4.102   7.511 -0.5001 -0.4392 -0.2444
   29CHL1  H18A 2100   5.805   4.203   7.551 -0.2739 -0.1618 -0.8179
   29CHL1  H18B 2101   5.865   4.049   7.600 -2.7583  0.4508  1.3711
   29CHL1  H18C 2102   5.905   4.112   7.434  1.6599 -1.9471  1.6579
   29CHL1   C12 2103   5.721   3.888   7.439 -0.1978  0.2449 -0.2401
   29CHL1  H12A 2104   5.787   3.841   7.515 -0.0936  0.3172 -0.2860
   29CHL1  H12B 2105   5.638   3.816   7.427 -0.1048  0.4328 -2.3035
   29CHL1   C11 2106   5.802   3.883   7.306  1.0939 -0.5916  0.1278
   29CHL1  H11A 2107   5.903   3.927   7.318  0.4378  0.4565  2.3636
   29CHL1  H11B 2108   5.825   3.775   7.293  1.2493 -0.8616  2.2902
   29CHL1    C9 2109   5.729   3.955   7.189  0.4883  0.3246  0.0646
   29CHL1    H9 2110   5.634   3.898   7.185 -0.0488  1.1568  0.5444
   29CHL1   C10 2111   5.801   3.947   7.049 -0.6013 -0.1280  1.1986
   29CHL1   C19 2112   5.939   4.002   7.056 -0.5985  0.0086 -0.2966
   29CHL1  H19A 2113   5.992   4.020   6.960 -0.3768  0.8405 -0.0257
   29CHL1  H19B 2114   5.938   4.103   7.102  1.7140  0.0253 -0.1766
   29CHL1  H19C 2115   6.006   3.940   7.119 -0.7108 -0.8814 -1.0248
   29CHL1    C1 2116   5.821   3.798   7.003  0.0025  0.3109  0.2570
   29CHL1   H1A 2117   5.886   3.741   7.073  3.3383  3.7631  0.3060
   29CHL1   H1B 2118   5.722   3.752   7.023 -0.1970 -0.1560 -1.5965
   29CHL1    C2 2119   5.867   3.772   6.865 -0.8100  0.2316 -0.2878
   29CHL1   H2A 2120   5.871   3.664   6.840  0.2004  0.2263 -0.1617
   29CHL1   H2B 2121   5.963   3.821   6.837 -0.4933 -0.0659  0.2499
   29CHL1   C20 2122   5.641   4.055   7.740 -0.5688  0.5514 -0.1601
   29CHL1   H20 2123   5.736   4.111   7.747 -0.1712 -0.1950  0.6025
   29CHL1   C21 2124   5.662   3.909   7.781 -0.5507 -0.0023 -0.0898
   29CHL1  H21A 2125   5.579   3.843   7.747 -2.6467  2.3587  0.1307
   29CHL1  H21B 2126   5.661   3.896   7.891 -1.2198 -1.9429 -0.2952
   29CHL1  H21C 2127   5.759   3.869   7.744 -1.2600 -1.9529  0.0360
   29CHL1   C22 2128   5.550   4.130   7.841 -0.3252  0.3748  0.0076
   29CHL1  H22A 2129   5.598   4.131   7.941 -0.3128  0.9341  0.0008
   29CHL1  H22B 2130   5.537   4.241   7.844  0.1554  0.4185  1.8975
   29CHL1   C23 2131   5.412   4.067   7.859 -0.0048 -0.2546  0.1889
   29CHL1  H23A 2132   5.357   4.061   7.762 -0.0415  0.3584  0.1671
   29CHL1  H23B 2133   5.427   3.962   7.893 -0.9480 -0.4810 -0.0723
   29CHL1   C24 2134   5.324   4.149   7.959 -0.2297 -0.0281 -0.2231
   29CHL1  H24A 2135   5.393   4.165   8.044  1.5120 -2.1801 -1.1147
   29CHL1  H24B 2136   5.311   4.244   7.903 -2.2357 -0.1953 -0.1201
   29CHL1   C25 2137   5.193   4.082   7.992  0.4409 -1.0245 -0.3669
   29CHL1   H25 2138   5.214   3.981   8.034  1.6072 -1.1869 -1.3039
   29CHL1   C26 2139   5.126   4.170   8.105 -0.1400  0.9743 -0.2687
   29CHL1  H26A 2140   5.101   4.273   8.073 -0.8001  0.7124 -0.6217
   29CHL1  H26B 2141   5.026   4.132   8.136  1.0290 -1.3542  0.9152
   29CHL1  H26C 2142   5.183   4.177   8.200  0.9035  1.9427 -0.9437
   29CHL1   C27 2143   5.098   4.073   7.869 -0.2219  0.6124 -0.0928
   29CHL1  H27A 2144   5.004   4.017   7.888 -0.5502  1.6358  1.5042
   29CHL1  H27B 2145   5.075   4.175   7.832  1.1836  0.5583 -1.2512
   29CHL1  H27C 2146   5.143   4.016   7.785 -0.2604  0.9261 -0.3268
   30CHL1    C3 2147   6.613   2.450   6.821  0.1889  0.0174  0.0119
   30CHL1    H3 2148   6.554   2.357   6.841 -0.6897 -0.2155 -3.0627
   30CHL1    O3 2149   6.623   2.461   6.680  0.3644  0.2712  0.1720
   30CHL1   H3' 2150   6.688   2.532   6.672 -0.6347  0.9919 -2.4872
   30CHL1    C4 2151   6.551   2.574   6.878 -0.2633 -0.7643 -0.4698
   30CHL1   H4A 2152   6.597   2.665   6.835  1.4328 -1.6269 -0.5819
   30CHL1   H4B 2153   6.450   2.586   6.832 -0.8865  4.1926  1.5691
   30CHL1    C5 2154   6.534   2.571   7.028 -0.4145 -0.0571  0.4056
   30CHL1    C6 2155   6.415   2.581   7.092 -0.4197  0.5230  0.3562
   30CHL1    H6 2156   6.325   2.594   7.030  0.1291  0.3911 -0.4914
   30CHL1    C7 2157   6.393   2.578   7.241 -0.2670 -0.5449  0.1818
   30CHL1   H7A 2158   6.322   2.655   7.279  1.3237  0.6685  0.7873
   30CHL1   H7B 2159   6.346   2.484   7.279  0.5271 -0.1448  2.2839
   30CHL1    C8 2160   6.525   2.603   7.315 -0.5337  0.7425 -0.6748
   30CHL1    H8 2161   6.562   2.708   7.314 -0.9446  1.0300  2.7267
   30CHL1   C14 2162   6.508   2.571   7.467 -0.4749 -0.0289 -0.8660
   30CHL1   H14 2163   6.510   2.460   7.464 -0.5289 -0.3033  3.4348
   30CHL1   C15 2164   6.380   2.603   7.549 -0.3904  0.2150  0.6231
   30CHL1  H15A 2165   6.371   2.712   7.532 -0.1186  0.4939  2.1933
   30CHL1  H15B 2166   6.292   2.541   7.522 -0.8729  0.3338  1.8788
   30CHL1   C16 2167   6.422   2.582   7.696  0.0197  0.0300  0.2803
   30CHL1  H16A 2168   6.419   2.684   7.739  0.6444  0.1650  0.0126
   30CHL1  H16B 2169   6.350   2.515   7.748  0.1571 -2.3761 -2.3886
   30CHL1   C17 2170   6.572   2.536   7.696 -0.6713 -0.1602  0.1720
   30CHL1   H17 2171   6.569   2.425   7.686  0.9229 -0.0316 -2.4570
   30CHL1   C13 2172   6.632   2.586   7.558 -0.2578 -0.0809  0.2347
   30CHL1   C18 2173   6.668   2.736   7.575 -0.1579 -0.7389 -0.1920
   30CHL1  H18A 2174   6.684   2.787   7.477  0.2877  1.1301  0.8101
   30CHL1  H18B 2175   6.594   2.791   7.636  0.3621 -0.1874 -0.0459
   30CHL1  H18C 2176   6.763   2.754   7.629 -0.3306  0.9125 -0.4023
   30CHL1   C12 2177   6.745   2.497   7.500  1.0787  0.5458 -0.4979
   30CHL1  H12A 2178   6.840   2.511   7.556  0.4862  1.4600  0.3140
   30CHL1  H12B 2179   6.719   2.391   7.520 -0.8886  1.1092  0.2389
   30CHL1   C11 2180   6.765   2.523   7.349  0.1570  0.8080 -0.3333
   30CHL1  H11A 2181   6.810   2.625   7.352  0.8403  0.4869  1.1070
   30CHL1  H11B 2182   6.841   2.454   7.306 -1.4611 -2.2081  1.3013
   30CHL1    C9 2183   6.640   2.515   7.258  0.5531  0.9404 -0.1893
   30CHL1    H9 2184   6.602   2.411   7.257  0.2031  1.0555 -1.5651
   30CHL1   C10 2185   6.664   2.548   7.108 -0.7274 -0.3021  0.7708
   30CHL1   C19 2186   6.750   2.675   7.093 -1.0039 -0.0920 -0.1421
   30CHL1  H19A 2187   6.710   2.763   7.148 -1.8301 -0.0241 -0.8334
   30CHL1  H19B 2188   6.855   2.652   7.120 -0.7746 -0.0162 -0.9526
   30CHL1  H19C 2189   6.764   2.701   6.986  0.7742 -0.0279  0.0805
   30CHL1    C1 2190   6.737   2.424   7.051 -0.2612 -0.2628  1.2740
   30CHL1   H1A 2191   6.844   2.420   7.081  0.1416 -0.5971 -0.1340
   30CHL1   H1B 2192   6.695   2.325   7.078 -0.0484 -1.1348 -1.3781
   30CHL1    C2 2193   6.752   2.434   6.893  0.2279 -0.3475 -0.5836
   30CHL1   H2A 2194   6.790   2.336   6.857 -0.1208 -0.7724  0.1760
   30CHL1   H2B 2195   6.809   2.525   6.864 -1.7805  1.3882  0.6366
   30CHL1   C20 2196   6.647   2.568   7.823 -0.2998 -0.1511 -0.2555
   30CHL1   H20 2197   6.656   2.678   7.829 -1.5357 -0.0141 -0.7325
   30CHL1   C21 2198   6.786   2.511   7.831 -0.0125 -0.1912 -0.0639
   30CHL1  H21A 2199   6.785   2.407   7.794  2.0915 -1.2896  2.6503
   30CHL1  H21B 2200   6.828   2.505   7.934  0.3373 -0.7899 -0.2378
   30CHL1  H21C 2201   6.854   2.568   7.764 -2.8402  0.2917 -2.7495
   30CHL1   C22 2202   6.571   2.531   7.953  0.4217  0.4246 -0.2953
   30CHL1  H22A 2203   6.630   2.563   8.042 -2.1622 -1.9320  2.4971
   30CHL1  H22B 2204   6.474   2.585   7.952 -0.6702 -1.4289 -0.9814
   30CHL1   C23 2205   6.537   2.380   7.984  0.0768  0.2423  0.0904
   30CHL1  H23A 2206   6.475   2.345   7.899 -2.4599  0.4113  1.7880
   30CHL1  H23B 2207   6.631   2.321   7.992  0.8996  1.2679 -1.3615
   30CHL1   C24 2208   6.446   2.368   8.100  0.5625  0.1596  0.1773
   30CHL1  H24A 2209   6.485   2.410   8.195 -1.8588  0.8516  0.9475
   30CHL1  H24B 2210   6.345   2.412   8.081  0.6717  0.5813  0.5703
   30CHL1   C25 2211   6.419   2.221   8.138 -0.2425  0.3727  0.2065
   30CHL1   H25 2212   6.385   2.169   8.046  0.5846  0.0272  0.0935
   30CHL1   C26 2213   6.540   2.144   8.198  0.4666  0.1502  0.1605
   30CHL1  H26A 2214   6.509   2.051   8.250 -1.1231  1.0777  0.9714
   30CHL1  H26B 2215   6.605   2.126   8.110 -2.4726  0.5834 -2.2234
   30CHL1  H26C 2216   6.601   2.204   8.270  1.8623  1.4219 -1.9789
   30CHL1   C27 2217   6.307   2.210   8.239 -0.4702 -0.3280  0.0631
   30CHL1  H27A 2218   6.218   2.274   8.218 -1.1165 -1.1190  0.3210
   30CHL1  H27B 2219   6.282   2.103   8.253  1.4243 -0.7044  0.7623
   30CHL1  H27C 2220   6.338   2.246   8.340 -0.0748 -1.6535  0.4330
   31CHL1    C3 2221   4.265   4.521   6.724 -0.7105  0.4283  0.3301
   31CHL1    H3 2222   4.234   4.429   6.776  2.4362  0.0831  1.8602
   31CHL1    O3 2223   4.282   4.483   6.591  0.2610  0.7753  0.1708
   31CHL1   H3' 2224   4.325   4.551   6.539 -1.7601  0.3051 -2.3022
   31CHL1    C4 2225   4.157   4.633   6.735  0.0850  0.5221  0.7982
   31CHL1   H4A 2226   4.208   4.705   6.668 -1.7253  0.1706 -1.0641
   31CHL1   H4B 2227   4.069   4.597   6.677 -0.3025  0.5773  1.3403
   31CHL1    C5 2228   4.130   4.691   6.871  0.6501 -0.6280  0.0428
   31CHL1    C6 2229   4.003   4.695   6.918 -0.1946  0.4498  0.2084
   31CHL1    H6 2230   3.919   4.665   6.854  0.5980 -2.5281  0.4176
   31CHL1    C7 2231   3.959   4.741   7.052 -0.0213  0.0210 -0.0415
   31CHL1   H7A 2232   3.874   4.813   7.050  1.3691  1.7791  0.6469
   31CHL1   H7B 2233   3.935   4.657   7.120 -1.0134  0.4772  0.1956
   31CHL1    C8 2234   4.077   4.822   7.115  0.1783  0.5822 -1.0155
   31CHL1    H8 2235   4.079   4.920   7.062  1.0699  0.2273 -1.6590
   31CHL1   C14 2236   4.049   4.844   7.265 -0.1762  0.7513 -0.1435
   31CHL1   H14 2237   4.060   4.740   7.304 -2.2498  0.2552 -0.7518
   31CHL1   C15 2238   3.904   4.901   7.301  0.2950 -0.2044 -0.0001
   31CHL1  H15A 2239   3.876   4.981   7.230 -2.0144 -0.5604  0.4398
   31CHL1  H15B 2240   3.820   4.829   7.309 -0.1326  0.2398 -0.4089
   31CHL1   C16 2241   3.926   4.949   7.446  0.1071 -0.6011  0.7651
   31CHL1  H16A 2242   3.902   5.058   7.446 -0.4543 -0.7064 -0.3732
   31CHL1  H16B 2243   3.866   4.894   7.521  2.0240 -1.6530  1.6105
   31CHL1   C17 2244   4.077   4.937   7.474  0.6127  0.2342 -0.1740
   31CHL1   H17 2245   4.088   4.838   7.522 -0.1210  1.6111  3.1078
   31CHL1   C13 2246   4.151   4.924   7.339  0.6166  0.4820  0.2082
   31CHL1   C18 2247   4.170   5.073   7.282 -0.1873  0.0993  0.2800
   31CHL1  H18A 2248   4.250   5.126   7.338 -1.1554 -0.4196  2.2682
   31CHL1  H18B 2249   4.193   5.072   7.173  0.5015 -3.1105  0.3488
   31CHL1  H18C 2250   4.075   5.126   7.301 -1.5272 -1.3881 -1.8528
   31CHL1   C12 2251   4.286   4.850   7.332  0.3228 -0.0376  0.3953
   31CHL1  H12A 2252   4.367   4.909   7.380  0.2246 -0.2409  0.8143
   31CHL1  H12B 2253   4.272   4.755   7.388 -0.6595  0.1169  0.4192
   31CHL1   C11 2254   4.325   4.814   7.189 -0.2897 -0.0009  0.0065
   31CHL1  H11A 2255   4.354   4.912   7.146 -0.1393  1.0084  2.2735
   31CHL1  H11B 2256   4.417   4.751   7.182  0.6581  1.3215  0.2868
   31CHL1    C9 2257   4.214   4.756   7.098  0.8471  0.0963  0.1534
   31CHL1    H9 2258   4.198   4.651   7.131  0.4551 -0.1844 -0.9048
   31CHL1   C10 2259   4.253   4.734   6.949  0.0095 -0.3446  0.3324
   31CHL1   C19 2260   4.280   4.876   6.891 -0.7969  0.0167  0.4289
   31CHL1  H19A 2261   4.289   4.881   6.780 -1.6768  0.6965  0.3754
   31CHL1  H19B 2262   4.193   4.942   6.912 -0.2379  1.3422 -1.1432
   31CHL1  H19C 2263   4.372   4.924   6.932 -1.0436 -0.2643  1.3326
   31CHL1    C1 2264   4.369   4.622   6.930  0.4090  0.0628  0.2044
   31CHL1   H1A 2265   4.463   4.662   6.975  1.6749 -1.9754 -0.5014
   31CHL1   H1B 2266   4.347   4.536   6.996  2.5978  0.6969  1.8773
   31CHL1    C2 2267   4.394   4.568   6.789 -0.5614 -0.4044  0.4790
   31CHL1   H2A 2268   4.474   4.491   6.778 -1.3816 -1.0833 -1.0365
   31CHL1   H2B 2269   4.432   4.651   6.726  2.0223 -1.0936  1.0135
   31CHL1   C20 2270   4.132   5.038   7.570  0.0640 -0.8618 -0.6094
   31CHL1   H20 2271   4.123   5.142   7.533 -0.3518  0.6475  3.2901
   31CHL1   C21 2272   4.278   5.016   7.600 -0.5959 -0.2151 -0.5454
   31CHL1  H21A 2273   4.312   5.080   7.684  1.4075  0.1997 -1.5991
   31CHL1  H21B 2274   4.339   5.040   7.510  0.9485  1.1155  0.7899
   31CHL1  H21C 2275   4.280   4.910   7.632 -0.0684 -0.6334 -1.8887
   31CHL1   C22 2276   4.052   5.038   7.704  0.0797 -0.3383  0.3700
   31CHL1  H22A 2277   4.097   5.119   7.766  1.8269  0.1057 -1.3817
   31CHL1  H22B 2278   3.946   5.063   7.682  0.5665  0.8277 -0.7777
   31CHL1   C23 2279   4.046   4.905   7.788  0.5211 -0.3414  0.3387
   31CHL1  H23A 2280   3.982   4.834   7.732  0.0192  0.4411 -0.0839
   31CHL1  H23B 2281   4.151   4.866   7.790  1.5218  2.1556  0.2400
   31CHL1   C24 2282   3.986   4.927   7.935 -0.0677  0.9023  0.0858
   31CHL1  H24A 2283   3.887   4.978   7.926 -0.1442  0.4662 -2.2760
   31CHL1  H24B 2284   3.970   4.823   7.970 -1.4366  1.0139 -0.1651
   31CHL1   C25 2285   4.076   5.008   8.027 -0.3797  0.5621 -0.1812
   31CHL1   H25 2286   4.108   5.103   7.980  0.4825  0.1758 -0.4156
   31CHL1   C26 2287   4.006   5.061   8.155 -1.2788  0.0916 -0.3167
   31CHL1  H26A 2288   4.001   4.994   8.243 -3.2092 -0.5227 -0.8507
   31CHL1  H26B 2289   4.049   5.161   8.177 -0.2620 -0.6430  1.2158
   31CHL1  H26C 2290   3.900   5.087   8.130 -0.1956  2.7987 -2.7441
   31CHL1   C27 2291   4.202   4.928   8.069 -0.3429 -0.3543 -0.5527
   31CHL1  H27A 2292   4.259   4.895   7.979 -0.1404 -2.1800  0.1990
   31CHL1  H27B 2293   4.187   4.835   8.128 -1.1930 -0.4330 -0.8738
   31CHL1  H27C 2294   4.263   4.997   8.131 -0.7479 -0.2146 -0.3031
   32CHL1    C3 2295   0.561   5.114   6.595 -0.2247  0.2142 -0.2755
   32CHL1    H3 2296   0.456   5.102   6.631 -0.4250  0.8009 -0.6361
   32CHL1    O3 2297   0.542   5.138   6.458  0.1485  0.5083 -0.1927
   32CHL1   H3' 2298   0.514   5.058   6.414 -1.6940  0.7089  0.5539
   32CHL1    C4 2299   0.620   5.247   6.648 -0.0476  0.1062  1.0613
   32CHL1   H4A 2300   0.719   5.271   6.606 -0.8282 -0.0250 -0.9499
   32CHL1   H4B 2301   0.549   5.331   6.628 -1.0602 -0.8125  0.6603
   32CHL1    C5 2302   0.643   5.224   6.794 -0.3071 -0.6726 -0.8887
   32CHL1    C6 2303   0.585   5.310   6.880 -0.0611  0.4163 -0.0039
   32CHL1    H6 2304   0.520   5.390   6.841 -1.4142 -1.2750 -1.4134
   32CHL1    C7 2305   0.611   5.308   7.026 -0.0188  0.3661 -0.9941
   32CHL1   H7A 2306   0.624   5.417   7.047 -1.8287  0.4749 -0.2101
   32CHL1   H7B 2307   0.521   5.290   7.089  0.3665 -0.6198 -0.7209
   32CHL1    C8 2308   0.725   5.220   7.078  0.0221 -0.3276  1.0996
   32CHL1    H8 2309   0.818   5.278   7.064 -1.8355  2.5846 -0.0583
   32CHL1   C14 2310   0.699   5.175   7.222 -0.2862  0.0259  0.0285
   32CHL1   H14 2311   0.607   5.112   7.225 -0.5563  0.4052 -0.2652
   32CHL1   C15 2312   0.678   5.284   7.326  0.6959 -0.0145  0.2317
   32CHL1  H15A 2313   0.755   5.363   7.311  0.1404  0.4742 -0.1202
   32CHL1  H15B 2314   0.577   5.332   7.328  0.2103 -1.0097 -0.0721
   32CHL1   C16 2315   0.697   5.212   7.456  0.7901 -0.5690  0.4891
   32CHL1  H16A 2316   0.779   5.254   7.517  0.4750 -0.6140  0.9549
   32CHL1  H16B 2317   0.603   5.209   7.515 -0.2105  0.9424 -0.9402
   32CHL1   C17 2318   0.742   5.062   7.428  0.3221 -1.2191 -0.4283
   32CHL1   H17 2319   0.643   5.013   7.420 -0.4292 -0.0562  1.2263
   32CHL1   C13 2320   0.803   5.074   7.281  0.1543 -0.0026 -0.3986
   32CHL1   C18 2321   0.950   5.135   7.295  0.3761 -0.3306  0.3849
   32CHL1  H18A 2322   0.989   5.154   7.193 -0.7237 -3.1293 -0.6476
   32CHL1  H18B 2323   0.952   5.227   7.357  0.1843  0.1558 -0.3249
   32CHL1  H18C 2324   1.012   5.054   7.339  1.4861 -0.3615 -1.1381
   32CHL1   C12 2325   0.804   4.948   7.196 -0.1795  0.5323  0.3753
   32CHL1  H12A 2326   0.886   4.881   7.230  0.6474  0.7278 -1.1680
   32CHL1  H12B 2327   0.710   4.892   7.216  0.2447  0.1296  1.3410
   32CHL1   C11 2328   0.825   4.985   7.050  0.5296 -0.3238  0.2752
   32CHL1  H11A 2329   0.927   5.028   7.039  0.0761  0.8889  0.6252
   32CHL1  H11B 2330   0.821   4.894   6.986 -0.8049 -0.8103  1.0231
   32CHL1    C9 2331   0.720   5.089   6.994  0.1240  0.2067 -0.1062
   32CHL1    H9 2332   0.624   5.035   7.012  0.5707 -0.8793 -0.8451
   32CHL1   C10 2333   0.726   5.103   6.839  0.0210 -0.2406 -0.2876
   32CHL1   C19 2334   0.865   5.131   6.784 -0.2717  0.3378  0.0718
   32CHL1  H19A 2335   0.857   5.135   6.673  1.3200  3.1925 -0.0438
   32CHL1  H19B 2336   0.915   5.227   6.810  0.0325  0.1004  0.3713
   32CHL1  H19C 2337   0.935   5.046   6.796  0.1628  0.5516 -0.7994
   32CHL1    C1 2338   0.671   4.973   6.769  0.0886 -0.2761  0.5030
   32CHL1   H1A 2339   0.731   4.884   6.799 -0.7324 -0.1972  2.5529
   32CHL1   H1B 2340   0.570   4.946   6.805  0.1948 -1.9406 -0.3665
   32CHL1    C2 2341   0.644   4.990   6.621  0.3790  0.3162  0.6968
   32CHL1   H2A 2342   0.595   4.902   6.574  1.0511  0.1054  0.3775
   32CHL1   H2B 2343   0.745   4.991   6.574  0.2839 -0.2245  0.4775
   32CHL1   C20 2344   0.831   4.998   7.537  1.1560 -0.5095 -0.8567
   32CHL1   H20 2345   0.940   5.020   7.535  1.3927 -1.2216  1.3036
   32CHL1   C21 2346   0.816   4.848   7.521  0.1859 -0.6290 -0.1845
   32CHL1  H21A 2347   0.887   4.798   7.591 -1.6380 -2.1031  0.6991
   32CHL1  H21B 2348   0.831   4.809   7.418  0.5784 -0.1094 -0.3289
   32CHL1  H21C 2349   0.722   4.808   7.564  0.4306  1.6018  2.7981
   32CHL1   C22 2350   0.792   5.036   7.683  0.1958  0.5483  0.2887
   32CHL1  H22A 2351   0.806   5.145   7.700 -0.7683  0.6912  0.1812
   32CHL1  H22B 2352   0.683   5.017   7.687  0.8399 -4.2703  0.0451
   32CHL1   C23 2353   0.866   4.955   7.781 -0.1911 -0.8280 -0.2245
   32CHL1  H23A 2354   0.813   4.857   7.785 -1.5578 -0.2146 -2.0698
   32CHL1  H23B 2355   0.969   4.937   7.742 -0.2627 -1.0341 -0.3223
   32CHL1   C24 2356   0.874   5.023   7.922  0.3294 -0.0176 -0.0535
   32CHL1  H24A 2357   0.907   5.129   7.920 -1.2472  0.6100  2.2155
   32CHL1  H24B 2358   0.772   5.027   7.968 -0.0052  0.4651 -0.8264
   32CHL1   C25 2359   0.968   4.955   8.029  0.1116 -0.5282  0.0005
   32CHL1   H25 2360   0.911   4.861   8.042 -0.2944 -0.5358 -1.6038
   32CHL1   C26 2361   1.107   4.933   7.988 -0.3844 -0.1394 -1.0910
   32CHL1  H26A 2362   1.159   5.029   7.967 -1.2557 -0.0379 -2.9011
   32CHL1  H26B 2363   1.152   4.883   8.077  2.8060  1.9553 -1.3462
   32CHL1  H26C 2364   1.123   4.866   7.901  0.9004 -2.1372  0.5780
   32CHL1   C27 2365   0.963   5.037   8.164  0.3793  0.5265  0.2673
   32CHL1  H27A 2366   1.031   5.120   8.136  1.7556 -1.5853 -3.5240
   32CHL1  H27B 2367   0.859   5.075   8.164 -0.7351 -2.1848 -1.6612
   32CHL1  H27C 2368   0.990   4.978   8.254  1.7594  2.0220  0.8790
   33CHL1    C3 2369   6.521   4.644   6.564 -0.2616 -0.0843 -0.4698
   33CHL1    H3 2370   6.496   4.750   6.587  1.5388  0.3563 -0.3908
   33CHL1    O3 2371   6.508   4.633   6.422 -0.3203 -0.5058  0.1098
   33CHL1   H3' 2372   6.417   4.609   6.402 -0.7131  0.3492  0.8126
   33CHL1    C4 2373   6.673   4.615   6.596  1.1390 -0.0254 -0.2629
   33CHL1   H4A 2374   6.696   4.512   6.563  2.1458 -0.4638  1.6298
   33CHL1   H4B 2375   6.735   4.689   6.541 -1.5845  4.1607  1.7566
   33CHL1    C5 2376   6.695   4.616   6.749 -0.1881 -0.2904 -0.0769
   33CHL1    C6 2377   6.797   4.684   6.803  0.3722 -0.3364  0.0412
   33CHL1    H6 2378   6.855   4.745   6.733  0.7670 -0.2030  0.4808
   33CHL1    C7 2379   6.845   4.687   6.940 -0.6543 -0.1326 -0.0808
   33CHL1   H7A 2380   6.954   4.668   6.947 -0.7979 -0.7832  0.6852
   33CHL1   H7B 2381   6.829   4.788   6.983  1.9500 -0.0910  0.9308
   33CHL1    C8 2382   6.784   4.565   7.023  0.2268  0.0968 -0.0509
   33CHL1    H8 2383   6.838   4.473   6.993  1.1252  0.2911  0.9324
   33CHL1   C14 2384   6.804   4.583   7.176  0.7354  0.5548  0.0752
   33CHL1   H14 2385   6.753   4.679   7.198 -1.3689 -0.5679  0.3774
   33CHL1   C15 2386   6.946   4.601   7.234  0.7976 -0.5839  0.2011
   33CHL1  H15A 2387   7.006   4.510   7.213  1.4093 -0.4349  1.2490
   33CHL1  H15B 2388   7.003   4.690   7.201 -0.3260  0.3948  0.8176
   33CHL1   C16 2389   6.918   4.600   7.381  0.3569 -0.3208 -0.1163
   33CHL1  H16A 2390   6.994   4.548   7.443 -0.2371 -2.2014 -0.8694
   33CHL1  H16B 2391   6.912   4.704   7.418 -1.2192  0.5815 -2.6182
   33CHL1   C17 2392   6.772   4.541   7.401  0.1259  0.4195  0.1163
   33CHL1   H17 2393   6.708   4.631   7.414 -1.4705 -0.3024 -2.1437
   33CHL1   C13 2394   6.735   4.482   7.262  0.1906 -0.2051 -0.1247
   33CHL1   C18 2395   6.795   4.339   7.255 -0.5472  0.0398 -0.2325
   33CHL1  H18A 2396   6.904   4.335   7.276 -0.4634 -0.4156 -0.7369
   33CHL1  H18B 2397   6.740   4.266   7.318 -0.8816 -2.4808 -3.2056
   33CHL1  H18C 2398   6.792   4.301   7.150  0.0305 -0.1260 -0.1922
   33CHL1   C12 2399   6.584   4.487   7.238 -0.4288  0.0496  0.4491
   33CHL1  H12A 2400   6.542   4.399   7.291 -0.0782 -1.1580 -1.2040
   33CHL1  H12B 2401   6.527   4.579   7.260 -2.3222 -0.8859 -0.3115
   33CHL1   C11 2402   6.554   4.455   7.088 -0.7262  0.2729  0.1455
   33CHL1  H11A 2403   6.604   4.356   7.084 -1.5344 -0.2098  1.3928
   33CHL1  H11B 2404   6.447   4.456   7.059 -0.9923  0.1133  1.1108
   33CHL1    C9 2405   6.632   4.548   6.992  0.2503 -0.1969  0.9435
   33CHL1    H9 2406   6.593   4.648   7.019  0.8738 -0.0803  1.4320
   33CHL1   C10 2407   6.598   4.527   6.839 -0.3196  0.3098  1.0247
   33CHL1   C19 2408   6.633   4.380   6.811 -0.4107 -0.8093  0.4650
   33CHL1  H19A 2409   6.616   4.343   6.708 -0.9340  0.2270  0.1606
   33CHL1  H19B 2410   6.732   4.354   6.852 -0.5307 -1.6842  0.2259
   33CHL1  H19C 2411   6.564   4.319   6.873 -0.9114 -2.0093 -1.2025
   33CHL1    C1 2412   6.452   4.567   6.795 -0.2392  0.5542 -0.6998
   33CHL1   H1A 2413   6.379   4.502   6.848 -1.9382  1.6585 -1.5679
   33CHL1   H1B 2414   6.424   4.670   6.826 -0.5610  0.6609 -1.3250
   33CHL1    C2 2415   6.427   4.553   6.640 -0.2235 -0.5567  0.6866
   33CHL1   H2A 2416   6.321   4.576   6.616  0.2618  0.7645 -0.3178
   33CHL1   H2B 2417   6.440   4.445   6.620 -2.2519 -0.5818 -0.8795
   33CHL1   C20 2418   6.761   4.455   7.537  0.1483 -0.0595 -0.4456
   33CHL1   H20 2419   6.839   4.377   7.553  0.8376  0.7146  0.0399
   33CHL1   C21 2420   6.622   4.400   7.559  0.3189 -0.3498 -0.3337
   33CHL1  H21A 2421   6.538   4.472   7.554 -0.7329 -1.5947 -1.8711
   33CHL1  H21B 2422   6.612   4.347   7.656  1.1007 -1.7189 -0.9694
   33CHL1  H21C 2423   6.603   4.320   7.484  0.5780 -0.7972  0.0759
   33CHL1   C22 2424   6.780   4.560   7.654  0.2403  0.2276  0.0240
   33CHL1  H22A 2425   6.846   4.642   7.619  1.1664 -0.4912  0.0366
   33CHL1  H22B 2426   6.682   4.602   7.684 -1.3610 -1.4048 -2.5358
   33CHL1   C23 2427   6.846   4.490   7.779 -0.0472  0.0058 -0.6301
   33CHL1  H23A 2428   6.768   4.419   7.815 -2.0831  2.0212 -0.8612
   33CHL1  H23B 2429   6.934   4.440   7.733  0.9635  1.9326 -0.8714
   33CHL1   C24 2430   6.874   4.581   7.896 -0.5210 -0.2398  0.4186
   33CHL1  H24A 2431   6.947   4.657   7.862 -1.6504  0.7308  0.0885
   33CHL1  H24B 2432   6.779   4.629   7.928 -1.3223 -0.8438 -0.9612
   33CHL1   C25 2433   6.923   4.509   8.023  0.3311  0.2084 -0.2048
   33CHL1   H25 2434   7.010   4.441   8.012  1.6009  1.9949 -1.6135
   33CHL1   C26 2435   6.976   4.624   8.126  0.1034 -0.0165 -0.2266
   33CHL1  H26A 2436   7.040   4.563   8.194  1.8126 -0.8562 -2.4598
   33CHL1  H26B 2437   7.041   4.700   8.078  1.0835 -1.2127 -0.8491
   33CHL1  H26C 2438   6.893   4.672   8.181 -0.8766 -2.9208  1.0105
   33CHL1   C27 2439   6.803   4.441   8.092 -0.1803 -0.5061 -1.3427
   33CHL1  H27A 2440   6.750   4.376   8.019 -0.3123 -0.5580 -1.2013
   33CHL1  H27B 2441   6.823   4.382   8.184 -0.4527  2.1391  0.5385
   33CHL1  H27C 2442   6.731   4.520   8.123  1.6162  1.4438 -1.9103
   34CHL1    C3 2443   6.265   3.444   6.846  0.1552  0.2541 -0.2317
   34CHL1    H3 2444   6.269   3.338   6.878  0.9881  0.1440 -0.6748
   34CHL1    O3 2445   6.279   3.445   6.703 -0.3662 -0.5112  0.1081
   34CHL1   H3' 2446   6.262   3.532   6.666  4.3408  0.6863  0.0267
   34CHL1    C4 2447   6.134   3.506   6.879  0.2415 -0.2174  0.5236
   34CHL1   H4A 2448   6.131   3.611   6.842  0.8906 -0.5945 -0.6220
   34CHL1   H4B 2449   6.048   3.450   6.838  0.1253  1.0739 -1.1024
   34CHL1    C5 2450   6.113   3.514   7.031 -0.5618  0.2271 -0.0228
   34CHL1    C6 2451   6.007   3.453   7.091 -0.2496 -0.0193  0.5181
   34CHL1    H6 2452   5.941   3.397   7.024  0.7288 -0.7571  0.1529
   34CHL1    C7 2453   5.967   3.478   7.229  0.3944 -0.2559 -0.2930
   34CHL1   H7A 2454   5.864   3.520   7.227  0.3392 -0.4159 -1.6156
   34CHL1   H7B 2455   5.964   3.383   7.286 -0.5869  0.3008  0.6169
   34CHL1    C8 2456   6.062   3.578   7.308  0.5458 -0.3932 -0.0693
   34CHL1    H8 2457   6.029   3.682   7.285  0.2323 -0.4601  0.0630
   34CHL1   C14 2458   6.047   3.553   7.462  0.5335  0.8414 -0.2710
   34CHL1   H14 2459   6.080   3.447   7.472 -0.8424  0.3511 -0.7001
   34CHL1   C15 2460   5.898   3.536   7.531 -0.1933 -0.4537  0.3057
   34CHL1  H15A 2461   5.852   3.637   7.532 -1.3936 -0.9868  0.9663
   34CHL1  H15B 2462   5.823   3.463   7.493 -1.4920  0.8735  0.2327
   34CHL1   C16 2463   5.940   3.529   7.680  0.1634 -0.1776 -0.1769
   34CHL1  H16A 2464   5.868   3.591   7.737  0.1163  0.2892 -0.7300
   34CHL1  H16B 2465   5.931   3.424   7.716 -0.1272 -1.1482 -2.8679
   34CHL1   C17 2466   6.095   3.576   7.691  0.0120  0.5484 -0.1002
   34CHL1   H17 2467   6.147   3.480   7.709 -0.9452 -0.1000 -0.6599
   34CHL1   C13 2468   6.133   3.636   7.548 -0.7880  0.1926 -0.1571
   34CHL1   C18 2469   6.111   3.789   7.534  0.6029  0.9745 -0.5880
   34CHL1  H18A 2470   6.190   3.851   7.582  1.6004 -0.6226 -0.0929
   34CHL1  H18B 2471   6.102   3.819   7.427 -0.7649  1.9739 -0.2156
   34CHL1  H18C 2472   6.011   3.811   7.577 -0.3031 -3.0829 -0.1868
   34CHL1   C12 2473   6.282   3.613   7.506  0.4288  0.0553 -0.2176
   34CHL1  H12A 2474   6.351   3.673   7.569 -0.2318  0.0817  0.4798
   34CHL1  H12B 2475   6.304   3.506   7.523 -3.7643 -0.8332  0.5819
   34CHL1   C11 2476   6.308   3.637   7.357  0.0379  0.5903 -0.2046
   34CHL1  H11A 2477   6.284   3.745   7.342 -3.5750  0.0124  0.4164
   34CHL1  H11B 2478   6.413   3.608   7.335 -0.0790  0.3904 -0.5043
   34CHL1    C9 2479   6.205   3.568   7.260 -0.4443  0.5839  0.2375
   34CHL1    H9 2480   6.226   3.460   7.275  0.2461  0.9513  2.1942
   34CHL1   C10 2481   6.226   3.590   7.108  0.1113  0.6984 -0.2430
   34CHL1   C19 2482   6.218   3.736   7.083  0.1291 -0.2229  0.1796
   34CHL1  H19A 2483   6.290   3.799   7.140 -1.5884  1.0483  1.0275
   34CHL1  H19B 2484   6.239   3.754   6.975  1.5810 -2.2631  0.0689
   34CHL1  H19C 2485   6.115   3.772   7.099 -0.3810 -1.3912 -0.3864
   34CHL1    C1 2486   6.364   3.532   7.074  0.2615  0.8522  0.4974
   34CHL1   H1A 2487   6.452   3.584   7.119  1.5018 -0.5298 -0.2428
   34CHL1   H1B 2488   6.376   3.430   7.115  0.5275  0.7154  0.0795
   34CHL1    C2 2489   6.387   3.520   6.918  0.7662 -0.1205 -0.4426
   34CHL1   H2A 2490   6.487   3.479   6.890  1.3163  2.0136 -1.8762
   34CHL1   H2B 2491   6.389   3.624   6.879  1.1146  0.7990  1.8645
   34CHL1   C20 2492   6.123   3.664   7.815 -0.2262  0.5342  0.4318
   34CHL1   H20 2493   6.063   3.757   7.812  1.3939  1.5861 -0.8468
   34CHL1   C21 2494   6.274   3.696   7.824 -0.9634 -0.3746  0.6175
   34CHL1  H21A 2495   6.294   3.731   7.928  0.9154 -0.6521  0.3770
   34CHL1  H21B 2496   6.325   3.764   7.752  0.0213 -0.9062  0.7936
   34CHL1  H21C 2497   6.336   3.604   7.827  2.0171  1.4384 -0.8228
   34CHL1   C22 2498   6.082   3.599   7.952  0.1155  0.1496  0.3032
   34CHL1  H22A 2499   5.982   3.557   7.926  0.3680 -0.1239 -0.2444
   34CHL1  H22B 2500   6.158   3.519   7.966  3.1077  2.7781  0.1607
   34CHL1   C23 2501   6.078   3.690   8.080  0.4048 -1.0181  0.4187
   34CHL1  H23A 2502   6.184   3.712   8.105  0.0126 -0.7151  1.9071
   34CHL1  H23B 2503   6.024   3.787   8.074  2.8377  0.4047  0.0199
   34CHL1   C24 2504   6.013   3.615   8.188  0.4047 -0.5499  0.3531
   34CHL1  H24A 2505   5.993   3.688   8.269 -1.2095  0.1513 -0.6139
   34CHL1  H24B 2506   5.913   3.578   8.155  0.4376  1.4620 -2.3914
   34CHL1   C25 2507   6.082   3.486   8.248  0.1483  0.0975 -0.5764
   34CHL1   H25 2508   6.117   3.423   8.163  1.4936  0.9734 -0.7000
   34CHL1   C26 2509   6.205   3.527   8.324  0.0413  0.2193  0.5303
   34CHL1  H26A 2510   6.181   3.567   8.425 -0.8933  1.3314 -0.1017
   34CHL1  H26B 2511   6.265   3.435   8.340 -0.0001 -0.2106 -1.4860
   34CHL1  H26C 2512   6.266   3.600   8.267  0.4643 -0.6300 -0.1254
   34CHL1   C27 2513   5.988   3.401   8.337 -0.6611 -0.1424  0.1908
   34CHL1  H27A 2514   5.988   3.458   8.433 -1.8338  0.0216  0.1068
   34CHL1  H27B 2515   5.886   3.391   8.295 -0.7872 -1.2913  0.7245
   34CHL1  H27C 2516   6.030   3.299   8.348 -0.5901 -0.2050 -0.6525
   35CHL1    C3 2517   6.296   3.022   7.132 -0.4988 -0.4563 -0.0777
   35CHL1    H3 2518   6.235   2.934   7.162  0.8307 -0.5615  2.5702
   35CHL1    O3 2519   6.297   3.030   6.990 -0.0429 -0.4455 -0.4678
   35CHL1   H3' 2520   6.295   2.943   6.949 -1.2171  0.5165 -2.6059
   35CHL1    C4 2521   6.233   3.154   7.191  0.0844 -0.0333  0.2147
   35CHL1   H4A 2522   6.307   3.232   7.163  0.5469 -0.5105  0.0979
   35CHL1   H4B 2523   6.133   3.180   7.148 -0.4817  0.7085  1.9136
   35CHL1    C5 2524   6.247   3.157   7.342  0.2728 -0.2333 -0.3617
   35CHL1    C6 2525   6.139   3.181   7.416 -0.6090 -0.6410 -0.6222
   35CHL1    H6 2526   6.044   3.197   7.362  1.0722 -0.8081 -3.8370
   35CHL1    C7 2527   6.142   3.197   7.569  0.1207  0.0914  0.1180
   35CHL1   H7A 2528   6.103   3.299   7.590 -0.3640  0.0480 -0.5155
   35CHL1   H7B 2529   6.076   3.126   7.624  0.4284 -0.5781 -0.3745
   35CHL1    C8 2530   6.285   3.199   7.636  0.0770  0.0389 -0.0398
   35CHL1    H8 2531   6.323   3.303   7.625  1.9040 -0.6934 -1.0447
   35CHL1   C14 2532   6.270   3.149   7.781 -0.1179  0.0921  0.2659
   35CHL1   H14 2533   6.247   3.041   7.767 -1.1257  0.4694 -1.2176
   35CHL1   C15 2534   6.171   3.209   7.879  0.3599 -0.5165 -0.7734
   35CHL1  H15A 2535   6.147   3.315   7.857 -1.3614 -1.1226 -2.1053
   35CHL1  H15B 2536   6.074   3.155   7.873  1.1386 -2.1236  0.2940
   35CHL1   C16 2537   6.225   3.194   8.021 -0.2858  0.7547  0.1164
   35CHL1  H16A 2538   6.239   3.299   8.056 -0.4235 -0.0752  2.8809
   35CHL1  H16B 2539   6.161   3.149   8.100  0.5822  2.3964  1.8639
   35CHL1   C17 2540   6.361   3.119   7.997  0.1017 -0.5985  0.5260
   35CHL1   H17 2541   6.336   3.012   7.980 -2.4960  0.3071 -2.3071
   35CHL1   C13 2542   6.402   3.163   7.857  0.2399  0.0142  0.9297
   35CHL1   C18 2543   6.441   3.315   7.853 -0.9211  0.4153 -0.3443
   35CHL1  H18A 2544   6.518   3.328   7.932  0.8033  1.2489 -2.0873
   35CHL1  H18B 2545   6.501   3.335   7.762  2.0987 -0.6945  1.2646
   35CHL1  H18C 2546   6.365   3.387   7.889 -0.7409  0.4546 -0.0393
   35CHL1   C12 2547   6.506   3.072   7.785  0.0028 -0.3262 -0.9735
   35CHL1  H12A 2548   6.607   3.096   7.822  0.0803 -1.8254 -0.1069
   35CHL1  H12B 2549   6.500   2.961   7.789 -0.1733 -0.3204 -1.0324
   35CHL1   C11 2550   6.510   3.105   7.636  0.0138 -0.1639 -0.1781
   35CHL1  H11A 2551   6.564   3.202   7.627  2.1716 -1.1947  0.9338
   35CHL1  H11B 2552   6.580   3.030   7.594 -0.0728  0.1818 -0.9436
   35CHL1    C9 2553   6.375   3.103   7.563  0.3111 -0.3099  0.1121
   35CHL1    H9 2554   6.320   3.008   7.577  0.5672 -0.1928  2.2146
   35CHL1   C10 2555   6.382   3.130   7.408 -0.2917  0.3239  0.1580
   35CHL1   C19 2556   6.480   3.247   7.375 -0.5696  0.6448  0.3300
   35CHL1  H19A 2557   6.456   3.337   7.436  0.4627  1.4428 -0.3980
   35CHL1  H19B 2558   6.586   3.219   7.394 -1.3222 -2.3754  0.4827
   35CHL1  H19C 2559   6.486   3.263   7.265  2.2126  0.1225  0.3273
   35CHL1    C1 2560   6.440   3.002   7.337  0.1255 -0.4307 -0.2168
   35CHL1   H1A 2561   6.541   2.975   7.376 -0.2765  0.2576  1.3749
   35CHL1   H1B 2562   6.374   2.920   7.373 -2.3766  1.1501 -0.9383
   35CHL1    C2 2563   6.438   2.995   7.184 -0.1221  0.3921 -0.6269
   35CHL1   H2A 2564   6.479   2.897   7.152 -1.0254  0.1565 -1.1224
   35CHL1   H2B 2565   6.502   3.074   7.139  0.8230  1.2443  2.0364
   35CHL1   C20 2566   6.460   3.130   8.106 -0.3792  0.6815 -0.1910
   35CHL1   H20 2567   6.521   3.221   8.094 -1.1766  1.0111 -2.1786
   35CHL1   C21 2568   6.553   3.004   8.115 -0.2298 -0.2272 -0.2360
   35CHL1  H21A 2569   6.599   2.995   8.014 -0.4698  1.0045 -0.4729
   35CHL1  H21B 2570   6.492   2.912   8.124  2.9039 -2.4925 -0.4842
   35CHL1  H21C 2571   6.631   3.014   8.194 -0.4895  0.6886 -0.0817
   35CHL1   C22 2572   6.388   3.151   8.245  0.4905 -0.3233 -0.0116
   35CHL1  H22A 2573   6.322   3.240   8.242 -1.8489 -1.9233  0.7280
   35CHL1  H22B 2574   6.331   3.058   8.271 -1.3426  1.0115  0.9607
   35CHL1   C23 2575   6.480   3.169   8.361 -0.3634  0.4074  0.3017
   35CHL1  H23A 2576   6.544   3.080   8.376 -1.3166 -0.5975 -1.3222
   35CHL1  H23B 2577   6.550   3.251   8.335  1.1245 -1.1815 -0.9139
   35CHL1   C24 2578   6.408   3.222   8.484  0.6671  0.3038 -0.4093
   35CHL1  H24A 2579   6.356   3.319   8.469  0.6165  0.3992  0.3503
   35CHL1  H24B 2580   6.323   3.150   8.491  0.8342  0.2881  2.0106
   35CHL1   C25 2581   6.488   3.216   8.615  0.9807  0.1539 -0.6481
   35CHL1   H25 2582   6.547   3.123   8.631  0.5424  0.2900  2.2364
   35CHL1   C26 2583   6.599   3.318   8.606  0.3598  0.0492 -0.5858
   35CHL1  H26A 2584   6.661   3.307   8.514 -0.5224 -0.9592 -1.0865
   35CHL1  H26B 2585   6.563   3.423   8.610  0.4907  0.1711 -1.9693
   35CHL1  H26C 2586   6.660   3.311   8.698 -0.8058  0.1740  0.2134
   35CHL1   C27 2587   6.395   3.234   8.736 -0.0185 -0.2862  0.2937
   35CHL1  H27A 2588   6.333   3.144   8.758  0.4201  0.2348  4.4479
   35CHL1  H27B 2589   6.327   3.318   8.709  0.8954 -0.5622 -3.3002
   35CHL1  H27C 2590   6.462   3.256   8.822 -0.8716 -1.0394  1.1809
   36CHL1    C3 2591   5.342   3.543   6.697 -0.8601  0.1172 -0.2012
   36CHL1    H3 2592   5.326   3.436   6.719 -0.1285 -0.4239 -2.1300
   36CHL1    O3 2593   5.339   3.564   6.560 -0.7105  0.4237 -0.3831
   36CHL1   H3' 2594   5.422   3.526   6.528 -0.9916  0.8421 -1.6949
   36CHL1    C4 2595   5.239   3.626   6.764  0.6948 -0.3069 -0.0356
   36CHL1   H4A 2596   5.266   3.732   6.744 -0.2434  0.1276  0.8871
   36CHL1   H4B 2597   5.139   3.613   6.717  1.8032  0.2256 -2.7509
   36CHL1    C5 2598   5.239   3.602   6.917  1.0386  0.2734  0.4262
   36CHL1    C6 2599   5.126   3.556   6.972  0.5576 -0.0779  0.1942
   36CHL1    H6 2600   5.035   3.547   6.911  1.4416 -0.6885 -1.0610
   36CHL1    C7 2601   5.112   3.532   7.122 -0.9909 -0.1891  0.3464
   36CHL1   H7A 2602   5.023   3.582   7.167 -0.5801  1.0710 -0.1856
   36CHL1   H7B 2603   5.097   3.425   7.148 -1.1820 -0.3201 -0.2863
   36CHL1    C8 2604   5.231   3.602   7.200  0.6667 -0.2110 -1.0045
   36CHL1    H8 2605   5.223   3.712   7.207  2.8504 -0.0785  0.8735
   36CHL1   C14 2606   5.237   3.555   7.350  0.3350 -0.0030 -0.4057
   36CHL1   H14 2607   5.242   3.446   7.329 -1.4277  0.1770 -2.0217
   36CHL1   C15 2608   5.115   3.572   7.445 -0.5408  0.6128 -0.1535
   36CHL1  H15A 2609   5.091   3.679   7.428 -2.3597  0.1786 -0.4991
   36CHL1  H15B 2610   5.025   3.514   7.415 -0.5079 -0.4216  1.6439
   36CHL1   C16 2611   5.169   3.526   7.580  0.4284 -0.4466 -0.4179
   36CHL1  H16A 2612   5.134   3.599   7.656  3.1742  0.5975 -0.0374
   36CHL1  H16B 2613   5.125   3.428   7.608 -1.0706  0.1135 -0.7311
   36CHL1   C17 2614   5.324   3.528   7.573  0.3582  0.2815  0.0426
   36CHL1   H17 2615   5.340   3.418   7.569 -2.2057 -0.1571  0.3700
   36CHL1   C13 2616   5.355   3.599   7.432  0.5950  1.1288  0.0043
   36CHL1   C18 2617   5.347   3.751   7.464 -0.3834 -0.5917  0.1238
   36CHL1  H18A 2618   5.266   3.770   7.539 -2.0214  1.3565 -1.9998
   36CHL1  H18B 2619   5.439   3.793   7.510  0.6217 -2.8279  0.2807
   36CHL1  H18C 2620   5.348   3.816   7.374  0.9771  1.6385  1.6421
   36CHL1   C12 2621   5.483   3.561   7.358  0.1770 -0.2584  0.3973
   36CHL1  H12A 2622   5.571   3.600   7.413 -0.8927 -0.5670  2.3951
   36CHL1  H12B 2623   5.499   3.451   7.354  0.4556 -0.3255  2.5741
   36CHL1   C11 2624   5.490   3.606   7.213  0.1038 -1.0674  0.3976
   36CHL1  H11A 2625   5.490   3.715   7.234  0.4761 -1.3270  1.9244
   36CHL1  H11B 2626   5.587   3.579   7.166  0.2278 -0.0321  0.0378
   36CHL1    C9 2627   5.364   3.564   7.130  0.2634 -0.5509 -0.2580
   36CHL1    H9 2628   5.368   3.453   7.136  2.7810 -0.5337 -0.4972
   36CHL1   C10 2629   5.374   3.615   6.991 -0.1301 -0.7697 -0.2619
   36CHL1   C19 2630   5.405   3.763   7.007  0.4052 -1.1066 -0.3039
   36CHL1  H19A 2631   5.410   3.811   6.907 -1.6611 -0.3059 -0.0847
   36CHL1  H19B 2632   5.340   3.828   7.071  0.3241  1.2748 -2.6204
   36CHL1  H19C 2633   5.509   3.772   7.045  0.0678 -1.9711  0.8769
   36CHL1    C1 2634   5.487   3.553   6.914 -0.4911 -0.2909  0.4138
   36CHL1   H1A 2635   5.593   3.575   6.942 -1.2375  2.6543  1.2463
   36CHL1   H1B 2636   5.471   3.443   6.916 -1.0236 -0.2080  1.0609
   36CHL1    C2 2637   5.481   3.585   6.761  0.7115  0.0623  0.6294
   36CHL1   H2A 2638   5.563   3.532   6.707 -0.4068 -0.1305 -0.9801
   36CHL1   H2B 2639   5.495   3.695   6.751  0.3833  0.0044 -0.7260
   36CHL1   C20 2640   5.392   3.569   7.699  0.1195  0.2249  0.4484
   36CHL1   H20 2641   5.382   3.678   7.721  1.5226  0.1972  1.3264
   36CHL1   C21 2642   5.541   3.522   7.686 -0.3486 -0.2300  0.0095
   36CHL1  H21A 2643   5.599   3.532   7.780  0.5426  0.3538 -0.5937
   36CHL1  H21B 2644   5.588   3.593   7.614  0.0070  1.1155  1.5164
   36CHL1  H21C 2645   5.552   3.423   7.637 -0.4130 -1.6396  2.6287
   36CHL1   C22 2646   5.317   3.500   7.825  0.5790  0.6524  0.0499
   36CHL1  H22A 2647   5.215   3.543   7.833  0.7743  1.4214 -1.2542
   36CHL1  H22B 2648   5.315   3.390   7.809  3.9797  0.4804  0.1074
   36CHL1   C23 2649   5.386   3.527   7.960  0.0700 -0.9935 -0.8884
   36CHL1  H23A 2650   5.337   3.475   8.045  4.2127  0.7234  2.9694
   36CHL1  H23B 2651   5.493   3.499   7.967  0.2879  0.0811  3.5692
   36CHL1   C24 2652   5.371   3.679   8.012  0.2884  0.1146  0.2475
   36CHL1  H24A 2653   5.430   3.751   7.951 -0.0223  0.1004 -0.0723
   36CHL1  H24B 2654   5.265   3.708   7.999  0.0358 -0.5060  0.8844
   36CHL1   C25 2655   5.416   3.698   8.159  0.1345  0.2433  0.1322
   36CHL1   H25 2656   5.377   3.613   8.220 -2.1664 -0.9990 -2.8351
   36CHL1   C26 2657   5.567   3.682   8.178  0.1130 -0.2893  0.5858
   36CHL1  H26A 2658   5.606   3.595   8.121  0.1715 -0.2947  0.6346
   36CHL1  H26B 2659   5.616   3.774   8.141  1.1555 -0.5634  1.2736
   36CHL1  H26C 2660   5.593   3.670   8.285 -0.6057  1.6678  1.0252
   36CHL1   C27 2661   5.381   3.837   8.200  0.0223 -0.4803  0.0028
   36CHL1  H27A 2662   5.274   3.857   8.221  0.1680  1.6845 -1.0701
   36CHL1  H27B 2663   5.426   3.858   8.299 -0.2115 -1.1708  0.2610
   36CHL1  H27C 2664   5.418   3.918   8.134  2.0488  0.0565  1.7025
   37CHL1    C3 2665   0.182   5.061   6.884 -0.3210  0.1881 -0.6689
   37CHL1    H3 2666   0.149   4.956   6.892 -0.8899  0.4845  1.5111
   37CHL1    O3 2667   0.195   5.097   6.749 -0.6458  0.0448 -0.1033
   37CHL1   H3' 2668   0.255   5.033   6.710 -1.0144 -0.0166 -0.5749
   37CHL1    C4 2669   0.082   5.151   6.961 -0.3110 -0.9105 -0.3582
   37CHL1   H4A 2670   0.099   5.260   6.946  0.2733 -0.8006  0.9218
   37CHL1   H4B 2671  -0.015   5.126   6.913  0.2836 -3.1167 -0.5088
   37CHL1    C5 2672   0.079   5.124   7.110 -0.0250  0.0889 -0.6347
   37CHL1    C6 2673  -0.042   5.095   7.169  0.9773  0.3926  0.2635
   37CHL1    H6 2674  -0.134   5.094   7.107  0.9651 -1.1476  0.2581
   37CHL1    C7 2675  -0.066   5.083   7.318  0.5562  0.0518 -0.4969
   37CHL1   H7A 2676  -0.139   5.159   7.353  1.0228  0.0630  0.4710
   37CHL1   H7B 2677  -0.091   4.979   7.346  3.3696 -0.3960  0.6776
   37CHL1    C8 2678   0.068   5.117   7.400  0.1172  0.4057  0.9612
   37CHL1    H8 2679   0.076   5.227   7.402 -0.9169  0.5865 -1.3293
   37CHL1   C14 2680   0.049   5.053   7.537  0.1121  0.2917  0.5107
   37CHL1   H14 2681   0.058   4.943   7.532  2.0396  0.2035  3.2322
   37CHL1   C15 2682  -0.081   5.075   7.615  0.1776  0.1339 -0.5224
   37CHL1  H15A 2683  -0.124   5.177   7.606 -0.3583 -0.1824 -1.8601
   37CHL1  H15B 2684  -0.167   5.005   7.605  0.3103 -0.6503  2.7219
   37CHL1   C16 2685  -0.041   5.046   7.770  0.7997 -0.4598 -0.1077
   37CHL1  H16A 2686  -0.060   5.143   7.822  2.8582 -0.0025 -0.0960
   37CHL1  H16B 2687  -0.094   4.959   7.813  0.2193  0.4351  1.0400
   37CHL1   C17 2688   0.114   5.021   7.770 -0.7621  1.1895  0.1072
   37CHL1   H17 2689   0.124   4.911   7.775  0.1447  1.2978  1.3569
   37CHL1   C13 2690   0.168   5.078   7.640 -0.2065 -0.4422  1.3532
   37CHL1   C18 2691   0.183   5.234   7.655 -0.6302  0.0045  0.3428
   37CHL1  H18A 2692   0.085   5.277   7.685 -0.7025  0.2225 -0.2068
   37CHL1  H18B 2693   0.267   5.255   7.725  1.0916  0.3826 -1.7605
   37CHL1  H18C 2694   0.196   5.275   7.553 -2.7990 -0.2649 -0.0836
   37CHL1   C12 2695   0.292   5.007   7.570  0.0294 -0.0982 -0.1634
   37CHL1  H12A 2696   0.388   5.019   7.624 -0.2587 -3.4713  1.3503
   37CHL1  H12B 2697   0.289   4.897   7.583 -0.0557 -0.1194 -0.3525
   37CHL1   C11 2698   0.316   5.049   7.426 -0.3716 -0.6360 -0.1827
   37CHL1  H11A 2699   0.348   5.154   7.410  1.1636 -1.1228 -0.4467
   37CHL1  H11B 2700   0.396   4.988   7.379  0.7165 -1.1794  2.2414
   37CHL1    C9 2701   0.196   5.050   7.327  0.3048  0.0882 -0.2280
   37CHL1    H9 2702   0.174   4.945   7.298  1.7796  0.7016 -4.1670
   37CHL1   C10 2703   0.212   5.121   7.192  0.6411  0.0685 -0.1416
   37CHL1   C19 2704   0.274   5.270   7.210 -0.2296  0.6241  0.2887
   37CHL1  H19A 2705   0.218   5.331   7.284 -0.6727  0.9101 -0.2753
   37CHL1  H19B 2706   0.376   5.269   7.255 -0.7355 -3.5195  1.8341
   37CHL1  H19C 2707   0.268   5.323   7.113  3.6041 -0.2512 -0.6052
   37CHL1    C1 2708   0.310   5.033   7.111  0.4124  0.0152 -0.0465
   37CHL1   H1A 2709   0.407   5.030   7.165 -0.8240 -0.2316  2.2642
   37CHL1   H1B 2710   0.261   4.934   7.108 -3.0469  1.5579  0.5143
   37CHL1    C2 2711   0.323   5.072   6.961 -0.1413  0.0996  0.6605
   37CHL1   H2A 2712   0.398   5.007   6.911  0.4892  2.0479 -1.0672
   37CHL1   H2B 2713   0.357   5.177   6.948 -2.0736  0.8663  1.4314
   37CHL1   C20 2714   0.187   5.054   7.907 -0.4120 -0.9757 -0.2647
   37CHL1   H20 2715   0.163   5.162   7.919 -1.0375 -1.0153 -1.0631
   37CHL1   C21 2716   0.340   5.040   7.906 -0.0726 -0.2185  0.2432
   37CHL1  H21A 2717   0.355   4.935   7.872 -4.4378 -1.2712  1.0550
   37CHL1  H21B 2718   0.386   5.046   8.008  2.3803  0.0630 -0.7967
   37CHL1  H21C 2719   0.398   5.104   7.837  1.0130 -2.8138 -1.3969
   37CHL1   C22 2720   0.116   4.990   8.025  0.5781 -0.1569 -1.2566
   37CHL1  H22A 2721   0.007   5.013   8.024  0.5534  0.4584  2.2245
   37CHL1  H22B 2722   0.123   4.881   8.006 -0.5507  0.1732 -4.1212
   37CHL1   C23 2723   0.145   5.042   8.171 -0.2018  0.1456  0.0810
   37CHL1  H23A 2724   0.069   4.990   8.233 -1.5392  0.7286 -1.0098
   37CHL1  H23B 2725   0.249   5.021   8.204 -0.1458 -1.1007 -0.8016
   37CHL1   C24 2726   0.120   5.198   8.185 -0.2374  0.0119 -0.5646
   37CHL1  H24A 2727   0.203   5.259   8.143  0.1185  0.4398  0.7109
   37CHL1  H24B 2728   0.035   5.224   8.119 -0.1769  1.3373 -0.1438
   37CHL1   C25 2729   0.080   5.249   8.328  0.1229  1.0014  0.3474
   37CHL1   H25 2730   0.002   5.174   8.353  2.4180 -1.7236 -0.2015
   37CHL1   C26 2731   0.193   5.229   8.425  0.0227 -0.3733  0.1040
   37CHL1  H26A 2732   0.249   5.136   8.404 -1.6217 -1.5974  0.9138
   37CHL1  H26B 2733   0.262   5.313   8.399 -0.5105 -0.0490 -0.3041
   37CHL1  H26C 2734   0.159   5.239   8.530  0.0449 -1.1812  0.1907
   37CHL1   C27 2735   0.018   5.389   8.339 -0.4144  0.6088  0.1888
   37CHL1  H27A 2736   0.097   5.467   8.339  0.4100 -0.1551 -1.7144
   37CHL1  H27B 2737  -0.059   5.415   8.263 -0.9341 -1.7943 -0.1809
   37CHL1  H27C 2738  -0.030   5.409   8.437  1.5077 -1.0945  1.5775
   38CHL1    C3 2739   6.755   6.066   6.745 -0.1790 -0.2532 -0.1791
   38CHL1    H3 2740   6.775   5.957   6.758  0.7435  0.1266  1.9726
   38CHL1    O3 2741   6.739   6.104   6.609 -0.8389 -0.5306  0.2098
   38CHL1   H3' 2742   6.816   6.062   6.569  0.2042  1.0160  0.5226
   38CHL1    C4 2743   6.625   6.095   6.818  0.3240  0.1245  0.1491
   38CHL1   H4A 2744   6.592   6.200   6.806  1.2829  0.1652 -3.0678
   38CHL1   H4B 2745   6.550   6.026   6.773  0.7518  1.2948 -2.5896
   38CHL1    C5 2746   6.640   6.074   6.972  0.1078  0.1812  0.0830
   38CHL1    C6 2747   6.559   5.985   7.033 -0.7335 -0.0512  0.9837
   38CHL1    H6 2748   6.487   5.929   6.972 -0.0716  0.0929  0.0583
   38CHL1    C7 2749   6.574   5.960   7.178  0.1496  0.0848 -0.5842
   38CHL1   H7A 2750   6.475   5.944   7.227  0.0721  0.3067 -0.6670
   38CHL1   H7B 2751   6.637   5.871   7.197  0.3837  0.3338 -0.1800
   38CHL1    C8 2752   6.653   6.075   7.262  0.2289 -0.5053  0.6841
   38CHL1    H8 2753   6.597   6.171   7.272  0.2494 -0.4709  0.4688
   38CHL1   C14 2754   6.681   6.024   7.399  0.4783 -0.5802 -0.2691
   38CHL1   H14 2755   6.747   5.935   7.389  1.8429  0.0111  2.4927
   38CHL1   C15 2756   6.562   5.976   7.487  0.1296 -0.4337  0.3154
   38CHL1  H15A 2757   6.488   6.058   7.489  0.0402 -0.4088 -1.9512
   38CHL1  H15B 2758   6.522   5.883   7.441  1.7783 -0.8794 -0.3027
   38CHL1   C16 2759   6.627   5.958   7.628 -0.2611 -0.5226  0.0301
   38CHL1  H16A 2760   6.556   5.987   7.708  1.1625 -0.1969  1.1993
   38CHL1  H16B 2761   6.640   5.848   7.641 -2.6283 -0.8545  0.0266
   38CHL1   C17 2762   6.763   6.039   7.617 -0.2915 -0.6283  0.7420
   38CHL1   H17 2763   6.840   5.962   7.595  1.6735  0.9694  1.7348
   38CHL1   C13 2764   6.762   6.118   7.489 -0.3501 -0.1349 -0.4489
   38CHL1   C18 2765   6.673   6.242   7.517 -0.1287 -0.2586  0.4117
   38CHL1  H18A 2766   6.575   6.227   7.567 -0.4285  0.0037 -0.0848
   38CHL1  H18B 2767   6.731   6.322   7.567  0.7673  0.9651 -2.3545
   38CHL1  H18C 2768   6.659   6.290   7.418  1.9401  1.1048  0.7213
   38CHL1   C12 2769   6.893   6.149   7.414  0.3861  0.8591 -0.5329
   38CHL1  H12A 2770   6.959   6.217   7.472 -0.7734 -0.1064  2.0958
   38CHL1  H12B 2771   6.959   6.059   7.410 -1.5726 -0.8902  2.2345
   38CHL1   C11 2772   6.875   6.207   7.276 -0.6261 -0.2278  0.2812
   38CHL1  H11A 2773   6.842   6.313   7.280 -0.2260 -0.1374  1.4896
   38CHL1  H11B 2774   6.980   6.210   7.238  0.1976 -3.2640  1.9543
   38CHL1    C9 2775   6.785   6.120   7.188 -0.2749  1.0626 -0.0184
   38CHL1    H9 2776   6.837   6.023   7.179 -2.0343  0.1939 -1.3799
   38CHL1   C10 2777   6.758   6.158   7.035 -0.0983 -0.3262 -0.1772
   38CHL1   C19 2778   6.726   6.310   7.036 -0.1946  0.0839  0.6102
   38CHL1  H19A 2779   6.635   6.330   7.097 -0.1960 -0.1108  0.6741
   38CHL1  H19B 2780   6.812   6.369   7.074  2.1988 -2.5007 -0.3945
   38CHL1  H19C 2781   6.704   6.357   6.938  1.9010 -2.9436 -1.5127
   38CHL1    C1 2782   6.888   6.126   6.949 -0.1880  0.1023  0.5260
   38CHL1   H1A 2783   6.974   6.190   6.978  0.1899 -0.0416 -0.2420
   38CHL1   H1B 2784   6.921   6.023   6.972 -1.6976 -0.0816  2.0555
   38CHL1    C2 2785   6.869   6.145   6.798  0.9123  0.0599 -0.2424
   38CHL1   H2A 2786   6.964   6.113   6.750  0.5591 -0.9858 -0.2708
   38CHL1   H2B 2787   6.862   6.255   6.783  0.6819 -0.0537 -1.0107
   38CHL1   C20 2788   6.798   6.108   7.749  0.2397 -0.0983 -0.0994
   38CHL1   H20 2789   6.716   6.175   7.781  1.4790  1.0286  0.8717
   38CHL1   C21 2790   6.923   6.203   7.736 -0.0369  0.0051 -0.3125
   38CHL1  H21A 2791   7.001   6.154   7.674  0.7677  2.4951 -1.3920
   38CHL1  H21B 2792   6.952   6.224   7.842 -0.0088  1.1001 -0.5250
   38CHL1  H21C 2793   6.897   6.298   7.684 -0.6046  1.7884  2.9308
   38CHL1   C22 2794   6.824   6.000   7.860 -0.1669  0.2610  0.3519
   38CHL1  H22A 2795   6.746   5.922   7.858 -0.8455  0.7846  2.7506
   38CHL1  H22B 2796   6.922   5.952   7.841 -0.0758  0.2520  0.8269
   38CHL1   C23 2797   6.813   6.060   8.002  0.1079  0.0916 -0.5048
   38CHL1  H23A 2798   6.907   6.116   8.022  0.3331  1.0157 -3.6308
   38CHL1  H23B 2799   6.733   6.135   7.991 -2.4065 -2.3436 -0.0711
   38CHL1   C24 2800   6.781   5.962   8.112  0.0476 -0.7935  0.7642
   38CHL1  H24A 2801   6.672   5.943   8.114  0.0682 -1.7946 -2.3449
   38CHL1  H24B 2802   6.824   5.865   8.080  2.5554  0.7841 -1.0399
   38CHL1   C25 2803   6.827   6.021   8.251 -0.1226  0.1804  0.0435
   38CHL1   H25 2804   6.938   6.026   8.249 -0.1039 -0.4265 -1.3891
   38CHL1   C26 2805   6.765   6.157   8.285 -0.0124 -0.1197 -0.7289
   38CHL1  H26A 2806   6.655   6.151   8.298 -0.1017  1.0633 -0.8816
   38CHL1  H26B 2807   6.804   6.189   8.384  3.8294 -3.4535 -0.8907
   38CHL1  H26C 2808   6.789   6.235   8.210 -1.2246  0.6642 -0.3205
   38CHL1   C27 2809   6.787   5.904   8.350 -0.3444 -0.1957  0.5482
   38CHL1  H27A 2810   6.680   5.884   8.330 -0.2627  0.6983 -0.9328
   38CHL1  H27B 2811   6.843   5.808   8.342  0.5349  0.3278  0.2699
   38CHL1  H27C 2812   6.792   5.932   8.458 -0.2930  3.1884 -0.2113
   39CHL1    C3 2813   5.377   2.605   6.771  0.8857  0.2732 -0.0651
   39CHL1    H3 2814   5.335   2.502   6.764  2.6924 -0.4403 -1.0396
   39CHL1    O3 2815   5.374   2.661   6.639  0.2433  0.1814 -0.4461
   39CHL1   H3' 2816   5.441   2.609   6.595  0.1787 -0.0603 -0.2587
   39CHL1    C4 2817   5.290   2.693   6.859  0.6047  0.2588 -0.1638
   39CHL1   H4A 2818   5.294   2.800   6.826 -3.0305  0.0729 -1.5847
   39CHL1   H4B 2819   5.187   2.663   6.832  0.3550  1.4584 -0.6374
   39CHL1    C5 2820   5.298   2.685   7.009  0.4849  0.1722  0.3958
   39CHL1    C6 2821   5.193   2.665   7.080 -0.2670 -0.2323 -0.0945
   39CHL1    H6 2822   5.099   2.632   7.032  0.9977 -3.3835 -0.6758
   39CHL1    C7 2823   5.196   2.660   7.232  0.6210  0.4328  0.6755
   39CHL1   H7A 2824   5.137   2.746   7.270 -0.0189  0.3916 -0.1950
   39CHL1   H7B 2825   5.158   2.564   7.273  0.6235  0.8103  1.6007
   39CHL1    C8 2826   5.334   2.697   7.294  0.3440 -0.2876 -0.3336
   39CHL1    H8 2827   5.337   2.807   7.312  1.1963 -0.6304  1.8982
   39CHL1   C14 2828   5.339   2.633   7.434  0.9638  0.6512 -0.3755
   39CHL1   H14 2829   5.317   2.525   7.420 -0.0690  0.8775 -0.5655
   39CHL1   C15 2830   5.232   2.684   7.536 -0.4113  0.0857  0.1163
   39CHL1  H15A 2831   5.207   2.790   7.514  2.4952  1.0631  1.0771
   39CHL1  H15B 2832   5.135   2.632   7.524 -1.8658  2.4977  0.6872
   39CHL1   C16 2833   5.291   2.671   7.672 -0.6147 -0.0161 -0.0025
   39CHL1  H16A 2834   5.303   2.773   7.716 -0.8413  0.5422 -1.1907
   39CHL1  H16B 2835   5.232   2.599   7.733 -0.9720 -0.3130 -0.6936
   39CHL1   C17 2836   5.436   2.610   7.651 -1.0530  0.2370  0.5005
   39CHL1   H17 2837   5.412   2.504   7.628 -1.2154  0.0410  1.5538
   39CHL1   C13 2838   5.477   2.657   7.507 -0.2414  0.7948 -0.3855
   39CHL1   C18 2839   5.521   2.804   7.508 -0.2906  0.1919 -0.5238
   39CHL1  H18A 2840   5.447   2.861   7.568 -1.2716 -0.1873 -1.3462
   39CHL1  H18B 2841   5.621   2.825   7.552 -0.3399  1.6173 -1.0371
   39CHL1  H18C 2842   5.531   2.850   7.407  0.2600  0.2339 -0.4525
   39CHL1   C12 2843   5.579   2.574   7.423  0.0025 -0.1643 -0.3610
   39CHL1  H12A 2844   5.682   2.566   7.464 -0.2309  2.4635  0.9819
   39CHL1  H12B 2845   5.544   2.469   7.418  0.1367 -0.1702 -1.4213
   39CHL1   C11 2846   5.576   2.618   7.275 -0.9498 -0.0070 -0.6710
   39CHL1  H11A 2847   5.618   2.721   7.273 -1.6550  0.2897 -1.8385
   39CHL1  H11B 2848   5.636   2.539   7.226  0.1009  0.6155 -0.4140
   39CHL1    C9 2849   5.437   2.631   7.209 -0.4555  0.0534 -0.2328
   39CHL1    H9 2850   5.411   2.525   7.189 -0.0436 -0.2901  0.9513
   39CHL1   C10 2851   5.445   2.682   7.068 -0.1604 -0.8081 -0.2729
   39CHL1   C19 2852   5.520   2.810   7.050 -0.4583 -1.0463 -0.2605
   39CHL1  H19A 2853   5.501   2.872   6.960 -1.2346 -1.1981 -0.2123
   39CHL1  H19B 2854   5.486   2.884   7.126  1.4559  0.6080 -0.9255
   39CHL1  H19C 2855   5.628   2.790   7.056 -0.2420  0.1905  0.3850
   39CHL1    C1 2856   5.514   2.568   6.987 -0.2087  0.5047  0.0176
   39CHL1   H1A 2857   5.621   2.567   7.015 -0.4849  0.6936  1.1391
   39CHL1   H1B 2858   5.463   2.470   6.999 -0.8783  0.9839  1.2735
   39CHL1    C2 2859   5.511   2.604   6.835  0.0121  0.4233  0.3715
   39CHL1   H2A 2860   5.579   2.540   6.775  0.1963 -0.3817  1.4116
   39CHL1   H2B 2861   5.556   2.706   6.829  0.7635  0.1984  1.7406
   39CHL1   C20 2862   5.534   2.622   7.768 -0.3109  0.0912 -1.0146
   39CHL1   H20 2863   5.622   2.683   7.736  0.3331 -1.0903 -1.5529
   39CHL1   C21 2864   5.588   2.482   7.798  0.1493  0.5653 -0.2431
   39CHL1  H21A 2865   5.666   2.476   7.877 -1.5650  0.5813  1.5072
   39CHL1  H21B 2866   5.642   2.447   7.707 -0.1043  1.3856 -0.7173
   39CHL1  H21C 2867   5.500   2.422   7.828 -1.2843  2.9571  0.5933
   39CHL1   C22 2868   5.466   2.687   7.892 -0.3697  0.0525  0.1701
   39CHL1  H22A 2869   5.426   2.787   7.865  1.4836  0.3905 -1.5683
   39CHL1  H22B 2870   5.379   2.621   7.913 -1.9910  1.5929 -1.3737
   39CHL1   C23 2871   5.564   2.698   8.016 -0.3702 -0.0299 -0.4396
   39CHL1  H23A 2872   5.599   2.595   8.035 -2.4869 -0.8654 -0.7274
   39CHL1  H23B 2873   5.655   2.759   8.000  1.1938 -0.9676  3.6080
   39CHL1   C24 2874   5.490   2.752   8.144  0.3301 -0.1515 -0.3581
   39CHL1  H24A 2875   5.442   2.847   8.113  0.4344  0.3521  0.9384
   39CHL1  H24B 2876   5.409   2.684   8.177  0.3941  0.7373  1.8252
   39CHL1   C25 2877   5.577   2.783   8.260  0.0408  0.3781 -0.2655
   39CHL1   H25 2878   5.647   2.862   8.227 -1.5881  1.0401 -2.3945
   39CHL1   C26 2879   5.495   2.839   8.372  0.0198 -0.1476  0.2275
   39CHL1  H26A 2880   5.442   2.758   8.426 -0.6905 -0.7238 -1.2948
   39CHL1  H26B 2881   5.561   2.888   8.447  0.9261 -1.5058  0.3603
   39CHL1  H26C 2882   5.418   2.913   8.340 -1.2715 -0.8932  1.5139
   39CHL1   C27 2883   5.645   2.652   8.302  0.4347 -0.8936 -0.3584
   39CHL1  H27A 2884   5.703   2.610   8.217  0.1093 -1.8939 -0.0978
   39CHL1  H27B 2885   5.720   2.679   8.379  2.1786 -2.9735 -1.1953
   39CHL1  H27C 2886   5.567   2.577   8.327  0.3021 -0.9403 -0.8968
   40CHL1    C3 2887   1.854   3.448   6.801  1.1202 -0.8093 -0.3551
   40CHL1    H3 2888   1.754   3.482   6.837  1.8515  1.1690 -0.0880
   40CHL1    O3 2889   1.863   3.468   6.664 -0.0476 -0.0781  0.8337
   40CHL1   H3' 2890   1.792   3.526   6.634 -0.3894 -0.9543 -0.1081
   40CHL1    C4 2891   1.967   3.518   6.876 -0.7116 -0.2077  0.4306
   40CHL1   H4A 2892   2.068   3.491   6.837 -0.2627  2.7626 -0.7612
   40CHL1   H4B 2893   1.959   3.625   6.847  2.0198  0.6685  2.4879
   40CHL1    C5 2894   1.974   3.491   7.024  0.0313 -0.5382  0.0713
   40CHL1    C6 2895   1.968   3.590   7.118 -0.7460 -0.4980  0.0208
   40CHL1    H6 2896   1.947   3.692   7.082 -2.5029 -0.8434 -0.0498
   40CHL1    C7 2897   1.983   3.569   7.263 -0.0221  0.1429  0.9658
   40CHL1   H7A 2898   2.069   3.629   7.300  1.1609 -0.5032 -0.6678
   40CHL1   H7B 2899   1.892   3.605   7.317 -0.0648 -0.9295  1.6335
   40CHL1    C8 2900   2.027   3.418   7.299  0.2367  0.0772 -0.5388
   40CHL1    H8 2901   2.136   3.408   7.282 -0.0399  1.3141 -3.8684
   40CHL1   C14 2902   2.000   3.402   7.448 -0.7556  0.8598 -0.3478
   40CHL1   H14 2903   1.890   3.410   7.459 -0.7387 -0.6430  1.6703
   40CHL1   C15 2904   2.064   3.499   7.544  0.0866 -0.1777  0.7590
   40CHL1  H15A 2905   2.169   3.519   7.514 -0.0020 -0.1130  0.4921
   40CHL1  H15B 2906   2.007   3.594   7.560  1.0704  0.6773 -0.6488
   40CHL1   C16 2907   2.066   3.428   7.681 -0.7741  0.0855 -0.3046
   40CHL1  H16A 2908   2.173   3.409   7.701 -0.0171  2.3407 -1.8224
   40CHL1  H16B 2909   2.016   3.487   7.761  0.7435  1.9209 -0.6391
   40CHL1   C17 2910   2.005   3.280   7.652 -0.2014 -0.8229 -0.0550
   40CHL1   H17 2911   1.896   3.293   7.668 -0.0658  2.7114 -1.0840
   40CHL1   C13 2912   2.028   3.269   7.499  0.3931 -0.3709  0.3014
   40CHL1   C18 2913   2.181   3.232   7.466  0.1314  0.1829  0.1227
   40CHL1  H18A 2914   2.220   3.144   7.521  1.4001  0.5778 -0.1080
   40CHL1  H18B 2915   2.181   3.202   7.359 -2.9284 -0.5946  0.2351
   40CHL1  H18C 2916   2.250   3.317   7.487  1.7246 -1.5293  2.2788
   40CHL1   C12 2917   1.930   3.171   7.421 -0.0500  0.9608  0.1216
   40CHL1  H12A 2918   1.952   3.066   7.450 -0.0574  0.7213 -0.7116
   40CHL1  H12B 2919   1.828   3.189   7.461 -0.5008 -2.4430  0.7946
   40CHL1   C11 2920   1.936   3.179   7.270 -0.2085  0.0778  0.1976
   40CHL1  H11A 2921   2.016   3.112   7.233 -0.4404 -1.0531  1.6758
   40CHL1  H11B 2922   1.847   3.125   7.231  0.5721 -0.4975 -0.8502
   40CHL1    C9 2923   1.940   3.324   7.213  0.2324 -0.2474 -0.1493
   40CHL1    H9 2924   1.836   3.359   7.230  0.5572  0.0855  1.2154
   40CHL1   C10 2925   1.961   3.338   7.062 -0.1460 -0.2783 -0.1127
   40CHL1   C19 2926   2.093   3.269   7.032 -0.1961 -0.3711  0.1102
   40CHL1  H19A 2927   2.084   3.162   7.003  1.6164  0.2138 -3.0911
   40CHL1  H19B 2928   2.144   3.309   6.941 -0.5927  0.6165  0.3021
   40CHL1  H19C 2929   2.161   3.266   7.119 -0.2774  2.0573  0.3262
   40CHL1    C1 2930   1.850   3.267   6.978 -0.7803 -0.3586 -0.4119
   40CHL1   H1A 2931   1.861   3.160   7.005  2.2748 -0.4998 -1.7800
   40CHL1   H1B 2932   1.753   3.306   7.015  0.7395  1.7971  1.5933
   40CHL1    C2 2933   1.853   3.299   6.828 -0.1469 -0.2461 -0.7490
   40CHL1   H2A 2934   1.765   3.252   6.779 -0.3095 -0.3363 -0.3729
   40CHL1   H2B 2935   1.949   3.260   6.789  1.0991 -1.2606  2.9262
   40CHL1   C20 2936   2.075   3.177   7.749 -0.2409  0.2865 -0.8285
   40CHL1   H20 2937   2.182   3.181   7.719  0.5431  2.3703  1.8923
   40CHL1   C21 2938   2.012   3.038   7.727  0.4064  0.2133 -0.7976
   40CHL1  H21A 2939   2.032   3.000   7.624 -0.1795 -1.9114 -0.1721
   40CHL1  H21B 2940   1.902   3.041   7.739  0.4975  0.3763  0.0419
   40CHL1  H21C 2941   2.044   2.971   7.810  0.8934  0.3247 -0.8917
   40CHL1   C22 2942   2.071   3.215   7.898 -0.0006 -0.0587  0.6829
   40CHL1  H22A 2943   2.136   3.145   7.955  2.2283  0.5995 -0.8860
   40CHL1  H22B 2944   2.128   3.308   7.918  2.2549 -1.2908  0.3490
   40CHL1   C23 2945   1.936   3.247   7.962  0.2573  0.6096 -0.6169
   40CHL1  H23A 2946   1.889   3.338   7.918 -0.6628  0.2578 -0.3778
   40CHL1  H23B 2947   1.878   3.156   7.938  2.7312 -0.7606 -1.8005
   40CHL1   C24 2948   1.944   3.278   8.114 -0.1952 -0.0615  0.0955
   40CHL1  H24A 2949   1.974   3.185   8.166 -0.9718 -0.5172 -0.2517
   40CHL1  H24B 2950   2.014   3.365   8.122 -1.9322  1.6572 -2.0075
   40CHL1   C25 2951   1.809   3.323   8.184  0.3893  0.1673 -0.5503
   40CHL1   H25 2952   1.762   3.407   8.129  0.7028 -1.0306 -2.7697
   40CHL1   C26 2953   1.702   3.215   8.187  0.1612  0.0462  0.3730
   40CHL1  H26A 2954   1.610   3.255   8.236 -0.0149  1.2549 -0.8814
   40CHL1  H26B 2955   1.672   3.190   8.083  3.2473 -1.9101 -0.1631
   40CHL1  H26C 2956   1.748   3.123   8.228  1.2563  0.5963  0.4272
   40CHL1   C27 2957   1.836   3.368   8.329  0.0799  0.4789 -0.6681
   40CHL1  H27A 2958   1.883   3.285   8.385 -0.8840  0.2145 -0.2190
   40CHL1  H27B 2959   1.908   3.452   8.321 -0.4847  0.8765 -1.8542
   40CHL1  H27C 2960   1.744   3.401   8.382 -0.2002 -0.1308 -0.7679
   41CHL1    C3 2961   2.074   3.884   6.759 -0.7423 -0.0135 -0.1406
   41CHL1    H3 2962   2.002   3.801   6.774 -0.4649 -0.1898  0.2300
   41CHL1    O3 2963   2.086   3.896   6.618 -0.9638  0.3167  0.3404
   41CHL1   H3' 2964   2.097   3.805   6.589  1.0260  0.5372  0.2764
   41CHL1    C4 2965   2.032   4.013   6.828 -0.0657 -0.5933  0.3555
   41CHL1   H4A 2966   2.082   4.103   6.787  0.2067 -0.6571  0.5461
   41CHL1   H4B 2967   1.925   4.032   6.803  0.7256  1.8081 -1.5159
   41CHL1    C5 2968   2.047   4.016   6.976  0.2162  0.1005 -0.1380
   41CHL1    C6 2969   1.940   4.053   7.050  0.2647  0.2560 -0.9187
   41CHL1    H6 2970   1.845   4.079   7.002 -0.4179 -2.0866 -0.9907
   41CHL1    C7 2971   1.940   4.057   7.198 -0.0139 -0.0412 -0.7231
   41CHL1   H7A 2972   1.902   4.158   7.226  1.6335  1.3068 -3.0037
   41CHL1   H7B 2973   1.875   3.976   7.238  0.4931  0.0849  0.3955
   41CHL1    C8 2974   2.083   4.030   7.253  0.0195  0.1504 -0.0495
   41CHL1    H8 2975   2.130   4.130   7.248 -0.3694  0.3102 -0.5216
   41CHL1   C14 2976   2.065   4.005   7.399 -1.0901  0.3494 -0.7216
   41CHL1   H14 2977   1.999   3.919   7.422 -1.8677  1.1448  0.1112
   41CHL1   C15 2978   1.987   4.120   7.479  0.0020  0.7233 -0.5921
   41CHL1  H15A 2979   2.014   4.215   7.428 -1.2284  1.6009  0.3583
   41CHL1  H15B 2980   1.879   4.093   7.473  0.3561 -1.8643  2.1681
   41CHL1   C16 2981   2.038   4.086   7.623 -1.1954 -0.1945 -0.2526
   41CHL1  H16A 2982   2.080   4.177   7.670 -2.4524 -1.0954  2.8919
   41CHL1  H16B 2983   1.964   4.051   7.698  0.1981  0.3224  1.4239
   41CHL1   C17 2984   2.145   3.972   7.617 -0.4841  0.0910  0.2903
   41CHL1   H17 2985   2.106   3.868   7.621  0.8638 -0.4354  0.0384
   41CHL1   C13 2986   2.202   3.980   7.466  0.0994 -0.2197  0.3623
   41CHL1   C18 2987   2.296   4.102   7.463  0.7276  0.1721 -0.5405
   41CHL1  H18A 2988   2.394   4.082   7.513 -1.0866  1.4022  4.0613
   41CHL1  H18B 2989   2.324   4.147   7.366  1.7131  2.2043  0.6365
   41CHL1  H18C 2990   2.255   4.187   7.521 -1.7308 -1.5907  0.5018
   41CHL1   C12 2991   2.271   3.856   7.406  0.1281 -0.4033  0.4392
   41CHL1  H12A 2992   2.371   3.852   7.455 -0.8918  0.8952  2.7932
   41CHL1  H12B 2993   2.206   3.769   7.429 -1.5779  0.5217 -0.6750
   41CHL1   C11 2994   2.291   3.877   7.257  0.4757 -0.7183 -0.2089
   41CHL1  H11A 2995   2.381   3.941   7.240  1.0413 -1.8396 -1.5988
   41CHL1  H11B 2996   2.321   3.781   7.210  0.7380 -0.4737 -0.5535
   41CHL1    C9 2997   2.161   3.921   7.190 -0.2097  0.3342  0.4961
   41CHL1    H9 2998   2.090   3.836   7.198  0.0241  0.0817 -0.0426
   41CHL1   C10 2999   2.180   3.952   7.036  0.2934 -0.5562 -0.3150
   41CHL1   C19 3000   2.300   4.058   7.010 -0.5556  0.1911  0.3445
   41CHL1  H19A 3001   2.292   4.127   7.097  0.0387  1.6195 -0.6951
   41CHL1  H19B 3002   2.399   4.008   7.003  0.1074  1.5981 -0.8585
   41CHL1  H19C 3003   2.288   4.111   6.913  1.5055 -1.3331 -0.8262
   41CHL1    C1 3004   2.217   3.825   6.958 -0.3542  0.3400 -1.0060
   41CHL1   H1A 3005   2.323   3.804   6.983  0.0352  2.4511 -0.6231
   41CHL1   H1B 3006   2.154   3.740   6.991  0.4160  0.3401  0.5683
   41CHL1    C2 3007   2.207   3.840   6.804 -0.5768 -0.1982 -0.3471
   41CHL1   H2A 3008   2.238   3.742   6.762 -1.5424 -1.2706  1.3283
   41CHL1   H2B 3009   2.289   3.909   6.776  1.1843 -2.0045  0.1143
   41CHL1   C20 3010   2.242   3.966   7.742  0.1071  0.4146 -0.5162
   41CHL1   H20 3011   2.304   4.058   7.735  0.5474  0.0339 -2.0711
   41CHL1   C21 3012   2.333   3.841   7.734  0.2031  0.7766 -0.1009
   41CHL1  H21A 3013   2.275   3.752   7.765  0.9622 -0.2266 -1.4863
   41CHL1  H21B 3014   2.415   3.851   7.808  0.7808  0.5392 -0.6995
   41CHL1  H21C 3015   2.380   3.827   7.635 -2.5367 -2.2538 -1.1405
   41CHL1   C22 3016   2.162   3.984   7.877 -0.2790 -0.2097  0.5633
   41CHL1  H22A 3017   2.118   4.085   7.866  0.3879 -0.0104 -0.5515
   41CHL1  H22B 3018   2.080   3.910   7.889 -0.1364 -0.2739  1.1661
   41CHL1   C23 3019   2.252   3.969   8.009  0.1562  0.1268 -0.1422
   41CHL1  H23A 3020   2.290   3.864   8.011 -0.4373 -0.0788  0.7728
   41CHL1  H23B 3021   2.333   4.044   8.013  2.6834 -2.4204 -0.3964
   41CHL1   C24 3022   2.173   3.986   8.137 -0.7641 -0.2488 -0.3650
   41CHL1  H24A 3023   2.128   4.088   8.142 -2.0119 -0.8072  0.1342
   41CHL1  H24B 3024   2.088   3.916   8.150 -1.3919  0.7837  1.5855
   41CHL1   C25 3025   2.256   3.970   8.265 -0.0970 -0.3014 -0.4400
   41CHL1   H25 3026   2.196   3.983   8.358 -1.5962  1.3012 -1.5641
   41CHL1   C26 3027   2.299   3.821   8.286 -0.9954 -0.0763 -0.6635
   41CHL1  H26A 3028   2.359   3.821   8.380  0.2372 -0.5432 -1.4185
   41CHL1  H26B 3029   2.222   3.742   8.293  0.4959 -1.7027 -1.7699
   41CHL1  H26C 3030   2.358   3.789   8.198 -1.2087  0.0371 -0.8457
   41CHL1   C27 3031   2.375   4.065   8.272 -0.6922  0.3524 -0.2737
   41CHL1  H27A 3032   2.353   4.169   8.240 -0.8017  0.1726 -0.7983
   41CHL1  H27B 3033   2.415   4.061   8.375  1.6668 -1.7838 -1.1704
   41CHL1  H27C 3034   2.458   4.033   8.205 -0.4726 -0.4804  0.3768
   42CHL1    C3 3035   3.338   0.281   6.836 -0.0518 -0.0029 -0.8580
   42CHL1    H3 3036   3.269   0.206   6.881  0.6125 -0.1273 -0.0072
   42CHL1    O3 3037   3.331   0.274   6.696 -0.4241  0.1436  0.0201
   42CHL1   H3' 3038   3.390   0.340   6.659  0.3997 -1.4047 -1.5656
   42CHL1    C4 3039   3.291   0.416   6.892  0.1776 -0.3271  0.1487
   42CHL1   H4A 3040   3.344   0.493   6.832 -0.9148 -0.3636 -0.8992
   42CHL1   H4B 3041   3.187   0.429   6.856  1.8459  1.6072 -4.8239
   42CHL1    C5 3042   3.309   0.442   7.043 -0.1654 -0.0384  0.3379
   42CHL1    C6 3043   3.216   0.473   7.131  0.3239  0.4746 -0.0737
   42CHL1    H6 3044   3.109   0.487   7.107 -0.3041 -3.2182 -0.0224
   42CHL1    C7 3045   3.239   0.491   7.286 -0.8310 -0.1124  0.0072
   42CHL1   H7A 3046   3.197   0.585   7.326 -1.4889  0.7592 -2.5631
   42CHL1   H7B 3047   3.198   0.406   7.344  0.3521  1.1506  2.9058
   42CHL1    C8 3048   3.394   0.480   7.342  0.2543 -0.1334  0.4887
   42CHL1    H8 3049   3.434   0.583   7.327 -1.3774  0.4364 -0.2700
   42CHL1   C14 3050   3.396   0.433   7.483  0.5500 -0.3222  0.0612
   42CHL1   H14 3051   3.346   0.334   7.490 -1.1007  0.5210  0.9197
   42CHL1   C15 3052   3.319   0.524   7.584  0.0544  0.0516  0.4722
   42CHL1  H15A 3053   3.347   0.632   7.577  0.5205 -0.1949 -2.2720
   42CHL1  H15B 3054   3.208   0.519   7.578  0.0147 -1.2334  1.6988
   42CHL1   C16 3055   3.375   0.455   7.710  0.5797 -1.0044  0.4067
   42CHL1  H16A 3056   3.416   0.538   7.771 -0.7577 -0.4641  0.5987
   42CHL1  H16B 3057   3.299   0.408   7.776 -0.1013  0.4668  0.7048
   42CHL1   C17 3058   3.501   0.373   7.685 -0.1510  0.4071 -0.8027
   42CHL1   H17 3059   3.472   0.267   7.694  1.0249  0.1033 -0.4106
   42CHL1   C13 3060   3.539   0.404   7.537 -0.0425 -0.5932 -1.0429
   42CHL1   C18 3061   3.622   0.536   7.541  0.0216  0.0411 -0.7629
   42CHL1  H18A 3062   3.725   0.524   7.580  0.1142 -0.3399 -1.1207
   42CHL1  H18B 3063   3.620   0.576   7.437  0.6901  0.1986 -0.7235
   42CHL1  H18C 3064   3.571   0.608   7.608 -0.2650 -0.8797  0.0288
   42CHL1   C12 3065   3.601   0.301   7.448  0.3575 -0.3409  0.3978
   42CHL1  H12A 3066   3.703   0.286   7.488  0.4970 -0.5740 -0.0423
   42CHL1  H12B 3067   3.549   0.203   7.453 -0.9808  0.2176 -1.3497
   42CHL1   C11 3068   3.605   0.345   7.301 -0.4181  0.3800 -0.8495
   42CHL1  H11A 3069   3.673   0.431   7.282  0.1142 -0.0524 -0.9205
   42CHL1  H11B 3070   3.628   0.247   7.255 -4.2521 -2.1224  1.9138
   42CHL1    C9 3071   3.462   0.379   7.248 -0.3630  0.3834  0.8426
   42CHL1    H9 3072   3.400   0.288   7.263 -1.5818  1.3949  2.1760
   42CHL1   C10 3073   3.452   0.401   7.087  0.0720  0.6323  0.5796
   42CHL1   C19 3074   3.545   0.522   7.050  0.4318  0.6315  0.3219
   42CHL1  H19A 3075   3.651   0.497   7.076 -0.3348 -1.7609  1.5025
   42CHL1  H19B 3076   3.536   0.541   6.941  1.0345 -0.2599  0.0994
   42CHL1  H19C 3077   3.508   0.612   7.103  0.0642  0.1729  0.8512
   42CHL1    C1 3078   3.518   0.274   7.027  0.4445 -0.6095  0.3218
   42CHL1   H1A 3079   3.627   0.288   7.043  0.0757 -0.0160  2.6014
   42CHL1   H1B 3080   3.478   0.186   7.081  0.4211 -1.4916 -1.0853
   42CHL1    C2 3081   3.489   0.258   6.881 -0.2149  0.4552 -0.0075
   42CHL1   H2A 3082   3.517   0.158   6.841 -1.1646 -0.5970  1.8310
   42CHL1   H2B 3083   3.551   0.331   6.825  1.7825 -0.8493  0.3902
   42CHL1   C20 3084   3.613   0.379   7.791 -0.4903  0.5238  0.8517
   42CHL1   H20 3085   3.680   0.468   7.794  2.3841 -1.4294 -0.8864
   42CHL1   C21 3086   3.711   0.257   7.774 -0.1497  0.4665 -1.0550
   42CHL1  H21A 3087   3.756   0.258   7.672  1.1211  2.8254 -0.5481
   42CHL1  H21B 3088   3.655   0.161   7.784  0.7375 -0.0362 -0.8653
   42CHL1  H21C 3089   3.795   0.243   7.845  1.2111  0.1913 -2.6734
   42CHL1   C22 3090   3.555   0.373   7.933  0.7435 -0.3384  0.3663
   42CHL1  H22A 3091   3.486   0.458   7.948 -0.4035 -1.3552  1.0068
   42CHL1  H22B 3092   3.505   0.277   7.956 -0.2051  0.2135  0.6310
   42CHL1   C23 3093   3.663   0.411   8.031 -0.5443  0.1509 -0.4054
   42CHL1  H23A 3094   3.739   0.330   8.031 -1.4598 -0.8184 -3.3929
   42CHL1  H23B 3095   3.711   0.501   7.987  0.1768  0.4961  0.9928
   42CHL1   C24 3096   3.605   0.424   8.171 -0.1773 -0.5764 -0.5118
   42CHL1  H24A 3097   3.532   0.508   8.163 -0.6772 -0.9757 -0.2618
   42CHL1  H24B 3098   3.553   0.331   8.202  1.2100 -0.6327  1.8547
   42CHL1   C25 3099   3.713   0.455   8.281  1.0238  0.3002  0.2999
   42CHL1   H25 3100   3.767   0.361   8.305  1.3749 -0.4994 -3.0747
   42CHL1   C26 3101   3.827   0.547   8.235  0.4041  0.2816 -0.1049
   42CHL1  H26A 3102   3.904   0.562   8.314 -0.0460  1.3106  0.1503
   42CHL1  H26B 3103   3.878   0.507   8.145  2.5381  0.4914  0.9418
   42CHL1  H26C 3104   3.782   0.645   8.209 -0.4317  0.3179  1.3954
   42CHL1   C27 3105   3.650   0.519   8.414  0.8042 -0.4917 -0.4929
   42CHL1  H27A 3106   3.576   0.439   8.437 -0.8037  0.3578 -2.3904
   42CHL1  H27B 3107   3.591   0.606   8.379  1.4491 -0.7019 -2.2201
   42CHL1  H27C 3108   3.733   0.544   8.483  1.1401  0.6793 -1.2931
   43CHL1    C3 3109   4.715   3.538   6.817  0.4902 -0.1904 -0.8970
   43CHL1    H3 3110   4.788   3.612   6.858  0.5126  0.5154 -2.1672
   43CHL1    O3 3111   4.718   3.554   6.679  0.3142  0.0277  0.1835
   43CHL1   H3' 3112   4.626   3.549   6.651  0.6231 -1.4022 -0.6842
   43CHL1    C4 3113   4.762   3.398   6.857 -0.0407  1.1863  0.5845
   43CHL1   H4A 3114   4.707   3.331   6.788  3.2726 -0.2926 -0.8410
   43CHL1   H4B 3115   4.869   3.390   6.831 -0.7863 -0.0994 -2.5396
   43CHL1    C5 3116   4.738   3.365   7.008 -0.5205  0.9054 -0.5419
   43CHL1    C6 3117   4.835   3.311   7.084 -0.2184  0.9586  0.0779
   43CHL1    H6 3118   4.932   3.288   7.037 -2.3997 -1.4180 -3.7537
   43CHL1    C7 3119   4.813   3.280   7.234 -0.0511  0.7573 -0.4234
   43CHL1   H7A 3120   4.855   3.186   7.274  1.7602  1.0693 -1.4854
   43CHL1   H7B 3121   4.859   3.366   7.288  0.6973  1.0900 -1.5590
   43CHL1    C8 3122   4.662   3.272   7.277  0.2037 -0.4673  0.1619
   43CHL1    H8 3123   4.614   3.175   7.251 -0.8835 -0.3320  1.5572
   43CHL1   C14 3124   4.659   3.282   7.425 -0.5083 -0.0057 -0.2295
   43CHL1   H14 3125   4.704   3.383   7.439 -1.5707  0.1796  2.7238
   43CHL1   C15 3126   4.742   3.187   7.518 -0.5020  0.3629  0.3492
   43CHL1  H15A 3127   4.727   3.079   7.498  0.6952  0.4680 -1.4086
   43CHL1  H15B 3128   4.851   3.210   7.516 -0.1940 -0.8602  1.7818
   43CHL1   C16 3129   4.684   3.217   7.662 -0.5569  0.1340 -0.4829
   43CHL1  H16A 3130   4.646   3.124   7.708 -1.4219  1.2346  1.1561
   43CHL1  H16B 3131   4.763   3.261   7.727  0.1773  0.0683 -1.3198
   43CHL1   C17 3132   4.562   3.313   7.634  0.4567  0.2511 -0.7468
   43CHL1   H17 3133   4.601   3.417   7.628  0.0523  0.8237  3.5693
   43CHL1   C13 3134   4.520   3.293   7.484  0.2940 -0.0992  0.0281
   43CHL1   C18 3135   4.447   3.157   7.470  0.5963  0.6408 -0.5686
   43CHL1  H18A 3136   4.345   3.173   7.512  0.8914  0.4634  0.2325
   43CHL1  H18B 3137   4.430   3.113   7.369  1.1226  1.9517 -1.2460
   43CHL1  H18C 3138   4.497   3.083   7.535  0.7698  1.7686  0.6224
   43CHL1   C12 3139   4.430   3.399   7.418 -0.1540  0.1991  0.4232
   43CHL1  H12A 3140   4.326   3.385   7.455  0.3757 -1.5324  1.4075
   43CHL1  H12B 3141   4.468   3.498   7.450  0.5043 -0.4916  1.8904
   43CHL1   C11 3142   4.430   3.386   7.260  0.3879  0.2471 -0.4120
   43CHL1  H11A 3143   4.379   3.294   7.225 -1.4799  0.4840  1.5081
   43CHL1  H11B 3144   4.371   3.471   7.220 -0.1374  0.9239  1.6847
   43CHL1    C9 3145   4.580   3.387   7.214  0.0022  0.0432  0.1951
   43CHL1    H9 3146   4.615   3.481   7.263  0.8430  0.1022 -0.4884
   43CHL1   C10 3147   4.600   3.406   7.062  0.4116 -0.1403  0.9719
   43CHL1   C19 3148   4.498   3.310   6.981 -0.1957  0.2806  0.1728
   43CHL1  H19A 3149   4.513   3.306   6.871 -0.5584  3.8014 -0.1065
   43CHL1  H19B 3150   4.509   3.208   7.023  3.1059  0.5974  0.2804
   43CHL1  H19C 3151   4.398   3.347   7.013  0.9595  2.5391  1.3516
   43CHL1    C1 3152   4.566   3.548   7.017 -0.4150 -0.3396  0.5227
   43CHL1   H1A 3153   4.460   3.563   7.048 -1.4598 -1.0700 -2.3739
   43CHL1   H1B 3154   4.628   3.621   7.073 -0.6496  1.7610 -1.7809
   43CHL1    C2 3155   4.582   3.577   6.870  0.0651  0.6259 -0.8179
   43CHL1   H2A 3156   4.565   3.685   6.853 -1.9689  0.4061 -0.3366
   43CHL1   H2B 3157   4.496   3.522   6.827  0.6491  0.0920 -1.3307
   43CHL1   C20 3158   4.450   3.327   7.742 -0.4079  0.2549 -0.0805
   43CHL1   H20 3159   4.351   3.295   7.703 -0.0798 -1.5784  0.5090
   43CHL1   C21 3160   4.443   3.479   7.781 -0.1473  0.6847 -0.3561
   43CHL1  H21A 3161   4.370   3.489   7.864 -0.0582 -3.8277  0.5412
   43CHL1  H21B 3162   4.416   3.542   7.693  2.4151  0.3581 -1.4703
   43CHL1  H21C 3163   4.546   3.504   7.816  0.2177 -0.3469 -0.6663
   43CHL1   C22 3164   4.464   3.235   7.867  0.9502  0.0058  0.2668
   43CHL1  H22A 3165   4.472   3.135   7.820  0.4202 -0.5024  1.2255
   43CHL1  H22B 3166   4.557   3.267   7.919  0.7753  2.0151 -0.5645
   43CHL1   C23 3167   4.338   3.222   7.951 -0.3381  0.4006 -0.0854
   43CHL1  H23A 3168   4.321   3.322   7.997  0.9485  0.2212  0.8288
   43CHL1  H23B 3169   4.253   3.204   7.881  0.5717 -0.5254 -0.9653
   43CHL1   C24 3170   4.357   3.101   8.049 -0.4576 -0.3959 -0.7824
   43CHL1  H24A 3171   4.254   3.077   8.084 -1.4042 -0.5373 -3.4150
   43CHL1  H24B 3172   4.393   3.014   7.989 -0.2424 -0.0454 -1.1607
   43CHL1   C25 3173   4.465   3.123   8.162  0.3439 -0.5954 -0.9308
   43CHL1   H25 3174   4.559   3.126   8.104 -0.1602  1.4757 -1.7207
   43CHL1   C26 3175   4.455   3.248   8.245 -0.0212 -0.5421 -0.2835
   43CHL1  H26A 3176   4.357   3.244   8.297 -0.5670 -3.0946 -1.3657
   43CHL1  H26B 3177   4.536   3.241   8.321 -0.3353  0.1550  0.1264
   43CHL1  H26C 3178   4.460   3.348   8.195  0.2510  0.4570  1.6624
   43CHL1   C27 3179   4.462   3.011   8.257 -1.2345  0.3579 -0.0826
   43CHL1  H27A 3180   4.469   2.912   8.207  0.6229  1.2862 -1.7709
   43CHL1  H27B 3181   4.560   3.016   8.310 -1.3188 -2.0863  0.4462
   43CHL1  H27C 3182   4.374   3.013   8.325 -0.9612  1.8592  0.2587
   44CHL1    C3 3183   2.632   4.300   6.738 -0.3248 -0.3353  0.2046
   44CHL1    H3 3184   2.573   4.208   6.758  0.4986 -1.3777 -1.8444
   44CHL1    O3 3185   2.627   4.316   6.599 -0.1286  0.0492 -0.5774
   44CHL1   H3' 3186   2.698   4.375   6.573  0.1769  0.2240  0.5948
   44CHL1    C4 3187   2.581   4.427   6.814 -0.5722 -0.3419  0.1127
   44CHL1   H4A 3188   2.660   4.497   6.779 -0.9496 -0.0671 -0.2013
   44CHL1   H4B 3189   2.484   4.455   6.769 -0.5030 -0.2702  0.0074
   44CHL1    C5 3190   2.585   4.413   6.963 -0.2096  0.4483 -0.9112
   44CHL1    C6 3191   2.477   4.424   7.038 -0.0001 -0.5991 -0.3854
   44CHL1    H6 3192   2.379   4.460   7.002 -0.9544 -0.4556  2.1357
   44CHL1    C7 3193   2.483   4.417   7.190 -0.4343  0.1411 -0.2456
   44CHL1   H7A 3194   2.422   4.496   7.238  1.4562  0.5491  1.6324
   44CHL1   H7B 3195   2.437   4.319   7.216  0.7577 -0.3222  0.1661
   44CHL1    C8 3196   2.625   4.422   7.247  0.7502 -0.8084  0.3311
   44CHL1    H8 3197   2.668   4.524   7.237 -0.7848 -0.3431 -5.0115
   44CHL1   C14 3198   2.614   4.366   7.391  0.4445  1.0168  0.2601
   44CHL1   H14 3199   2.583   4.260   7.382  0.1356  1.1960 -1.0193
   44CHL1   C15 3200   2.510   4.432   7.488  0.0438  0.9562 -0.8621
   44CHL1  H15A 3201   2.512   4.543   7.483 -2.6954  1.1735  0.9735
   44CHL1  H15B 3202   2.407   4.404   7.456 -0.1318  0.8450 -0.2124
   44CHL1   C16 3203   2.544   4.373   7.617  0.4226 -0.3426 -0.8094
   44CHL1  H16A 3204   2.561   4.459   7.685 -1.5021  0.6069 -1.4819
   44CHL1  H16B 3205   2.464   4.309   7.659 -0.8585  0.6788 -1.6200
   44CHL1   C17 3206   2.679   4.297   7.596  0.0545  0.8205 -0.4677
   44CHL1   H17 3207   2.642   4.194   7.578  0.9051  0.3566  0.3794
   44CHL1   C13 3208   2.743   4.351   7.465 -0.0150 -0.0971 -0.4527
   44CHL1   C18 3209   2.800   4.494   7.501 -0.0858  0.6365 -0.7867
   44CHL1  H18A 3210   2.724   4.560   7.547  0.2175  1.3405 -1.2815
   44CHL1  H18B 3211   2.874   4.485   7.583 -0.4330  1.2396 -0.3990
   44CHL1  H18C 3212   2.838   4.541   7.408 -0.9138  2.1903 -0.3664
   44CHL1   C12 3213   2.831   4.248   7.386  0.2909 -0.2943  0.6402
   44CHL1  H12A 3214   2.926   4.229   7.441 -1.1347 -0.3118  3.2377
   44CHL1  H12B 3215   2.788   4.146   7.376  1.6984 -1.0032  1.4463
   44CHL1   C11 3216   2.849   4.296   7.239  0.4821 -0.4348 -0.2896
   44CHL1  H11A 3217   2.914   4.387   7.241 -1.3814  1.0486 -2.3677
   44CHL1  H11B 3218   2.901   4.223   7.173 -0.9640 -0.6358 -1.2634
   44CHL1    C9 3219   2.718   4.331   7.172  0.5816  0.5200 -0.7091
   44CHL1    H9 3220   2.673   4.229   7.165 -0.0987  0.3522  3.3678
   44CHL1   C10 3221   2.726   4.377   7.021 -0.2380  0.5743 -0.8647
   44CHL1   C19 3222   2.818   4.503   7.011  0.2546 -0.2887  0.2620
   44CHL1  H19A 3223   2.922   4.487   7.048 -0.2759 -0.6918  1.6563
   44CHL1  H19B 3224   2.820   4.541   6.907 -1.2051  0.9246  0.6397
   44CHL1  H19C 3225   2.781   4.593   7.064  0.2362 -0.4599  0.5405
   44CHL1    C1 3226   2.777   4.255   6.940  0.4837  0.5723 -0.8242
   44CHL1   H1A 3227   2.880   4.224   6.969 -0.0085 -0.8700 -0.4950
   44CHL1   H1B 3228   2.710   4.167   6.958  0.3212  1.1565  1.9738
   44CHL1    C2 3229   2.774   4.265   6.791 -0.0453 -0.2541 -0.7103
   44CHL1   H2A 3230   2.817   4.174   6.742  0.3935 -0.8643  0.7381
   44CHL1   H2B 3231   2.835   4.355   6.772 -1.6819  0.9213 -0.5543
   44CHL1   C20 3232   2.760   4.290   7.721  0.4884  0.0358  0.2467
   44CHL1   H20 3233   2.797   4.392   7.745  2.8069 -0.1489 -2.1207
   44CHL1   C21 3234   2.883   4.198   7.705  0.1118 -0.0393 -0.2005
   44CHL1  H21A 3235   2.856   4.100   7.660  2.4246  0.3589 -2.7353
   44CHL1  H21B 3236   2.927   4.168   7.802 -0.2055 -0.0025 -0.0454
   44CHL1  H21C 3237   2.969   4.243   7.651 -1.2688  1.6615 -1.0879
   44CHL1   C22 3238   2.679   4.218   7.838  0.1851  0.1193  0.1566
   44CHL1  H22A 3239   2.574   4.254   7.836 -1.0274 -3.1163 -1.8025
   44CHL1  H22B 3240   2.655   4.112   7.814 -1.9736  0.0515  2.2050
   44CHL1   C23 3241   2.721   4.227   7.986  1.0072 -0.2666  0.4723
   44CHL1  H23A 3242   2.651   4.171   8.051 -2.7555  3.9767  0.5748
   44CHL1  H23B 3243   2.819   4.174   7.988  0.2107 -1.8210 -0.4324
   44CHL1   C24 3244   2.721   4.369   8.042  0.3434  0.1509  0.4153
   44CHL1  H24A 3245   2.804   4.414   7.983 -0.8333  1.4619 -0.2894
   44CHL1  H24B 3246   2.621   4.406   8.012 -0.0701  1.0912  2.7812
   44CHL1   C25 3247   2.731   4.378   8.189  0.7752  0.0900  0.3689
   44CHL1   H25 3248   2.657   4.302   8.221  0.0645 -0.0378 -1.4521
   44CHL1   C26 3249   2.870   4.329   8.238 -0.0314  0.0716 -0.5133
   44CHL1  H26A 3250   2.956   4.368   8.179 -0.2300 -1.0656 -1.5855
   44CHL1  H26B 3251   2.886   4.344   8.347 -1.1059  0.2618 -0.3671
   44CHL1  H26C 3252   2.877   4.221   8.217 -2.0755 -0.2489  0.2196
   44CHL1   C27 3253   2.704   4.521   8.226 -0.1354  0.1837 -0.2351
   44CHL1  H27A 3254   2.600   4.551   8.203 -0.6122 -1.9491 -1.0999
   44CHL1  H27B 3255   2.712   4.539   8.335 -0.6749  0.8650 -0.2975
   44CHL1  H27C 3256   2.781   4.576   8.167  0.5547 -2.0108 -1.5070
   45CHL1    C3 3257   3.373   1.849   6.675 -0.5396  1.0393 -0.2240
   45CHL1    H3 3258   3.397   1.956   6.694  1.2259  0.6049  0.1909
   45CHL1    O3 3259   3.332   1.838   6.536  0.1625 -0.1479  0.1192
   45CHL1   H3' 3260   3.242   1.805   6.534  0.4249 -0.8624 -0.5945
   45CHL1    C4 3261   3.492   1.756   6.708 -0.0612 -0.7367 -0.5334
   45CHL1   H4A 3262   3.451   1.656   6.682  0.1006 -1.8079  2.9181
   45CHL1   H4B 3263   3.574   1.778   6.636 -0.5656  0.2355 -0.8271
   45CHL1    C5 3264   3.539   1.746   6.850 -0.5786 -0.0739  0.8832
   45CHL1    C6 3265   3.668   1.755   6.870  0.6059  0.1307 -0.2725
   45CHL1    H6 3266   3.731   1.760   6.780  0.1752  0.9596 -0.5355
   45CHL1    C7 3267   3.732   1.760   7.008  0.4703  0.6515  0.5251
   45CHL1   H7A 3268   3.810   1.685   7.034 -1.3742 -0.5987  2.8296
   45CHL1   H7B 3269   3.772   1.861   7.034 -0.4256  0.8766  1.0811
   45CHL1    C8 3270   3.621   1.730   7.118  0.0716  0.4130 -0.5636
   45CHL1    H8 3271   3.600   1.621   7.129 -1.6257  0.5424 -1.9909
   45CHL1   C14 3272   3.671   1.778   7.250  0.3301 -0.2661  0.2973
   45CHL1   H14 3273   3.671   1.888   7.233  0.9912 -0.3945 -0.6247
   45CHL1   C15 3274   3.810   1.735   7.291  0.7186  0.1085 -0.8287
   45CHL1  H15A 3275   3.828   1.626   7.296  0.8274  0.1225 -0.9083
   45CHL1  H15B 3276   3.894   1.775   7.229  4.1470 -1.0611  2.6069
   45CHL1   C16 3277   3.818   1.793   7.434  1.0312 -0.3316  0.0720
   45CHL1  H16A 3278   3.871   1.723   7.503  2.6824  1.3053  0.5418
   45CHL1  H16B 3279   3.873   1.889   7.431  1.6324 -0.6905 -2.9916
   45CHL1   C17 3280   3.664   1.823   7.480  0.2960 -0.0790 -0.2025
   45CHL1   H17 3281   3.656   1.934   7.485 -0.9006 -0.0624 -1.7682
   45CHL1   C13 3282   3.575   1.757   7.369 -0.4896 -0.7083 -0.6454
   45CHL1   C18 3283   3.552   1.609   7.401  0.6512 -0.2436  0.0405
   45CHL1  H18A 3284   3.467   1.588   7.470  1.8603 -1.9099  1.1063
   45CHL1  H18B 3285   3.516   1.555   7.311 -1.7008  0.2963  0.5734
   45CHL1  H18C 3286   3.640   1.555   7.442  0.4436 -0.4602  0.2020
   45CHL1   C12 3287   3.447   1.838   7.343 -0.2332  0.3967  0.8445
   45CHL1  H12A 3288   3.369   1.827   7.422 -2.7119 -0.4269 -1.5701
   45CHL1  H12B 3289   3.472   1.946   7.337 -0.6862  0.5214  1.1707
   45CHL1   C11 3290   3.383   1.788   7.214  0.1926 -0.5312  0.1882
   45CHL1  H11A 3291   3.357   1.683   7.236  1.1416 -0.2069  3.2974
   45CHL1  H11B 3292   3.288   1.843   7.196  0.8385  0.8297  0.7509
   45CHL1    C9 3293   3.482   1.787   7.087  0.1590 -0.5019  0.1216
   45CHL1    H9 3294   3.506   1.893   7.064 -2.0229  0.1096  0.3753
   45CHL1   C10 3295   3.427   1.746   6.953 -0.3646 -0.7320  0.3951
   45CHL1   C19 3296   3.370   1.611   6.977  0.2455 -0.2497  0.1109
   45CHL1  H19A 3297   3.336   1.574   6.878  1.4148 -1.4688  0.1439
   45CHL1  H19B 3298   3.437   1.533   7.019 -0.4434 -0.9533 -0.0753
   45CHL1  H19C 3299   3.274   1.609   7.033  0.7866  0.3927  1.0884
   45CHL1    C1 3300   3.307   1.843   6.912 -1.1222 -0.1097 -0.3576
   45CHL1   H1A 3301   3.220   1.820   6.978 -0.6159 -2.2079 -0.3503
   45CHL1   H1B 3302   3.357   1.941   6.926 -0.8242 -0.5327  2.0682
   45CHL1    C2 3303   3.256   1.818   6.762  0.7177 -0.6206 -0.3405
   45CHL1   H2A 3304   3.169   1.882   6.735  2.2547  1.4822 -0.5124
   45CHL1   H2B 3305   3.213   1.716   6.748 -1.4851  0.1241  0.5157
   45CHL1   C20 3306   3.632   1.786   7.629 -0.1126 -0.3051  0.3729
   45CHL1   H20 3307   3.596   1.681   7.635  0.1803 -0.3524  1.5941
   45CHL1   C21 3308   3.518   1.884   7.677 -0.5482  0.0969  1.3014
   45CHL1  H21A 3309   3.555   1.988   7.690 -1.2229  0.4181  0.6976
   45CHL1  H21B 3310   3.477   1.862   7.777 -1.4726  1.2284  1.1883
   45CHL1  H21C 3311   3.430   1.882   7.610  0.0308 -1.0525  0.5274
   45CHL1   C22 3312   3.749   1.796   7.726  0.2789 -0.4880 -1.1289
   45CHL1  H22A 3313   3.829   1.726   7.695  1.3038 -0.5242  1.3209
   45CHL1  H22B 3314   3.791   1.899   7.723 -1.1722  0.1841 -0.0199
   45CHL1   C23 3315   3.715   1.766   7.875  0.2884  0.4787  0.1277
   45CHL1  H23A 3316   3.622   1.819   7.907 -0.1307  0.2203 -0.6409
   45CHL1  H23B 3317   3.686   1.659   7.877  2.1394 -0.0416  0.3878
   45CHL1   C24 3318   3.836   1.790   7.957 -0.5593  0.3592 -0.2301
   45CHL1  H24A 3319   3.915   1.719   7.923 -0.4092  1.5649 -2.5944
   45CHL1  H24B 3320   3.867   1.896   7.948  0.0570  0.5168  2.6836
   45CHL1   C25 3321   3.813   1.760   8.106  0.1358  0.1280 -0.7224
   45CHL1   H25 3322   3.768   1.659   8.107  0.7817 -0.1625 -0.5031
   45CHL1   C26 3323   3.950   1.749   8.183 -0.8690 -0.0111 -0.2169
   45CHL1  H26A 3324   3.935   1.719   8.289 -0.6752 -1.3129 -0.5381
   45CHL1  H26B 3325   4.022   1.680   8.134 -0.4116 -0.9074  1.6306
   45CHL1  H26C 3326   4.005   1.845   8.185  1.1977 -1.1019 -1.0487
   45CHL1   C27 3327   3.720   1.857   8.170 -0.0677 -0.5106  0.7392
   45CHL1  H27A 3328   3.636   1.883   8.102  1.0319  0.9111 -0.1472
   45CHL1  H27B 3329   3.687   1.820   8.270  0.7391 -0.9948  0.8331
   45CHL1  H27C 3330   3.767   1.956   8.192 -2.2214  1.6158 -3.1812
   46CHL1    C3 3331   4.376   2.404   6.946  0.2273  0.0881  0.0435
   46CHL1    H3 3332   4.403   2.501   6.993 -0.6719 -0.2072  1.2032
   46CHL1    O3 3333   4.418   2.396   6.812 -0.3990  0.4465  0.5620
   46CHL1   H3' 3334   4.371   2.321   6.776 -1.3001  1.3528 -0.2375
   46CHL1    C4 3335   4.458   2.308   7.024  0.0458 -0.2960  0.5223
   46CHL1   H4A 3336   4.456   2.207   6.977  1.0299 -0.0628 -0.0632
   46CHL1   H4B 3337   4.565   2.339   7.029 -0.7990  2.8280  4.1403
   46CHL1    C5 3338   4.403   2.297   7.170 -0.5017 -0.2430 -0.6387
   46CHL1    C6 3339   4.485   2.320   7.279 -0.9371 -0.6795 -0.5957
   46CHL1    H6 3340   4.593   2.334   7.264 -0.0859 -2.8769  2.5967
   46CHL1    C7 3341   4.438   2.310   7.423  0.8891 -0.3043  0.0936
   46CHL1   H7A 3342   4.505   2.255   7.492  1.5790 -1.8198 -1.7017
   46CHL1   H7B 3343   4.430   2.414   7.462 -0.1379  0.6282 -2.3916
   46CHL1    C8 3344   4.289   2.248   7.432 -0.3355 -0.6353  0.3645
   46CHL1    H8 3345   4.312   2.140   7.420  2.4584 -0.2426  1.3802
   46CHL1   C14 3346   4.234   2.273   7.571  0.7908 -0.4078  0.1394
   46CHL1   H14 3347   4.232   2.384   7.578  1.1206 -0.4731  1.6723
   46CHL1   C15 3348   4.317   2.224   7.692  0.2169  0.6416 -0.5748
   46CHL1  H15A 3349   4.359   2.125   7.666 -1.2362  0.4831 -2.5597
   46CHL1  H15B 3350   4.394   2.301   7.715  0.4242 -0.1165  1.4856
   46CHL1   C16 3351   4.212   2.200   7.802  0.4449  0.6978  0.5598
   46CHL1  H16A 3352   4.214   2.094   7.833  0.2747  0.6406  0.3761
   46CHL1  H16B 3353   4.236   2.254   7.896  1.1313 -0.3335  0.9884
   46CHL1   C17 3354   4.081   2.249   7.750  0.0607 -0.0777 -1.1221
   46CHL1   H17 3355   4.082   2.359   7.770  0.3298  0.0990 -2.0679
   46CHL1   C13 3356   4.093   2.230   7.596 -0.8047  0.0031  0.2108
   46CHL1   C18 3357   4.089   2.075   7.564  0.0125 -0.2770  0.0006
   46CHL1  H18A 3358   4.149   2.025   7.644 -2.2103  1.1488  2.7394
   46CHL1  H18B 3359   3.985   2.039   7.580  0.2553 -0.0328  2.5738
   46CHL1  H18C 3360   4.126   2.044   7.464  1.2430  2.4171 -0.4724
   46CHL1   C12 3361   4.004   2.309   7.501  0.2716 -0.1559  0.4229
   46CHL1  H12A 3362   3.898   2.276   7.503  0.8675 -2.3421 -0.4103
   46CHL1  H12B 3363   4.005   2.417   7.528  1.2903  0.3504 -1.4707
   46CHL1   C11 3364   4.047   2.300   7.351  0.0311 -0.3088 -0.5200
   46CHL1  H11A 3365   4.010   2.206   7.305  1.5056 -0.8646 -0.6300
   46CHL1  H11B 3366   3.996   2.381   7.296 -0.2128 -1.2039 -1.6424
   46CHL1    C9 3367   4.196   2.318   7.329 -0.2616 -0.5145  0.1963
   46CHL1    H9 3368   4.217   2.427   7.341  0.6186 -0.6956  0.4050
   46CHL1   C10 3369   4.245   2.288   7.185 -0.4664 -0.6986  0.6976
   46CHL1   C19 3370   4.210   2.138   7.146 -0.1681  0.3220  0.0689
   46CHL1  H19A 3371   4.251   2.073   7.225 -2.8629  0.0389  1.3714
   46CHL1  H19B 3372   4.101   2.124   7.127  0.2184  0.7271 -3.0385
   46CHL1  H19C 3373   4.251   2.097   7.051  2.1526  0.4981  0.9409
   46CHL1    C1 3374   4.180   2.396   7.088 -0.1773 -0.4902 -0.5041
   46CHL1   H1A 3375   4.071   2.375   7.091  0.1676 -2.4218 -0.2363
   46CHL1   H1B 3376   4.197   2.499   7.124  1.3033 -0.0607 -2.2704
   46CHL1    C2 3377   4.227   2.393   6.943 -0.9450  0.0006 -0.4423
   46CHL1   H2A 3378   4.188   2.470   6.873  0.2466 -1.5806 -3.0266
   46CHL1   H2B 3379   4.193   2.304   6.886 -1.3925  1.5414 -2.6939
   46CHL1   C20 3380   3.960   2.177   7.825 -0.3760  0.1130  0.3782
   46CHL1   H20 3381   3.976   2.068   7.832  1.0747  0.3038  0.3692
   46CHL1   C21 3382   3.835   2.215   7.746 -0.2305 -0.1847  0.4724
   46CHL1  H21A 3383   3.835   2.147   7.658  2.7179  1.3775 -0.8770
   46CHL1  H21B 3384   3.835   2.318   7.705  0.7470  0.7272  2.6239
   46CHL1  H21C 3385   3.742   2.206   7.807  0.1190 -0.5584  0.9615
   46CHL1   C22 3386   3.937   2.208   7.980 -0.0641  0.0806 -0.1870
   46CHL1  H22A 3387   3.936   2.318   7.995  0.3962 -0.0443  0.8281
   46CHL1  H22B 3388   3.831   2.180   7.998 -0.3268 -0.3766 -2.2168
   46CHL1   C23 3389   4.035   2.153   8.083 -0.3900  0.0529  0.6445
   46CHL1  H23A 3390   4.035   2.044   8.060  0.7165 -0.1099  1.3441
   46CHL1  H23B 3391   4.140   2.186   8.074 -0.7199  1.2117  0.8947
   46CHL1   C24 3392   3.995   2.172   8.230 -0.4678  0.5678 -0.3717
   46CHL1  H24A 3393   3.992   2.282   8.241  1.8521  0.5793  0.8913
   46CHL1  H24B 3394   3.898   2.127   8.257 -0.1359 -0.1326 -0.3113
   46CHL1   C25 3395   4.098   2.135   8.340  0.2717 -0.2457 -0.2116
   46CHL1   H25 3396   4.108   2.025   8.338  1.6578 -0.2879  3.0953
   46CHL1   C26 3397   4.235   2.202   8.331  0.2482  0.4465 -0.7453
   46CHL1  H26A 3398   4.284   2.167   8.425 -0.4021 -1.2559 -1.0032
   46CHL1  H26B 3399   4.302   2.169   8.249  0.1284  2.3618 -1.6588
   46CHL1  H26C 3400   4.224   2.312   8.341  2.5173  0.6473  0.1213
   46CHL1   C27 3401   4.042   2.165   8.481 -0.7009  0.2190  0.0361
   46CHL1  H27A 3402   4.101   2.103   8.552 -1.0164 -1.1772 -0.8855
   46CHL1  H27B 3403   4.058   2.270   8.514  0.4835 -0.2108  0.9268
   46CHL1  H27C 3404   3.934   2.142   8.496 -1.0500  2.2445  1.0377
   47CHL1    C3 3405   3.054   3.477   6.796  0.4286  0.1691  0.3669
   47CHL1    H3 3406   3.158   3.516   6.800  0.6346 -0.2715 -0.4482
   47CHL1    O3 3407   3.022   3.480   6.656 -0.1216  0.4065 -0.4442
   47CHL1   H3' 3408   2.967   3.404   6.634  0.7276  0.2364 -2.1562
   47CHL1    C4 3409   3.056   3.342   6.854  0.4022  0.3396 -0.0148
   47CHL1   H4A 3410   2.957   3.294   6.842  0.1648  0.8384 -0.0614
   47CHL1   H4B 3411   3.128   3.284   6.793 -1.8548 -3.4718  0.5702
   47CHL1    C5 3412   3.090   3.337   7.001 -0.0375 -0.2819  0.3035
   47CHL1    C6 3413   3.195   3.266   7.044  0.0237 -0.1872 -0.5218
   47CHL1    H6 3414   3.254   3.206   6.974 -2.8557 -2.5959 -1.0935
   47CHL1    C7 3415   3.224   3.244   7.186 -0.1848 -0.1241 -0.3431
   47CHL1   H7A 3416   3.244   3.138   7.213 -0.0641  0.4813  2.2719
   47CHL1   H7B 3417   3.305   3.313   7.220 -0.9992  1.1173 -0.8502
   47CHL1    C8 3418   3.105   3.279   7.282 -0.3216  0.0586 -0.9126
   47CHL1    H8 3419   3.028   3.199   7.289 -0.7141  0.5740  2.5513
   47CHL1   C14 3420   3.158   3.296   7.421  0.3355 -0.1263  0.0047
   47CHL1   H14 3421   3.218   3.389   7.417 -0.8550  0.6593 -0.1345
   47CHL1   C15 3422   3.245   3.188   7.487  0.5396 -1.1026 -1.1042
   47CHL1  H15A 3423   3.219   3.083   7.462  0.1220 -1.1128 -0.6461
   47CHL1  H15B 3424   3.348   3.208   7.449  0.2505  1.0617 -0.8521
   47CHL1   C16 3425   3.242   3.216   7.640 -0.1719  0.2267  0.6935
   47CHL1  H16A 3426   3.208   3.122   7.687 -0.7124 -0.9540 -1.9034
   47CHL1  H16B 3427   3.341   3.244   7.683 -0.4131 -1.9387  2.8785
   47CHL1   C17 3428   3.143   3.338   7.656 -0.4650  0.2851  0.9545
   47CHL1   H17 3429   3.196   3.434   7.638  3.0225 -1.9485 -2.0308
   47CHL1   C13 3430   3.049   3.331   7.532  0.1956 -0.3857 -0.5889
   47CHL1   C18 3431   2.939   3.216   7.546  0.1377  0.5857  1.0872
   47CHL1  H18A 3432   2.862   3.234   7.624  1.2518  1.4885  2.0223
   47CHL1  H18B 3433   2.882   3.217   7.451 -0.1403  0.4254  1.2529
   47CHL1  H18C 3434   2.993   3.120   7.560 -0.3876  0.3438  1.4877
   47CHL1   C12 3435   2.988   3.460   7.488  0.5111 -0.4510  0.0230
   47CHL1  H12A 3436   2.901   3.478   7.554  1.7701 -1.5876  2.1240
   47CHL1  H12B 3437   3.058   3.545   7.504  0.4479 -0.5193  0.7192
   47CHL1   C11 3438   2.932   3.448   7.340 -0.8542 -0.8443 -0.0588
   47CHL1  H11A 3439   2.849   3.376   7.352 -1.3799 -0.1465  0.5941
   47CHL1  H11B 3440   2.883   3.544   7.312 -0.1225 -0.6314 -0.6440
   47CHL1    C9 3441   3.036   3.415   7.240 -0.5300  0.0635 -0.9103
   47CHL1    H9 3442   3.118   3.488   7.257 -1.3557  0.6729  0.6190
   47CHL1   C10 3443   2.988   3.413   7.093  0.0726 -0.7535 -0.7224
   47CHL1   C19 3444   2.852   3.338   7.089  0.1160  0.2995 -0.0645
   47CHL1  H19A 3445   2.820   3.322   6.984  1.4531 -0.7442 -0.3373
   47CHL1  H19B 3446   2.856   3.237   7.135 -0.7179  1.4933  2.8521
   47CHL1  H19C 3447   2.763   3.392   7.128  0.5848  0.1368  1.2668
   47CHL1    C1 3448   2.987   3.559   7.038  0.1133 -0.3150  0.1896
   47CHL1   H1A 3449   2.922   3.631   7.093  0.7631  1.3436 -1.1302
   47CHL1   H1B 3450   3.089   3.602   7.046  0.2749 -0.7596  0.5431
   47CHL1    C2 3451   2.958   3.568   6.887 -0.1355  0.6084  0.5832
   47CHL1   H2A 3452   2.977   3.674   6.862  1.9518  0.6812  2.1856
   47CHL1   H2B 3453   2.849   3.549   6.877  0.1693 -0.7491 -0.4048
   47CHL1   C20 3454   3.084   3.343   7.798 -0.1752 -0.1138  0.1291
   47CHL1   H20 3455   3.002   3.269   7.804 -1.1944  0.9371 -0.5001
   47CHL1   C21 3456   3.019   3.476   7.812  0.5633 -0.7089 -0.2548
   47CHL1  H21A 3457   2.980   3.498   7.914 -2.1392 -0.2330 -1.3001
   47CHL1  H21B 3458   2.924   3.472   7.754  0.5440 -2.4894 -0.1378
   47CHL1  H21C 3459   3.088   3.560   7.789 -0.5331 -0.4952 -3.2746
   47CHL1   C22 3460   3.184   3.315   7.912  0.2437  0.4186  0.5172
   47CHL1  H22A 3461   3.214   3.209   7.899 -2.4868 -0.2863 -0.6993
   47CHL1  H22B 3462   3.271   3.383   7.898 -1.0063  1.6095 -2.3462
   47CHL1   C23 3463   3.125   3.326   8.056 -0.4489 -0.3664 -0.3775
   47CHL1  H23A 3464   3.090   3.430   8.073  0.6470 -0.1240  0.5112
   47CHL1  H23B 3465   3.039   3.260   8.083  0.2713 -0.5058  1.7412
   47CHL1   C24 3466   3.230   3.321   8.169 -0.1292  0.2933  0.6205
   47CHL1  H24A 3467   3.293   3.412   8.175 -0.9440  1.0217 -1.1165
   47CHL1  H24B 3468   3.170   3.317   8.262 -0.3772  0.7518  0.4826
   47CHL1   C25 3469   3.318   3.188   8.172 -1.2393 -0.3469 -0.2666
   47CHL1   H25 3470   3.380   3.194   8.080 -0.2827  0.1437  0.3888
   47CHL1   C26 3471   3.403   3.183   8.303  0.4642 -0.1693  0.8214
   47CHL1  H26A 3472   3.463   3.090   8.308  1.2916  0.3926  4.3349
   47CHL1  H26B 3473   3.475   3.268   8.304  0.1336  0.1500  2.9150
   47CHL1  H26C 3474   3.347   3.182   8.399  2.1543  0.2903  1.8627
   47CHL1   C27 3475   3.246   3.059   8.159  0.4445 -0.3560  0.0011
   47CHL1  H27A 3476   3.173   3.066   8.076  0.1111  1.4343  0.4047
   47CHL1  H27B 3477   3.315   2.974   8.139 -0.7515 -1.7083  1.4220
   47CHL1  H27C 3478   3.181   3.028   8.243 -1.6693  1.4505 -0.8704
   48CHL1    C3 3479   6.549   0.148   6.489  0.8436 -0.4182 -0.2118
   48CHL1    H3 3480   6.645   0.111   6.531  0.2712 -0.8108  0.8036
   48CHL1    O3 3481   6.549   0.186   6.354  0.1193  0.3703  0.3854
   48CHL1   H3' 3482   6.457   0.209   6.341  0.2426 -0.1252 -1.5886
   48CHL1    C4 3483   6.440   0.036   6.510 -0.4192 -0.8456  0.2582
   48CHL1   H4A 3484   6.347   0.068   6.460 -0.5591 -1.6875 -0.0473
   48CHL1   H4B 3485   6.482  -0.044   6.445  3.8255  2.2361 -1.2117
   48CHL1    C5 3486   6.430  -0.003   6.657  0.3800  0.3530  0.2047
   48CHL1    C6 3487   6.448  -0.130   6.706  0.1787  0.1693 -0.1916
   48CHL1    H6 3488   6.466  -0.215   6.640 -0.1118  0.2113 -0.3263
   48CHL1    C7 3489   6.443  -0.170   6.847  0.2740 -0.2399  0.3610
   48CHL1   H7A 3490   6.377  -0.258   6.860  0.2127 -0.0314  1.5244
   48CHL1   H7B 3491   6.545  -0.203   6.875  0.0911 -0.7099  0.4858
   48CHL1    C8 3492   6.386  -0.060   6.937 -0.8041  0.2613 -0.2525
   48CHL1    H8 3493   6.276  -0.057   6.918 -1.0499 -0.1419  1.0353
   48CHL1   C14 3494   6.431  -0.092   7.085  0.0922  0.3412  0.5086
   48CHL1   H14 3495   6.541  -0.084   7.073  0.0956  0.4811  0.6266
   48CHL1   C15 3496   6.410  -0.231   7.143 -0.7158  0.4898  0.2466
   48CHL1  H15A 3497   6.303  -0.244   7.114 -0.5076 -0.4962 -0.1152
   48CHL1  H15B 3498   6.468  -0.315   7.100 -1.4581 -1.2331  2.4141
   48CHL1   C16 3499   6.435  -0.210   7.290 -0.2313 -0.8184 -0.2449
   48CHL1  H16A 3500   6.354  -0.258   7.350 -1.3107 -2.4335 -2.8419
   48CHL1  H16B 3501   6.533  -0.256   7.315 -0.1640 -0.5582 -0.0189
   48CHL1   C17 3502   6.451  -0.054   7.319 -0.0425  0.9851 -0.1535
   48CHL1   H17 3503   6.561  -0.044   7.307  0.3690 -0.7947  1.6192
   48CHL1   C13 3504   6.396   0.012   7.193 -0.2608  0.0307 -0.0817
   48CHL1   C18 3505   6.243   0.030   7.209 -1.3017 -0.5360 -0.0988
   48CHL1  H18A 3506   6.218   0.114   7.277 -0.2719 -2.0486  2.2869
   48CHL1  H18B 3507   6.200   0.058   7.111 -0.1960  1.9446  0.0415
   48CHL1  H18C 3508   6.193  -0.054   7.262  3.7734 -3.2817  0.9293
   48CHL1   C12 3509   6.458   0.144   7.155  0.1353 -0.3740 -0.5321
   48CHL1  H12A 3510   6.443   0.229   7.224 -1.8404 -2.3020  1.5553
   48CHL1  H12B 3511   6.569   0.139   7.154  0.0636 -3.0749 -0.5187
   48CHL1   C11 3512   6.420   0.185   7.007  0.1723 -0.5229 -0.3367
   48CHL1  H11A 3513   6.311   0.204   7.012 -0.2806 -1.5267 -3.5911
   48CHL1  H11B 3514   6.474   0.276   6.974 -0.5267 -0.6215 -1.8716
   48CHL1    C9 3515   6.444   0.079   6.896  0.8369 -0.5913 -0.0223
   48CHL1    H9 3516   6.554   0.063   6.891  1.3539  2.1494  1.0200
   48CHL1   C10 3517   6.409   0.124   6.749 -0.0724 -0.5424 -0.2718
   48CHL1   C19 3518   6.259   0.168   6.735 -0.6274 -0.2443 -0.0745
   48CHL1  H19A 3519   6.244   0.194   6.628 -1.1501  3.0987  0.7081
   48CHL1  H19B 3520   6.197   0.079   6.761  0.5685 -0.5538  1.9072
   48CHL1  H19C 3521   6.220   0.247   6.801 -0.7105 -1.0920  0.9182
   48CHL1    C1 3522   6.506   0.237   6.714 -0.6290 -0.3037  0.3207
   48CHL1   H1A 3523   6.483   0.322   6.782 -1.0330 -1.5217  1.7484
   48CHL1   H1B 3524   6.611   0.213   6.739  0.0262  3.7529  2.3489
   48CHL1    C2 3525   6.519   0.274   6.569 -0.1873  0.3969  0.1996
   48CHL1   H2A 3526   6.607   0.338   6.547  0.2053 -1.0141 -2.8153
   48CHL1   H2B 3527   6.436   0.330   6.520  0.1293  0.3433 -0.3994
   48CHL1   C20 3528   6.413  -0.007   7.460  0.0497 -0.1547 -0.1586
   48CHL1   H20 3529   6.311  -0.046   7.481 -0.0728  0.9595  1.4594
   48CHL1   C21 3530   6.429   0.138   7.486 -0.2749 -0.0246 -0.3165
   48CHL1  H21A 3531   6.386   0.161   7.586 -0.2190  0.4267 -0.3965
   48CHL1  H21B 3532   6.363   0.192   7.415 -2.3769  1.1470  2.3435
   48CHL1  H21C 3533   6.533   0.173   7.468 -1.4269  4.3213  0.3468
   48CHL1   C22 3534   6.506  -0.075   7.568  0.0702 -0.2921 -0.1188
   48CHL1  H22A 3535   6.461  -0.052   7.667 -1.6502 -0.0662 -0.9001
   48CHL1  H22B 3536   6.473  -0.181   7.554 -0.4833  0.0528 -1.6738
   48CHL1   C23 3537   6.657  -0.065   7.571 -0.1601 -0.3561  0.1209
   48CHL1  H23A 3538   6.691  -0.070   7.465  1.0267 -4.3897  0.5194
   48CHL1  H23B 3539   6.676   0.039   7.606 -1.6131  0.5072 -1.5253
   48CHL1   C24 3540   6.723  -0.187   7.650 -0.0900  0.1268  0.1479
   48CHL1  H24A 3541   6.713  -0.285   7.598 -1.3525  0.3206 -0.0088
   48CHL1  H24B 3542   6.831  -0.162   7.654 -0.8027  3.6794  0.3544
   48CHL1   C25 3543   6.685  -0.182   7.802 -0.2974  0.0625 -0.8225
   48CHL1   H25 3544   6.576  -0.202   7.798 -0.1148 -0.9712 -0.7949
   48CHL1   C26 3545   6.759  -0.293   7.879  0.1773  0.0761 -0.7214
   48CHL1  H26A 3546   6.867  -0.267   7.873  0.4513 -0.7597  0.3861
   48CHL1  H26B 3547   6.718  -0.291   7.982 -0.3822  0.7675 -0.9433
   48CHL1  H26C 3548   6.730  -0.388   7.829 -1.0577  0.4531 -0.7435
   48CHL1   C27 3549   6.697  -0.047   7.872  0.0769 -0.0270  0.0401
   48CHL1  H27A 3550   6.701  -0.047   7.983  2.9051 -0.3173  0.0003
   48CHL1  H27B 3551   6.785   0.009   7.834 -1.0716  2.2847  0.5978
   48CHL1  H27C 3552   6.613   0.021   7.845 -0.8636 -1.3601 -0.5434
   49CHL1    C3 3553   5.732   6.214   6.617  0.0092 -0.4220  0.0455
   49CHL1    H3 3554   5.753   6.323   6.611 -0.0461 -0.4094  0.0851
   49CHL1    O3 3555   5.664   6.183   6.492 -0.2597 -0.5729  0.5390
   49CHL1   H3' 3556   5.733   6.147   6.436  0.3645  1.0814  0.1613
   49CHL1    C4 3557   5.859   6.133   6.631 -0.4423  0.0430  0.9878
   49CHL1   H4A 3558   5.854   6.022   6.622  0.8758  0.0670 -0.3831
   49CHL1   H4B 3559   5.925   6.165   6.548 -1.2111 -0.1860  0.2743
   49CHL1    C5 3560   5.924   6.176   6.756  0.2934  0.5264  0.3142
   49CHL1    C6 3561   6.049   6.218   6.766 -0.6854 -0.2700  0.1685
   49CHL1    H6 3562   6.107   6.226   6.673 -0.0983 -0.1359  0.5412
   49CHL1    C7 3563   6.120   6.243   6.892  0.3450  0.2988  1.3455
   49CHL1   H7A 3564   6.228   6.220   6.888  0.1574 -0.5216  0.9147
   49CHL1   H7B 3565   6.111   6.352   6.914 -1.6238 -0.0099  2.3193
   49CHL1    C8 3566   6.048   6.187   7.018 -0.3753 -0.2319 -0.1330
   49CHL1    H8 3567   6.063   6.078   7.033  0.2217 -0.1677 -0.2510
   49CHL1   C14 3568   6.114   6.244   7.143  0.4642  0.1600  0.7914
   49CHL1   H14 3569   6.091   6.351   7.129 -1.9226 -0.3025  0.8342
   49CHL1   C15 3570   6.266   6.237   7.154 -0.4591  0.1292  0.8274
   49CHL1  H15A 3571   6.312   6.136   7.141  0.2778  0.5318  0.1565
   49CHL1  H15B 3572   6.315   6.303   7.080  0.3051 -0.0616  1.1484
   49CHL1   C16 3573   6.292   6.275   7.293  0.2132 -0.5584 -0.1684
   49CHL1  H16A 3574   6.356   6.202   7.348 -0.5692 -0.9772  0.2110
   49CHL1  H16B 3575   6.340   6.375   7.285  0.7203 -0.8757 -1.4051
   49CHL1   C17 3576   6.155   6.273   7.367  1.0097 -0.0901 -0.2279
   49CHL1   H17 3577   6.122   6.379   7.365  1.8229  0.1648 -1.3005
   49CHL1   C13 3578   6.061   6.200   7.272  0.2459  0.9140 -0.1310
   49CHL1   C18 3579   6.089   6.044   7.296  0.1631 -0.3920  0.1392
   49CHL1  H18A 3580   6.035   6.021   7.391 -3.1799 -3.1092 -2.1550
   49CHL1  H18B 3581   6.050   5.975   7.218  0.6915 -1.3999  0.7359
   49CHL1  H18C 3582   6.196   6.018   7.307  0.7759  1.7978 -0.1275
   49CHL1   C12 3583   5.907   6.236   7.276  0.0619  0.0373 -0.3868
   49CHL1  H12A 3584   5.857   6.205   7.370 -1.5352 -0.6675 -1.4339
   49CHL1  H12B 3585   5.887   6.345   7.267 -1.1706 -0.2563 -1.4792
   49CHL1   C11 3586   5.829   6.169   7.160 -0.8032  0.0488  0.3473
   49CHL1  H11A 3587   5.838   6.060   7.177  2.1316  0.5005  2.5210
   49CHL1  H11B 3588   5.725   6.206   7.165 -0.2155  2.2499 -1.6565
   49CHL1    C9 3589   5.894   6.211   7.018  0.1634  0.7195  0.8902
   49CHL1    H9 3590   5.881   6.322   7.014  1.3850  0.8660  0.8435
   49CHL1   C10 3591   5.833   6.157   6.884  0.0100 -0.3832  0.0325
   49CHL1   C19 3592   5.813   5.998   6.901  0.3468 -0.1229 -0.2317
   49CHL1  H19A 3593   5.773   5.976   7.002 -1.7080 -1.0616 -1.1915
   49CHL1  H19B 3594   5.741   5.958   6.826 -3.5561  2.4064  1.8198
   49CHL1  H19C 3595   5.910   5.947   6.882 -0.2970 -1.0223 -1.2243
   49CHL1    C1 3596   5.691   6.221   6.867  0.4190  0.1179  0.0644
   49CHL1   H1A 3597   5.632   6.183   6.954  4.0056 -0.2807  2.5191
   49CHL1   H1B 3598   5.696   6.331   6.884  1.8608 -0.1186  1.3638
   49CHL1    C2 3599   5.628   6.190   6.734 -0.3190 -0.2057  0.1731
   49CHL1   H2A 3600   5.543   6.255   6.706 -1.6891 -2.5313 -1.4463
   49CHL1   H2B 3601   5.589   6.086   6.726  0.0589 -0.4160  0.9787
   49CHL1   C20 3602   6.162   6.230   7.519 -0.9978 -0.0717  0.4439
   49CHL1   H20 3603   6.204   6.127   7.530  0.2685  0.5641  2.0115
   49CHL1   C21 3604   6.030   6.244   7.587 -0.1068  0.4677  0.0299
   49CHL1  H21A 3605   6.027   6.217   7.695  1.3447 -0.3312 -0.1041
   49CHL1  H21B 3606   5.949   6.177   7.553 -0.5723 -2.3279  5.4980
   49CHL1  H21C 3607   5.997   6.349   7.571  1.4015  0.6530 -2.4144
   49CHL1   C22 3608   6.279   6.314   7.583  0.9246 -0.2625 -0.4210
   49CHL1  H22A 3609   6.371   6.282   7.529  0.8194  0.9575 -1.3633
   49CHL1  H22B 3610   6.268   6.422   7.559  0.8764  0.3671  2.1339
   49CHL1   C23 3611   6.285   6.306   7.734  0.4048  0.0986  0.2551
   49CHL1  H23A 3612   6.191   6.323   7.791  0.0542  0.2143 -0.3480
   49CHL1  H23B 3613   6.322   6.204   7.756  4.3407  0.9159 -1.7150
   49CHL1   C24 3614   6.391   6.403   7.794  0.3578 -0.3941  0.1503
   49CHL1  H24A 3615   6.491   6.400   7.745  0.9297  2.7152  0.9000
   49CHL1  H24B 3616   6.357   6.508   7.785 -0.4241 -0.7081 -0.7142
   49CHL1   C25 3617   6.406   6.372   7.943  0.5214  0.3184 -0.1283
   49CHL1   H25 3618   6.473   6.451   7.986 -0.8665  0.0273  2.8691
   49CHL1   C26 3619   6.266   6.387   8.022 -0.3942 -0.2022 -0.2174
   49CHL1  H26A 3620   6.216   6.483   8.000 -2.5350 -1.0151  0.8727
   49CHL1  H26B 3621   6.211   6.291   8.017  1.2283 -1.4397  2.9093
   49CHL1  H26C 3622   6.288   6.403   8.130  0.3745  2.3696 -0.6924
   49CHL1   C27 3623   6.475   6.238   7.976 -0.6634 -0.5152 -0.0823
   49CHL1  H27A 3624   6.564   6.229   7.909 -0.1679 -1.0460  0.6323
   49CHL1  H27B 3625   6.517   6.238   8.079 -0.6705 -0.1086 -0.0779
   49CHL1  H27C 3626   6.408   6.152   7.953 -0.9338 -0.3051 -0.0722
   50CHL1    C3 3627   1.537   1.094   6.752 -0.8168  0.4582 -0.2992
   50CHL1    H3 3628   1.630   1.033   6.752 -1.1522 -0.0522 -0.1953
   50CHL1    O3 3629   1.516   1.138   6.622  0.0344 -0.0761  0.3597
   50CHL1   H3' 3630   1.420   1.136   6.610 -0.7845  2.9939  4.2543
   50CHL1    C4 3631   1.431   0.982   6.784  0.7701 -0.1531 -0.1642
   50CHL1   H4A 3632   1.328   1.025   6.778 -0.0365 -2.1356 -3.3435
   50CHL1   H4B 3633   1.429   0.902   6.707  1.6386  0.7575 -1.1658
   50CHL1    C5 3634   1.461   0.928   6.920  0.1359 -0.6965  0.1320
   50CHL1    C6 3635   1.487   0.797   6.937  0.7331  0.7722  0.9881
   50CHL1    H6 3636   1.466   0.735   6.849 -1.4746  2.4809  0.2162
   50CHL1    C7 3637   1.497   0.726   7.066 -0.2828  0.1794  0.8364
   50CHL1   H7A 3638   1.433   0.636   7.073  0.5636 -0.3127  2.9132
   50CHL1   H7B 3639   1.601   0.688   7.053 -0.2199  0.8717 -1.0229
   50CHL1    C8 3640   1.471   0.822   7.185  0.4916  0.1242 -0.2450
   50CHL1    H8 3641   1.361   0.828   7.204  0.4221 -0.1497 -0.5598
   50CHL1   C14 3642   1.533   0.759   7.316 -0.2708 -0.7628 -0.2973
   50CHL1   H14 3643   1.644   0.755   7.309  0.0174 -0.6886  2.8544
   50CHL1   C15 3644   1.502   0.610   7.350 -0.1318 -0.0388  0.1342
   50CHL1  H15A 3645   1.396   0.601   7.318  0.2456  0.6619 -1.4435
   50CHL1  H15B 3646   1.566   0.541   7.291  0.1383  1.9824 -2.1378
   50CHL1   C16 3647   1.534   0.609   7.499 -0.7552 -0.0110  0.0681
   50CHL1  H16A 3648   1.452   0.568   7.562  0.8164 -4.0139 -0.1588
   50CHL1  H16B 3649   1.617   0.540   7.526 -0.9743  0.4098  2.0096
   50CHL1   C17 3650   1.575   0.752   7.545  0.1695  0.1251  0.1141
   50CHL1   H17 3651   1.684   0.759   7.522  0.5693 -0.7011  1.6443
   50CHL1   C13 3652   1.506   0.845   7.439  0.9354  0.2730 -0.1469
   50CHL1   C18 3653   1.356   0.853   7.469  0.2930  0.1552  0.2735
   50CHL1  H18A 3654   1.303   0.903   7.385  1.6685  1.0843 -0.0784
   50CHL1  H18B 3655   1.301   0.757   7.478 -1.0389  0.7820 -0.8408
   50CHL1  H18C 3656   1.329   0.907   7.562 -2.8338 -0.5338 -0.1498
   50CHL1   C12 3657   1.575   0.984   7.411  0.0161 -0.4798 -0.5294
   50CHL1  H12A 3658   1.553   1.050   7.497  1.0470 -2.7240  1.5849
   50CHL1  H12B 3659   1.683   0.965   7.394 -0.2464 -1.0443 -1.6544
   50CHL1   C11 3660   1.517   1.056   7.284  0.0318  0.0308 -0.1563
   50CHL1  H11A 3661   1.419   1.101   7.307  0.9722  1.2112  1.7837
   50CHL1  H11B 3662   1.583   1.139   7.251 -0.8129  0.3627 -1.0437
   50CHL1    C9 3663   1.516   0.965   7.159  0.6989  0.2646 -0.3833
   50CHL1    H9 3664   1.625   0.950   7.150  0.6376 -1.9981  1.6405
   50CHL1   C10 3665   1.466   1.036   7.032 -0.2685 -0.0756  0.3593
   50CHL1   C19 3666   1.314   1.089   7.058 -0.1551  0.0068  0.4771
   50CHL1  H19A 3667   1.277   1.132   6.962 -0.5568 -0.8197  0.2523
   50CHL1  H19B 3668   1.247   1.006   7.088 -1.2340  0.7036  0.0558
   50CHL1  H19C 3669   1.309   1.164   7.140 -3.7735 -0.6679  1.0550
   50CHL1    C1 3670   1.563   1.143   6.992  0.1760  0.7220 -0.5441
   50CHL1   H1A 3671   1.569   1.233   7.057  1.0265  0.8713 -0.8170
   50CHL1   H1B 3672   1.669   1.112   6.987  0.4156  1.5983 -1.1613
   50CHL1    C2 3673   1.543   1.208   6.854  0.1812  0.2689 -0.2241
   50CHL1   H2A 3674   1.621   1.285   6.834  0.8635 -0.9054 -2.3120
   50CHL1   H2B 3675   1.450   1.268   6.854 -1.0973 -1.6449 -0.8299
   50CHL1   C20 3676   1.560   0.792   7.694 -0.4347 -0.0908 -0.4513
   50CHL1   H20 3677   1.454   0.816   7.716 -0.8553 -1.6465 -0.6918
   50CHL1   C21 3678   1.662   0.900   7.729 -0.4664 -0.0348  0.6948
   50CHL1  H21A 3679   1.658   0.937   7.834  0.6564  0.2118  0.6666
   50CHL1  H21B 3680   1.655   0.989   7.663  1.9769 -0.5471 -0.3765
   50CHL1  H21C 3681   1.764   0.859   7.710 -0.4754  0.7116 -1.2230
   50CHL1   C22 3682   1.590   0.664   7.789 -0.0275  0.1523  0.0060
   50CHL1  H22A 3683   1.503   0.596   7.777  0.8527 -1.0231  0.0677
   50CHL1  H22B 3684   1.683   0.608   7.764  0.7584  1.3570  0.1552
   50CHL1   C23 3685   1.605   0.696   7.934  0.0452 -0.1179 -1.0110
   50CHL1  H23A 3686   1.694   0.760   7.953 -0.2950  0.3465 -0.9985
   50CHL1  H23B 3687   1.513   0.754   7.956 -0.1899  0.2345 -2.7712
   50CHL1   C24 3688   1.620   0.570   8.020  1.2054  0.1118  0.4240
   50CHL1  H24A 3689   1.564   0.479   7.992  0.9779  0.0261  1.1359
   50CHL1  H24B 3690   1.725   0.544   7.996  1.8169  2.6784 -0.0378
   50CHL1   C25 3691   1.605   0.589   8.174 -0.1198 -0.7907  0.2929
   50CHL1   H25 3692   1.629   0.489   8.217  0.7824 -0.8187 -0.2559
   50CHL1   C26 3693   1.704   0.703   8.236 -0.0799 -0.5547  0.5431
   50CHL1  H26A 3694   1.670   0.803   8.200  0.6431  0.1060  1.6120
   50CHL1  H26B 3695   1.700   0.710   8.347  0.4678 -1.2777  0.6130
   50CHL1  H26C 3696   1.809   0.691   8.204 -0.1822  0.9556 -0.4766
   50CHL1   C27 3697   1.459   0.613   8.218 -0.0687 -0.4515 -0.1733
   50CHL1  H27A 3698   1.461   0.585   8.325  2.2851 -0.9109 -0.2854
   50CHL1  H27B 3699   1.429   0.719   8.205  0.0196 -0.6783 -2.7013
   50CHL1  H27C 3700   1.392   0.545   8.162  0.7866 -0.7943 -0.7945
   51CHL1    C3 3701   4.928   0.429   6.604 -0.0215 -0.5539  0.3396
   51CHL1    H3 3702   4.833   0.488   6.602 -0.2023 -0.7881  1.4261
   51CHL1    O3 3703   4.943   0.377   6.477 -0.0083  0.2443  0.2888
   51CHL1   H3' 3704   4.934   0.458   6.426 -1.8822  0.5152  0.9359
   51CHL1    C4 3705   5.047   0.509   6.643  0.3784 -1.2459 -0.5120
   51CHL1   H4A 3706   5.143   0.458   6.622  1.3336 -0.3268  1.3409
   51CHL1   H4B 3707   5.052   0.597   6.577  0.2837  0.3106  1.4484
   51CHL1    C5 3708   5.054   0.554   6.791 -0.1272 -0.6282  0.1728
   51CHL1    C6 3709   5.062   0.686   6.826 -0.3666 -0.1442 -0.7212
   51CHL1    H6 3710   5.088   0.760   6.749  3.3715  0.7395  1.1397
   51CHL1    C7 3711   5.052   0.749   6.966  0.9715 -0.2224 -0.0713
   51CHL1   H7A 3712   5.129   0.829   6.975  1.3171 -0.7795  2.8059
   51CHL1   H7B 3713   4.951   0.793   6.976  0.1368 -1.8162 -1.0949
   51CHL1    C8 3714   5.073   0.636   7.071  0.1592  0.6131  0.5485
   51CHL1    H8 3715   5.181   0.610   7.074  0.1712  0.7999  2.0428
   51CHL1   C14 3716   5.028   0.683   7.205 -0.6047  0.1004 -0.7786
   51CHL1   H14 3717   4.923   0.716   7.191 -1.0004 -0.0910  1.4708
   51CHL1   C15 3718   5.104   0.805   7.269  0.2035 -0.1582  0.4567
   51CHL1  H15A 3719   5.212   0.792   7.250  0.7049  0.8422  2.3470
   51CHL1  H15B 3720   5.069   0.900   7.223 -1.5126 -1.3950 -0.9408
   51CHL1   C16 3721   5.070   0.801   7.414 -0.2174  0.4520  0.0465
   51CHL1  H16A 3722   5.170   0.811   7.462  0.0337  0.9575 -0.5636
   51CHL1  H16B 3723   5.019   0.895   7.444 -1.3583  0.2460 -1.1359
   51CHL1   C17 3724   4.971   0.681   7.443 -1.3197 -0.4014  0.0084
   51CHL1   H17 3725   4.874   0.731   7.421 -1.2310  0.5262  1.5963
   51CHL1   C13 3726   5.010   0.585   7.321  0.6295 -0.3835  0.1593
   51CHL1   C18 3727   5.139   0.517   7.361  0.0049  0.4949  0.2373
   51CHL1  H18A 3728   5.206   0.587   7.414  1.0894  0.9898 -1.6813
   51CHL1  H18B 3729   5.124   0.422   7.417  0.0016  0.6692  0.5312
   51CHL1  H18C 3730   5.187   0.482   7.267 -1.6176  1.1816 -0.9031
   51CHL1   C12 3731   4.911   0.482   7.278  0.8843 -0.4863 -0.2227
   51CHL1  H12A 3732   4.897   0.406   7.358  0.2729  2.1008  2.2870
   51CHL1  H12B 3733   4.809   0.522   7.261  0.6633 -0.6112  0.7075
   51CHL1   C11 3734   4.963   0.408   7.149 -0.5221 -0.2178  0.3768
   51CHL1  H11A 3735   5.058   0.355   7.170  0.2114  2.0052  3.4111
   51CHL1  H11B 3736   4.883   0.333   7.129 -0.2374 -0.5476  0.4739
   51CHL1    C9 3737   4.985   0.509   7.032  0.5853 -0.2913  0.5833
   51CHL1    H9 3738   4.881   0.545   7.018  0.8271 -0.2704 -1.5629
   51CHL1   C10 3739   5.025   0.443   6.893 -0.4097 -0.2506  0.5530
   51CHL1   C19 3740   5.139   0.344   6.913  0.3417  0.4217  0.6697
   51CHL1  H19A 3741   5.105   0.247   6.957 -0.3788 -0.1476 -1.0717
   51CHL1  H19B 3742   5.178   0.310   6.814  0.8929  0.7410  0.7741
   51CHL1  H19C 3743   5.227   0.376   6.973  0.8994  2.0227 -0.9306
   51CHL1    C1 3744   4.909   0.362   6.840 -0.4730  0.2596  0.3201
   51CHL1   H1A 3745   4.904   0.264   6.892  0.6935 -0.5663 -1.0528
   51CHL1   H1B 3746   4.817   0.420   6.861  0.2373  1.2783  0.6888
   51CHL1    C2 3747   4.911   0.311   6.697 -0.8234 -0.1597 -0.2734
   51CHL1   H2A 3748   4.818   0.257   6.670 -0.1844 -1.6244  0.3486
   51CHL1   H2B 3749   4.995   0.240   6.683 -1.9384 -1.5673 -0.0196
   51CHL1   C20 3750   4.981   0.630   7.585  0.1695  0.5000  0.2099
   51CHL1   H20 3751   5.029   0.530   7.585 -0.9614 -0.0606 -0.1462
   51CHL1   C21 3752   4.834   0.605   7.627 -0.1019 -0.0495  0.7702
   51CHL1  H21A 3753   4.832   0.544   7.719  0.6118 -1.3308 -0.0288
   51CHL1  H21B 3754   4.769   0.551   7.555 -0.4835  2.8225 -1.2358
   51CHL1  H21C 3755   4.777   0.698   7.647 -1.6560 -0.6619 -0.5125
   51CHL1   C22 3756   5.046   0.722   7.689 -0.1175 -0.4561  0.0547
   51CHL1  H22A 3757   5.153   0.730   7.662  0.0515 -2.3746  0.0481
   51CHL1  H22B 3758   5.000   0.823   7.682  0.8987 -0.0319 -0.6620
   51CHL1   C23 3759   5.051   0.677   7.842 -0.2380  0.4080  0.0413
   51CHL1  H23A 3760   4.944   0.657   7.862  0.1928 -1.7446  0.4648
   51CHL1  H23B 3761   5.086   0.571   7.838 -4.3059 -1.2594  2.6723
   51CHL1   C24 3762   5.114   0.772   7.947 -0.6430 -0.2958 -0.9505
   51CHL1  H24A 3763   5.220   0.789   7.918 -0.2120 -2.5012 -0.8341
   51CHL1  H24B 3764   5.067   0.873   7.944  0.9618  0.6121  1.5747
   51CHL1   C25 3765   5.108   0.719   8.088 -0.3471  0.0348 -0.3775
   51CHL1   H25 3766   5.153   0.617   8.090 -0.7406 -0.1341  0.0297
   51CHL1   C26 3767   5.192   0.801   8.192  0.2353 -0.8136  0.4824
   51CHL1  H26A 3768   5.186   0.745   8.288  0.1306 -1.2932  0.2008
   51CHL1  H26B 3769   5.295   0.795   8.150  0.3293  0.3348  0.5072
   51CHL1  H26C 3770   5.145   0.901   8.202  0.6163 -0.3733 -1.5457
   51CHL1   C27 3771   4.965   0.688   8.142  0.3349 -0.1435 -0.2786
   51CHL1  H27A 3772   4.924   0.610   8.075  1.1952 -0.8976  0.0440
   51CHL1  H27B 3773   4.974   0.649   8.246  0.1453 -2.3653 -1.0581
   51CHL1  H27C 3774   4.911   0.782   8.121  2.9742  1.1281 -1.9999
   52CHL1    C3 3775   2.437   1.241   6.841  0.1809  1.4324 -0.3094
   52CHL1    H3 3776   2.344   1.180   6.839  0.5541  0.8139  0.5228
   52CHL1    O3 3777   2.463   1.276   6.710 -0.2043 -0.2239  0.2692
   52CHL1   H3' 3778   2.519   1.354   6.719 -1.0517  0.3102  1.2012
   52CHL1    C4 3779   2.417   1.376   6.922  0.4824 -0.0155  0.4353
   52CHL1   H4A 3780   2.496   1.443   6.882  0.3832 -0.4501 -0.5319
   52CHL1   H4B 3781   2.322   1.418   6.884 -1.0283 -2.4569  1.2559
   52CHL1    C5 3782   2.423   1.368   7.075  0.0173 -0.4705 -0.2693
   52CHL1    C6 3783   2.335   1.434   7.148  0.2009 -0.1147  0.3259
   52CHL1    H6 3784   2.259   1.500   7.104  0.9619  0.0789 -0.7269
   52CHL1    C7 3785   2.325   1.417   7.299  0.5357 -0.7357  0.4444
   52CHL1   H7A 3786   2.315   1.517   7.348 -2.4203 -1.9020  2.5250
   52CHL1   H7B 3787   2.230   1.367   7.327  1.1800 -1.2044  1.9002
   52CHL1    C8 3788   2.441   1.344   7.361 -0.1499  0.2764 -0.2912
   52CHL1    H8 3789   2.527   1.414   7.359 -1.3866  1.8573 -0.5158
   52CHL1   C14 3790   2.400   1.307   7.504  0.0157 -0.0598 -0.5515
   52CHL1   H14 3791   2.316   1.236   7.493 -1.2473  1.3636 -0.4808
   52CHL1   C15 3792   2.345   1.412   7.607  0.5124  0.4596  0.2505
   52CHL1  H15A 3793   2.415   1.498   7.609 -0.0182  0.8865  0.5471
   52CHL1  H15B 3794   2.240   1.441   7.588  0.3600 -0.2293 -0.0133
   52CHL1   C16 3795   2.359   1.342   7.741  0.2632 -0.0919  0.9722
   52CHL1  H16A 3796   2.376   1.405   7.831  0.2583  1.4066 -0.0219
   52CHL1  H16B 3797   2.255   1.311   7.766 -0.5968  2.8569  1.5295
   52CHL1   C17 3798   2.446   1.219   7.728  0.3006  0.2018  0.0625
   52CHL1   H17 3799   2.383   1.128   7.722  1.1793 -0.4158 -0.0444
   52CHL1   C13 3800   2.510   1.236   7.585 -0.8692  0.4685 -0.0102
   52CHL1   C18 3801   2.639   1.326   7.599 -0.0322 -0.1597 -0.3242
   52CHL1  H18A 3802   2.610   1.428   7.635  1.6505  0.7010 -1.2940
   52CHL1  H18B 3803   2.709   1.278   7.670 -0.8987 -1.2437 -0.1839
   52CHL1  H18C 3804   2.702   1.343   7.509  2.3881 -0.4768  1.2151
   52CHL1   C12 3805   2.557   1.112   7.510 -0.0684 -0.2896 -0.4045
   52CHL1  H12A 3806   2.653   1.074   7.551 -0.2526  2.0250  2.5459
   52CHL1  H12B 3807   2.481   1.031   7.512 -1.2001  0.6190  3.5549
   52CHL1   C11 3808   2.595   1.147   7.358  0.4667  0.0567 -0.3376
   52CHL1  H11A 3809   2.693   1.201   7.353  0.6072 -0.1773 -0.1287
   52CHL1  H11B 3810   2.610   1.050   7.307  0.6088  0.2150 -0.6008
   52CHL1    C9 3811   2.481   1.222   7.281  0.5567 -0.4767 -0.9989
   52CHL1    H9 3812   2.402   1.145   7.270  3.0694 -3.1851 -1.3389
   52CHL1   C10 3813   2.525   1.265   7.136  0.1161 -0.2468  0.2253
   52CHL1   C19 3814   2.665   1.328   7.139 -0.4579  0.6892 -0.1496
   52CHL1  H19A 3815   2.675   1.403   7.221 -0.2852  0.8207 -0.2908
   52CHL1  H19B 3816   2.734   1.241   7.150  1.0244  1.9168  0.7487
   52CHL1  H19C 3817   2.685   1.386   7.047  2.9921  2.7195  1.6771
   52CHL1    C1 3818   2.531   1.131   7.048  0.2475  0.2508 -0.0291
   52CHL1   H1A 3819   2.599   1.047   7.074 -0.6458 -0.1574  1.0800
   52CHL1   H1B 3820   2.431   1.084   7.062  1.1910 -1.7308  0.4107
   52CHL1    C2 3821   2.553   1.159   6.899 -0.0310 -0.0625  0.4697
   52CHL1   H2A 3822   2.565   1.067   6.839 -0.9597  0.8579 -1.2142
   52CHL1   H2B 3823   2.648   1.215   6.881  0.5602 -0.9615  0.7274
   52CHL1   C20 3824   2.517   1.175   7.857  0.3651  0.1228  0.2515
   52CHL1   H20 3825   2.604   1.241   7.875  2.0046 -2.3297  1.8769
   52CHL1   C21 3826   2.568   1.021   7.835 -0.4834 -0.2400 -0.9262
   52CHL1  H21A 3827   2.481   0.952   7.832 -1.8226  1.4283 -2.6925
   52CHL1  H21B 3828   2.644   0.999   7.913 -0.8461  1.2150 -0.1319
   52CHL1  H21C 3829   2.624   1.008   7.740  1.1223 -0.5845  0.0265
   52CHL1   C22 3830   2.415   1.170   7.978 -0.3458  0.4668  0.0668
   52CHL1  H22A 3831   2.328   1.238   7.963 -0.9795  0.5297  3.3115
   52CHL1  H22B 3832   2.377   1.067   7.990  1.7654 -0.2504  0.9105
   52CHL1   C23 3833   2.480   1.211   8.109 -0.6744  0.3055 -0.5104
   52CHL1  H23A 3834   2.546   1.129   8.144  1.3371  0.8808 -2.6574
   52CHL1  H23B 3835   2.540   1.304   8.103  0.8035 -0.4027  1.9922
   52CHL1   C24 3836   2.365   1.238   8.209 -0.3804 -0.9680  0.7591
   52CHL1  H24A 3837   2.308   1.331   8.186 -1.1222 -2.3863 -4.3052
   52CHL1  H24B 3838   2.293   1.153   8.207 -0.9570 -0.4832  0.5665
   52CHL1   C25 3839   2.414   1.262   8.356  0.4843 -0.3336 -0.0927
   52CHL1   H25 3840   2.493   1.339   8.342 -1.7525  2.3749  1.2027
   52CHL1   C26 3841   2.303   1.332   8.440 -0.4212  0.1274  0.1019
   52CHL1  H26A 3842   2.282   1.436   8.409 -1.1121 -0.0775 -0.1251
   52CHL1  H26B 3843   2.206   1.278   8.435  0.3481 -1.5119  1.7789
   52CHL1  H26C 3844   2.327   1.345   8.548 -0.5009  3.7157 -0.1999
   52CHL1   C27 3845   2.473   1.135   8.423  0.0739 -0.3142  0.5331
   52CHL1  H27A 3846   2.552   1.096   8.355 -0.6676 -1.2816  0.1860
   52CHL1  H27B 3847   2.529   1.163   8.514  1.4637 -0.6492 -0.1967
   52CHL1  H27C 3848   2.398   1.056   8.448  0.8760 -1.0072  0.8117
   53CHL1    C3 3849   3.249   3.922   6.957  0.5212  0.2385 -0.0319
   53CHL1    H3 3850   3.287   3.818   6.960  2.5115  0.9103 -0.2411
   53CHL1    O3 3851   3.209   3.931   6.821  0.2789 -0.7352 -0.0227
   53CHL1   H3' 3852   3.292   3.938   6.774  0.7719  1.6592  1.0277
   53CHL1    C4 3853   3.123   3.938   7.047 -0.4728  0.0897 -0.4380
   53CHL1   H4A 3854   3.090   4.042   7.029 -0.5175  0.0332 -0.6950
   53CHL1   H4B 3855   3.027   3.888   7.020 -0.8659  1.4668 -1.7186
   53CHL1    C5 3856   3.165   3.919   7.193 -1.0308 -0.0016 -0.4682
   53CHL1    C6 3857   3.131   3.816   7.270  0.3309  0.6441 -0.2491
   53CHL1    H6 3858   3.070   3.740   7.219 -1.2146  0.6644  1.4405
   53CHL1    C7 3859   3.155   3.796   7.416  0.5245  0.1233  0.8585
   53CHL1   H7A 3860   3.067   3.773   7.479  0.3732 -0.9506  0.2794
   53CHL1   H7B 3861   3.223   3.709   7.407 -0.0541 -0.1503 -1.5723
   53CHL1    C8 3862   3.215   3.921   7.481  0.6641  0.0855  0.9095
   53CHL1    H8 3863   3.130   3.990   7.498 -1.7864 -2.2525 -1.0274
   53CHL1   C14 3864   3.292   3.883   7.612  0.3200  0.2088 -0.0979
   53CHL1   H14 3865   3.384   3.841   7.567 -0.4983 -0.2825 -1.3757
   53CHL1   C15 3866   3.234   3.785   7.706  0.2408  0.2796 -0.7834
   53CHL1  H15A 3867   3.132   3.814   7.738  0.3335 -0.7573  0.5203
   53CHL1  H15B 3868   3.218   3.680   7.671 -0.0260 -0.1683  0.6422
   53CHL1   C16 3869   3.315   3.803   7.835  0.3603 -0.5443  0.2158
   53CHL1  H16A 3870   3.250   3.815   7.924  0.9215  1.0331  0.4424
   53CHL1  H16B 3871   3.398   3.730   7.849  0.5771 -0.2876  0.2854
   53CHL1   C17 3872   3.396   3.940   7.825 -0.8047 -0.4889  0.0731
   53CHL1   H17 3873   3.501   3.920   7.797 -0.5754  2.3413 -1.3879
   53CHL1   C13 3874   3.339   3.999   7.695  0.3252 -0.4297 -0.3726
   53CHL1   C18 3875   3.222   4.096   7.732 -0.1319  0.1701  0.2426
   53CHL1  H18A 3876   3.141   4.045   7.789  0.6731  1.1784  2.4138
   53CHL1  H18B 3877   3.245   4.187   7.792 -0.3901  0.1520  0.3735
   53CHL1  H18C 3878   3.173   4.132   7.639 -0.6232  2.6951  1.3942
   53CHL1   C12 3879   3.440   4.071   7.607  0.0859 -0.2519 -0.9270
   53CHL1  H12A 3880   3.464   4.169   7.654 -0.6734 -0.1768 -0.6953
   53CHL1  H12B 3881   3.537   4.016   7.608 -0.0949 -0.5756  0.3551
   53CHL1   C11 3882   3.394   4.108   7.460 -0.1422  0.0011  0.2064
   53CHL1  H11A 3883   3.322   4.193   7.466  1.3853  1.8402 -3.6352
   53CHL1  H11B 3884   3.483   4.137   7.400  0.7190 -1.9942  0.4559
   53CHL1    C9 3885   3.319   3.988   7.388 -0.5296  0.5936 -0.0610
   53CHL1    H9 3886   3.389   3.908   7.355 -1.2701  0.1414 -0.5833
   53CHL1   C10 3887   3.264   4.027   7.245 -0.1836  0.0837  0.9274
   53CHL1   C19 3888   3.201   4.167   7.244  0.1209 -0.4158  0.7363
   53CHL1  H19A 3889   3.108   4.167   7.305 -0.8154 -1.6362 -0.6201
   53CHL1  H19B 3890   3.269   4.247   7.281 -0.8097  2.1143 -2.4832
   53CHL1  H19C 3891   3.175   4.203   7.142 -1.3628 -0.8715  0.9328
   53CHL1    C1 3892   3.381   4.026   7.148  0.3258  0.0386  0.3448
   53CHL1   H1A 3893   3.443   4.111   7.186 -0.8891  0.7544  0.7782
   53CHL1   H1B 3894   3.439   3.932   7.158  0.1866 -0.0995 -0.1309
   53CHL1    C2 3895   3.359   4.030   6.991  0.1431  1.3541 -0.1502
   53CHL1   H2A 3896   3.450   4.014   6.929 -0.6866  1.7219 -1.4956
   53CHL1   H2B 3897   3.318   4.132   6.982 -2.4267  0.3128 -1.1960
   53CHL1   C20 3898   3.395   4.022   7.955 -0.1282 -0.7406 -0.1913
   53CHL1   H20 3899   3.288   4.041   7.980 -0.2554  0.0091 -1.2190
   53CHL1   C21 3900   3.485   4.148   7.946 -0.0564 -0.0812  0.1350
   53CHL1  H21A 3901   3.462   4.214   7.860 -1.3257 -1.1675 -0.3776
   53CHL1  H21B 3902   3.592   4.118   7.949  0.6600  2.2823  1.1037
   53CHL1  H21C 3903   3.474   4.217   8.033 -1.5437 -0.6083  0.3917
   53CHL1   C22 3904   3.441   3.937   8.082 -0.0847  0.6458 -0.2721
   53CHL1  H22A 3905   3.402   3.833   8.086  0.5996  0.3866  3.3629
   53CHL1  H22B 3906   3.551   3.943   8.096 -0.3475  1.0157  2.0670
   53CHL1   C23 3907   3.385   3.997   8.220  0.0281 -0.1484 -0.0424
   53CHL1  H23A 3908   3.426   3.932   8.300 -2.8433 -0.9514  0.8793
   53CHL1  H23B 3909   3.411   4.104   8.233  1.6524 -0.2566 -1.8738
   53CHL1   C24 3910   3.235   4.005   8.234  0.1587  0.1257 -0.2253
   53CHL1  H24A 3911   3.195   4.081   8.163 -0.5811 -0.6511 -0.6605
   53CHL1  H24B 3912   3.187   3.911   8.197 -0.7461 -0.0058  1.1941
   53CHL1   C25 3913   3.184   4.035   8.378 -0.2183  0.1177 -0.4659
   53CHL1   H25 3914   3.078   3.999   8.375  0.1050 -0.8264 -1.1747
   53CHL1   C26 3915   3.242   3.946   8.489 -0.0120 -0.2880  0.6510
   53CHL1  H26A 3916   3.351   3.959   8.506 -0.4100  2.0359  1.8907
   53CHL1  H26B 3917   3.196   3.961   8.589 -1.6914  0.6766 -0.2331
   53CHL1  H26C 3918   3.230   3.839   8.460  1.9090 -0.0180 -1.4594
   53CHL1   C27 3919   3.205   4.182   8.413 -0.5650  0.0007  0.1895
   53CHL1  H27A 3920   3.187   4.195   8.522 -0.8690 -2.1448  0.4365
   53CHL1  H27B 3921   3.308   4.219   8.392 -1.0016  2.0935  1.3879
   53CHL1  H27C 3922   3.143   4.256   8.357 -1.7040 -0.1293  1.2388
   54CHL1    C3 3923   4.065   5.840   6.748 -0.4789 -1.3572 -0.3063
   54CHL1    H3 3924   3.993   5.901   6.807  0.1938  1.9593 -2.6886
   54CHL1    O3 3925   4.029   5.830   6.616 -0.1066  0.0190 -0.4487
   54CHL1   H3' 3926   4.094   5.880   6.565  1.4786 -1.1010  0.3720
   54CHL1    C4 3927   4.198   5.924   6.754  0.3988 -0.4676 -0.1597
   54CHL1   H4A 3928   4.269   5.875   6.683  0.4809 -0.3148 -0.1828
   54CHL1   H4B 3929   4.181   6.021   6.703  0.3213 -0.6203 -0.4314
   54CHL1    C5 3930   4.245   5.931   6.893  0.3768 -0.3632 -0.2328
   54CHL1    C6 3931   4.266   6.052   6.950  0.1988  0.0410 -0.1254
   54CHL1    H6 3932   4.269   6.144   6.889 -0.6634  2.3045  2.9920
   54CHL1    C7 3933   4.308   6.079   7.089 -0.1026 -0.3088  0.1508
   54CHL1   H7A 3934   4.388   6.155   7.098  0.2277 -0.7705  1.2529
   54CHL1   H7B 3935   4.223   6.113   7.152 -0.6228 -0.6504 -0.3555
   54CHL1    C8 3936   4.355   5.952   7.162 -0.6136  0.1411 -0.9261
   54CHL1    H8 3937   4.455   5.946   7.114 -0.1641  0.3993 -0.0482
   54CHL1   C14 3938   4.373   5.963   7.314 -0.7478  0.1925  0.1109
   54CHL1   H14 3939   4.273   5.980   7.359 -0.7862 -0.0981  0.1397
   54CHL1   C15 3940   4.462   6.078   7.362 -0.2627 -0.4518 -0.4514
   54CHL1  H15A 3941   4.555   6.080   7.300 -0.4891  1.5292 -0.7853
   54CHL1  H15B 3942   4.396   6.166   7.352 -1.2942 -1.2092 -0.4269
   54CHL1   C16 3943   4.500   6.041   7.505 -0.5297  0.3386  0.3526
   54CHL1  H16A 3944   4.609   6.056   7.517 -0.5618  1.7856 -0.7853
   54CHL1  H16B 3945   4.461   6.106   7.587  0.6047  1.0027  0.3961
   54CHL1   C17 3946   4.447   5.894   7.521  0.8292  0.1034 -0.3935
   54CHL1   H17 3947   4.353   5.908   7.577  1.0310  1.4419 -0.3586
   54CHL1   C13 3948   4.429   5.842   7.381 -0.2513 -0.1112 -0.3907
   54CHL1   C18 3949   4.574   5.809   7.321  0.1819  0.3255  0.2404
   54CHL1  H18A 3950   4.578   5.810   7.210 -0.4729  3.3738  0.1430
   54CHL1  H18B 3951   4.647   5.890   7.346 -0.7293  1.1666  0.2210
   54CHL1  H18C 3952   4.608   5.710   7.358 -0.9363  0.2320  1.0543
   54CHL1   C12 3953   4.326   5.734   7.366  0.9040  0.1407  1.1048
   54CHL1  H12A 3954   4.353   5.634   7.407 -2.7734 -1.2231  0.5874
   54CHL1  H12B 3955   4.234   5.766   7.420  1.3716  2.0880  0.8401
   54CHL1   C11 3956   4.294   5.714   7.220 -0.7791  0.6119  0.2391
   54CHL1  H11A 3957   4.379   5.660   7.173  0.7875  3.4150 -0.3337
   54CHL1  H11B 3958   4.210   5.641   7.213 -1.2788  1.2273 -0.2972
   54CHL1    C9 3959   4.262   5.836   7.129  0.0297 -0.3622  0.6232
   54CHL1    H9 3960   4.159   5.875   7.144  0.2837  0.7030 -0.2390
   54CHL1   C10 3961   4.247   5.801   6.976  0.1420 -0.1786 -0.7697
   54CHL1   C19 3962   4.371   5.727   6.932 -0.5347  0.4538 -0.4457
   54CHL1  H19A 3963   4.380   5.711   6.822 -1.7597 -2.4938 -0.2139
   54CHL1  H19B 3964   4.470   5.770   6.959  0.7929 -1.6558 -1.6147
   54CHL1  H19C 3965   4.363   5.630   6.984  0.0292  2.5210  3.9550
   54CHL1    C1 3966   4.118   5.721   6.956 -0.8063  0.0328  0.2356
   54CHL1   H1A 3967   4.123   5.618   6.997 -1.5591 -0.0205  0.2137
   54CHL1   H1B 3968   4.036   5.779   7.004 -2.3856  2.1062 -4.3255
   54CHL1    C2 3969   4.083   5.697   6.811  0.0012  0.6637 -0.2251
   54CHL1   H2A 3970   3.986   5.643   6.814 -0.3289  1.2931  0.9293
   54CHL1   H2B 3971   4.167   5.642   6.763 -0.1983 -1.2504  1.4984
   54CHL1   C20 3972   4.528   5.812   7.623  0.2214 -0.4162 -0.3863
   54CHL1   H20 3973   4.637   5.813   7.602  0.7085 -0.3606  1.8868
   54CHL1   C21 3974   4.494   5.658   7.629  0.5846 -0.0959  0.0824
   54CHL1  H21A 3975   4.524   5.620   7.528 -0.3567  2.4710 -1.2684
   54CHL1  H21B 3976   4.388   5.628   7.641  0.7254 -1.8466 -2.2135
   54CHL1  H21C 3977   4.557   5.623   7.713 -0.5632 -0.6780  0.7148
   54CHL1   C22 3978   4.514   5.875   7.762  0.5384  0.2864 -0.4595
   54CHL1  H22A 3979   4.536   5.983   7.774  3.0596 -0.2210  0.2368
   54CHL1  H22B 3980   4.414   5.864   7.808  1.1819 -1.4744  0.6248
   54CHL1   C23 3981   4.597   5.800   7.872 -0.7209  0.2525  0.4076
   54CHL1  H23A 3982   4.565   5.696   7.895  0.9283 -0.4097 -0.1698
   54CHL1  H23B 3983   4.704   5.785   7.845 -0.7751 -1.5520  1.0048
   54CHL1   C24 3984   4.618   5.867   8.011  1.0363  0.0468  0.0958
   54CHL1  H24A 3985   4.681   5.805   8.077  1.7190  0.4054 -0.2115
   54CHL1  H24B 3986   4.667   5.966   7.999 -0.1946  0.5309 -1.3215
   54CHL1   C25 3987   4.494   5.896   8.093 -0.0256 -1.0972  0.1164
   54CHL1   H25 3988   4.438   5.965   8.026  0.6901  0.6552  1.2392
   54CHL1   C26 3989   4.416   5.769   8.127 -0.1109  0.0330  0.9024
   54CHL1  H26A 3990   4.479   5.683   8.158 -2.5435 -2.2560 -0.1143
   54CHL1  H26B 3991   4.339   5.801   8.200 -0.5270  0.7693  0.1477
   54CHL1  H26C 3992   4.359   5.738   8.037 -1.8529  0.5101  1.8058
   54CHL1   C27 3993   4.537   5.969   8.220 -0.1070 -0.2373  0.2779
   54CHL1  H27A 3994   4.444   5.992   8.276  0.6896  0.5608  1.3186
   54CHL1  H27B 3995   4.605   5.904   8.279  0.6146  1.2699  1.1787
   54CHL1  H27C 3996   4.603   6.054   8.192  0.3082 -0.1933  1.3430
   55CHL1    C3 3997   0.331   0.265   6.612 -0.5531 -0.2391 -0.5367
   55CHL1    H3 3998   0.438   0.282   6.635  0.0874 -0.0684 -3.3021
   55CHL1    O3 3999   0.335   0.226   6.478  0.5393  0.4819 -0.1808
   55CHL1   H3' 4000   0.416   0.263   6.444  0.2443  0.1534 -1.2873
   55CHL1    C4 4001   0.278   0.153   6.705  0.2680 -0.3405 -0.8046
   55CHL1   H4A 4002   0.182   0.126   6.655 -1.0401  0.5490  1.0712
   55CHL1   H4B 4003   0.344   0.065   6.700  0.9960  0.0099  1.4157
   55CHL1    C5 4004   0.277   0.203   6.850  0.5989 -1.2655 -0.5498
   55CHL1    C6 4005   0.353   0.142   6.944 -0.7108  0.5612 -0.5544
   55CHL1    H6 4006   0.400   0.047   6.916 -0.1517  0.3926  0.8957
   55CHL1    C7 4007   0.336   0.160   7.091  0.5103 -0.1677  0.6450
   55CHL1   H7A 4008   0.335   0.061   7.141  0.8639 -1.4243 -1.7157
   55CHL1   H7B 4009   0.423   0.219   7.126 -1.2674  2.0372  1.6431
   55CHL1    C8 4010   0.216   0.245   7.120  0.4723  0.1313  0.1009
   55CHL1    H8 4011   0.125   0.182   7.110  0.3779  0.3326 -0.3665
   55CHL1   C14 4012   0.222   0.284   7.269  0.9977  0.2772  1.2073
   55CHL1   H14 4013   0.323   0.330   7.280  1.3283  0.2186 -1.0500
   55CHL1   C15 4014   0.213   0.169   7.370 -0.0098  0.0726 -0.5885
   55CHL1  H15A 4015   0.130   0.100   7.346 -0.2912 -0.3695  1.4328
   55CHL1  H15B 4016   0.306   0.109   7.382  0.9685  1.5858 -0.3741
   55CHL1   C16 4017   0.177   0.247   7.497 -0.5441  0.3848  0.6778
   55CHL1  H16A 4018   0.111   0.190   7.565 -0.7821  1.1095  1.0648
   55CHL1  H16B 4019   0.272   0.278   7.545 -0.3598  0.3875  0.3104
   55CHL1   C17 4020   0.125   0.389   7.452  0.2563 -0.3545  0.3565
   55CHL1   H17 4021   0.195   0.474   7.467 -0.5678  0.0020  2.6490
   55CHL1   C13 4022   0.106   0.380   7.302 -0.0970  0.1108 -0.1481
   55CHL1   C18 4023  -0.033   0.322   7.278 -0.5044 -0.0906  0.3028
   55CHL1  H18A 4024  -0.052   0.226   7.330 -0.2048  0.4200  1.3867
   55CHL1  H18B 4025  -0.113   0.391   7.313 -0.9281  0.0307 -0.8587
   55CHL1  H18C 4026  -0.046   0.305   7.169 -2.7488  1.0611  0.3300
   55CHL1   C12 4027   0.126   0.507   7.218  0.4096  0.2810  0.1931
   55CHL1  H12A 4028   0.044   0.578   7.243 -1.7515 -1.6945 -0.8652
   55CHL1  H12B 4029   0.225   0.555   7.236 -0.3416  1.2924  1.9368
   55CHL1   C11 4030   0.117   0.476   7.069 -0.4561 -0.2179  0.0347
   55CHL1  H11A 4031   0.009   0.454   7.056 -0.3343 -0.8511  0.0764
   55CHL1  H11B 4032   0.130   0.571   7.013  0.2680 -0.6599 -0.5645
   55CHL1    C9 4033   0.205   0.366   7.022 -0.1083  0.7648 -0.2675
   55CHL1    H9 4034   0.304   0.415   7.029  1.8449 -2.6980 -1.2982
   55CHL1   C10 4035   0.186   0.326   6.876 -0.1708  0.3047  0.1365
   55CHL1   C19 4036   0.034   0.277   6.856 -0.2416  0.0880 -0.0595
   55CHL1  H19A 4037   0.014   0.275   6.747 -1.6200 -0.8106  0.1863
   55CHL1  H19B 4038   0.000   0.182   6.902 -3.3097 -0.8211 -3.6494
   55CHL1  H19C 4039  -0.033   0.359   6.892  1.3551  0.1776  3.0546
   55CHL1    C1 4040   0.231   0.436   6.783 -0.3191 -0.1014 -0.0435
   55CHL1   H1A 4041   0.155   0.517   6.787 -1.0916 -0.8480  1.0263
   55CHL1   H1B 4042   0.333   0.468   6.813 -0.1885  0.0395 -0.6245
   55CHL1    C2 4043   0.252   0.398   6.631 -0.1625 -0.8312  0.4493
   55CHL1   H2A 4044   0.304   0.481   6.579 -1.7336 -1.0806 -1.6666
   55CHL1   H2B 4045   0.153   0.387   6.582 -0.6156 -1.0990  1.3922
   55CHL1   C20 4046   0.002   0.441   7.537  0.2373  0.1101  0.4911
   55CHL1   H20 4047  -0.087   0.380   7.513  0.5335  0.5404 -1.9964
   55CHL1   C21 4048  -0.023   0.588   7.500  0.3717 -0.4683 -0.2707
   55CHL1  H21A 4049  -0.079   0.639   7.581  1.9678  2.9531 -1.1234
   55CHL1  H21B 4050  -0.077   0.595   7.403 -0.3793 -0.4488  0.1483
   55CHL1  H21C 4051   0.072   0.644   7.485  0.7794 -0.4507  2.1156
   55CHL1   C22 4052   0.036   0.429   7.693  0.2699  0.2052 -0.1616
   55CHL1  H22A 4053   0.064   0.328   7.730 -0.2241  0.0917 -0.0828
   55CHL1  H22B 4054   0.119   0.502   7.703 -1.4271  2.2704 -0.4122
   55CHL1   C23 4055  -0.069   0.477   7.800  0.0297 -0.7539 -0.3554
   55CHL1  H23A 4056  -0.021   0.466   7.899  0.1252 -1.1287 -0.4400
   55CHL1  H23B 4057  -0.098   0.581   7.775 -3.1605 -1.1657  1.0492
   55CHL1   C24 4058  -0.202   0.402   7.809  0.5489 -0.1619  0.0065
   55CHL1  H24A 4059  -0.233   0.382   7.704  0.1015  1.1889 -0.1471
   55CHL1  H24B 4060  -0.175   0.306   7.858  0.2078  1.7680  4.4497
   55CHL1   C25 4061  -0.312   0.458   7.907 -0.4407  0.0901 -0.5539
   55CHL1   H25 4062  -0.355   0.552   7.865 -2.2744 -0.0335  0.8930
   55CHL1   C26 4063  -0.436   0.371   7.915  0.3197  0.0325  0.3048
   55CHL1  H26A 4064  -0.501   0.414   7.994  0.2317  1.7100 -0.6136
   55CHL1  H26B 4065  -0.488   0.373   7.817  0.3293 -1.2923  0.2666
   55CHL1  H26C 4066  -0.408   0.267   7.942  0.3015 -0.2790 -0.8196
   55CHL1   C27 4067  -0.264   0.492   8.048  0.1108  0.2631 -0.1580
   55CHL1  H27A 4068  -0.341   0.540   8.112  0.0004  2.7425 -1.9809
   55CHL1  H27B 4069  -0.227   0.399   8.096  2.6217  0.7423 -0.9828
   55CHL1  H27C 4070  -0.181   0.565   8.038 -0.0585  0.3575 -0.9148
   56CHL1    C3 4071   1.793   2.915   6.814  0.4068 -0.0399  0.0221
   56CHL1    H3 4072   1.767   3.011   6.864 -0.9797 -0.2115 -0.3243
   56CHL1    O3 4073   1.822   2.950   6.685  0.5317  0.1482  0.4616
   56CHL1   H3' 4074   1.733   2.955   6.648 -0.8243  2.3918  3.6116
   56CHL1    C4 4075   1.927   2.857   6.875  0.3161 -0.1832 -0.1182
   56CHL1   H4A 4076   1.961   2.777   6.806 -0.8699 -0.0113 -0.9345
   56CHL1   H4B 4077   2.005   2.936   6.876  0.6655 -0.4837 -1.5814
   56CHL1    C5 4078   1.908   2.804   7.013 -0.1296  0.3676  0.6615
   56CHL1    C6 4079   1.979   2.849   7.119 -0.4887  0.4158 -0.0542
   56CHL1    H6 4080   2.058   2.925   7.112 -0.4417  0.3235 -0.5348
   56CHL1    C7 4081   1.977   2.799   7.261 -0.1557  0.8386 -0.0494
   56CHL1   H7A 4082   2.080   2.778   7.295 -0.9406 -2.5053  0.6037
   56CHL1   H7B 4083   1.938   2.879   7.327  1.8636  1.5716  0.3012
   56CHL1    C8 4084   1.887   2.668   7.272 -0.0474 -0.7452 -0.2695
   56CHL1    H8 4085   1.953   2.582   7.248 -0.8635 -1.2238 -0.8501
   56CHL1   C14 4086   1.845   2.651   7.424  0.2776  1.0681  0.0587
   56CHL1   H14 4087   1.775   2.734   7.449 -1.6611 -0.8997  1.5516
   56CHL1   C15 4088   1.944   2.650   7.542 -0.1781  0.9430 -0.2929
   56CHL1  H15A 4089   2.035   2.597   7.505  1.4074  0.6757  3.5162
   56CHL1  H15B 4090   1.982   2.752   7.563  0.6541  1.4643 -3.6506
   56CHL1   C16 4091   1.877   2.576   7.661 -0.0842  0.5468 -0.4548
   56CHL1  H16A 4092   1.955   2.502   7.687  0.5469  1.1248 -0.6948
   56CHL1  H16B 4093   1.853   2.653   7.738 -0.0216 -0.2574  0.3833
   56CHL1   C17 4094   1.749   2.514   7.602  0.1298  0.1017 -0.5717
   56CHL1   H17 4095   1.668   2.588   7.618  1.7211  1.7195  0.3119
   56CHL1   C13 4096   1.770   2.525   7.447 -0.2429  0.8683 -1.0081
   56CHL1   C18 4097   1.858   2.403   7.405 -0.1955  0.3996 -0.0806
   56CHL1  H18A 4098   1.959   2.400   7.453  0.3997 -0.3513 -1.3468
   56CHL1  H18B 4099   1.812   2.304   7.425 -0.6467  0.0842 -2.4065
   56CHL1  H18C 4100   1.885   2.389   7.299  0.8531  0.9355  0.0976
   56CHL1   C12 4101   1.643   2.534   7.362 -0.1156 -0.4495 -0.3882
   56CHL1  H12A 4102   1.578   2.445   7.373  0.1340 -0.5444  0.3389
   56CHL1  H12B 4103   1.586   2.622   7.400  0.6533  0.5662 -1.5047
   56CHL1   C11 4104   1.666   2.551   7.207 -0.0982  0.2245  0.9892
   56CHL1  H11A 4105   1.727   2.463   7.176 -1.7841 -0.8146  0.4898
   56CHL1  H11B 4106   1.577   2.546   7.141  1.1574 -0.7331 -0.7295
   56CHL1    C9 4107   1.765   2.675   7.181 -0.9223  0.4503 -0.2936
   56CHL1    H9 4108   1.702   2.758   7.218 -2.3127 -1.4647  1.8722
   56CHL1   C10 4109   1.799   2.699   7.029 -1.0117 -0.1625 -0.3219
   56CHL1   C19 4110   1.839   2.559   6.968  0.2727 -0.0269 -0.6879
   56CHL1  H19A 4111   1.884   2.573   6.867 -0.0561  3.3350 -0.5052
   56CHL1  H19B 4112   1.906   2.505   7.038 -1.3381  1.7522  2.4629
   56CHL1  H19C 4113   1.745   2.501   6.962 -0.0592  0.1583  1.7989
   56CHL1    C1 4114   1.678   2.756   6.953  0.2105  0.1487  0.1794
   56CHL1   H1A 4115   1.604   2.673   6.942  0.0925  0.0733  1.4123
   56CHL1   H1B 4116   1.627   2.834   7.012  1.9772  0.7787  0.9439
   56CHL1    C2 4117   1.688   2.805   6.812 -0.2906  0.2888  0.0656
   56CHL1   H2A 4118   1.588   2.835   6.775 -0.8753 -0.3778  1.0760
   56CHL1   H2B 4119   1.727   2.722   6.750 -0.7102 -0.2637  0.5368
   56CHL1   C20 4120   1.718   2.385   7.670 -0.5929  0.0277  0.0738
   56CHL1   H20 4121   1.807   2.318   7.665 -0.4733  0.0128  1.9528
   56CHL1   C21 4122   1.600   2.298   7.606 -0.4600 -0.3543  0.6693
   56CHL1  H21A 4123   1.554   2.227   7.678 -3.0651 -0.4343 -0.9285
   56CHL1  H21B 4124   1.636   2.232   7.524 -0.7364 -1.2383  1.2360
   56CHL1  H21C 4125   1.514   2.353   7.561 -1.8175 -1.3527  1.9326
   56CHL1   C22 4126   1.687   2.396   7.823 -0.3977 -0.2677 -0.2186
   56CHL1  H22A 4127   1.617   2.481   7.839  1.5869  1.1396  1.5366
   56CHL1  H22B 4128   1.644   2.299   7.853  0.5007 -1.3891 -2.3071
   56CHL1   C23 4129   1.798   2.405   7.930 -0.8497  0.6637  0.3924
   56CHL1  H23A 4130   1.860   2.492   7.898  0.4766 -0.5803 -0.5654
   56CHL1  H23B 4131   1.753   2.426   8.029  1.0698  1.9716  1.0385
   56CHL1   C24 4132   1.895   2.286   7.934 -0.1917 -0.1286 -0.5062
   56CHL1  H24A 4133   1.843   2.190   7.956  0.5295 -0.5519 -0.6207
   56CHL1  H24B 4134   1.944   2.262   7.837  1.8470 -0.5669  0.5804
   56CHL1   C25 4135   1.997   2.291   8.049 -0.0828 -0.0343 -0.5886
   56CHL1   H25 4136   2.067   2.377   8.036  0.9862 -0.5499  1.3482
   56CHL1   C26 4137   1.929   2.317   8.186  0.2134 -0.1103 -0.5758
   56CHL1  H26A 4138   1.874   2.414   8.188  0.0338 -0.2053 -0.8651
   56CHL1  H26B 4139   2.005   2.318   8.267  0.6474  0.5480 -0.9896
   56CHL1  H26C 4140   1.860   2.233   8.208  1.1466 -0.1662  2.6969
   56CHL1   C27 4141   2.080   2.154   8.050  0.7511 -1.1097  0.1460
   56CHL1  H27A 4142   2.031   2.071   8.106  0.8496 -0.8995  0.5470
   56CHL1  H27B 4143   2.114   2.113   7.953 -0.6788  1.8421 -1.7444
   56CHL1  H27C 4144   2.173   2.172   8.108  0.5786  1.2152 -0.2249
   57SAPC     N 4145   1.800   2.537  10.653 -0.5411  0.0432 -0.1856
   57SAPC   C12 4146   1.716   2.673  10.649  0.2612 -0.2391 -0.2481
   57SAPC  H12A 4147   1.732   2.720  10.745 -2.3205  1.8325 -0.7260
   57SAPC  H12B 4148   1.610   2.653  10.656 -0.1707  2.1966  1.4159
   57SAPC   C13 4149   1.943   2.571  10.657  0.3092 -0.1232 -0.0760
   57SAPC  H13A 4150   1.975   2.611  10.752  1.3048  3.2606 -1.6630
   57SAPC  H13B 4151   2.006   2.485  10.641  0.4010  0.0065 -0.4284
   57SAPC  H13C 4152   1.977   2.635  10.576  0.8439 -0.4149 -0.0861
   57SAPC   C14 4153   1.749   2.454  10.764 -0.9528  0.5097  0.7779
   57SAPC  H14A 4154   1.796   2.357  10.754  0.2471  1.0244  1.2007
   57SAPC  H14B 4155   1.783   2.497  10.857  2.0845 -0.6972  0.3644
   57SAPC  H14C 4156   1.645   2.433  10.748 -0.6848  1.0212 -2.3868
   57SAPC   C15 4157   1.774   2.460  10.522 -0.1569  0.1715 -0.6804
   57SAPC  H15A 4158   1.858   2.396  10.498 -0.6538 -0.0772 -1.8474
   57SAPC  H15B 4159   1.676   2.413  10.513 -0.0250 -0.1343 -0.5604
   57SAPC  H15C 4160   1.781   2.543  10.454  1.2871  1.6012  1.1097
   57SAPC   C11 4161   1.731   2.778  10.532 -0.3106 -0.4480 -0.5551
   57SAPC  H11A 4162   1.662   2.863  10.553 -0.5210 -0.3873 -1.4341
   57SAPC  H11B 4163   1.702   2.719  10.442  0.3864  0.6540 -1.5365
   57SAPC     P 4164   1.961   2.821  10.397  0.7193 -0.1126  0.0114
   57SAPC   O13 4165   1.992   2.963  10.363  0.1633 -0.0188 -0.3133
   57SAPC   O14 4166   2.073   2.736  10.425 -0.2232  0.4143  1.0151
   57SAPC   O12 4167   1.868   2.822  10.528  0.0828 -0.1132  0.1675
   57SAPC   O11 4168   1.871   2.764  10.280 -0.2373 -0.0193 -0.6965
   57SAPC    C1 4169   1.769   2.846  10.220  0.1449  0.1644  0.5741
   57SAPC    HA 4170   1.672   2.804  10.252  0.9271 -0.9063  1.6220
   57SAPC    HB 4171   1.760   2.952  10.254  2.0977  0.1596  1.2252
   57SAPC    C2 4172   1.788   2.843  10.063 -0.5779 -0.1472 -0.0413
   57SAPC    HS 4173   1.761   2.940  10.015 -0.7002  0.2758  0.8483
   57SAPC   O21 4174   1.712   2.735   9.997  0.8894 -0.6090  0.6530
   57SAPC   C21 4175   1.573   2.761  10.005  0.3702 -0.9176 -0.0554
   57SAPC   O22 4176   1.523   2.861  10.054  0.5319 -0.0628 -0.4800
   57SAPC   C22 4177   1.499   2.667   9.913  1.4087 -0.0183 -0.7364
   57SAPC   H2R 4178   1.562   2.588   9.869  0.6006  0.0355 -2.0559
   57SAPC   H2S 4179   1.430   2.625   9.989  0.1710  0.9170 -1.2956
   57SAPC    C3 4180   1.942   2.820  10.032  1.1286 -0.0661  0.3356
   57SAPC    HX 4181   1.951   2.710  10.045 -1.9364 -0.4377 -0.0057
   57SAPC    HY 4182   1.995   2.886  10.104  1.6977  1.1698 -1.1654
   57SAPC   O31 4183   1.957   2.841   9.891  0.1626 -0.3629 -0.9479
   57SAPC   C31 4184   2.084   2.883   9.855  0.3751 -0.0952  0.0766
   57SAPC   O32 4185   2.153   2.950   9.925  0.4179 -0.0210  0.2052
   57SAPC   C32 4186   2.106   2.854   9.714  0.2852  0.4653 -0.2379
   57SAPC   H2X 4187   2.024   2.893   9.650 -0.4494  0.0545  0.4316
   57SAPC   H2Y 4188   2.108   2.743   9.708  0.1185  0.4336  0.2327
   57SAPC   C23 4189   1.402   2.743   9.823 -0.0544 -0.1608 -0.4990
   57SAPC   H3R 4190   1.369   2.833   9.879  0.1341  0.5767 -1.5541
   57SAPC   H3S 4191   1.307   2.686   9.812  0.7185 -2.2837  2.4285
   57SAPC   C24 4192   1.459   2.784   9.682 -0.2830 -0.1124 -0.3093
   57SAPC   H4R 4193   1.373   2.808   9.616 -1.4943 -0.0939  1.2178
   57SAPC   H4S 4194   1.527   2.700   9.657 -1.4649 -0.8537 -1.1176
   57SAPC   C25 4195   1.540   2.912   9.689 -0.0498  0.3576 -0.6104
   57SAPC   H5R 4196   1.499   2.973   9.771  3.1194  0.6108  0.9489
   57SAPC   C26 4197   1.643   2.955   9.610  0.6709  0.0870  0.4866
   57SAPC   H6R 4198   1.703   3.043   9.639  0.3448 -0.3999  2.8126
   57SAPC   C27 4199   1.684   2.874   9.487 -0.3185  0.2624  0.6676
   57SAPC   H7R 4200   1.603   2.847   9.417 -0.0477  1.8357 -0.3141
   57SAPC   H7S 4201   1.737   2.783   9.523  0.5933  0.7203  0.5206
   57SAPC   C28 4202   1.799   2.939   9.405 -0.3929 -0.1082  0.5421
   57SAPC   H8R 4203   1.872   3.001   9.460  1.0073 -0.1860 -1.1685
   57SAPC   C29 4204   1.809   2.936   9.270 -0.1145  0.1466 -0.8198
   57SAPC   H9R 4205   1.898   2.979   9.221 -1.1350  1.5390 -1.5290
   57SAPC  C210 4206   1.725   2.864   9.171  0.3584 -0.3216 -0.5445
   57SAPC  H10R 4207   1.665   2.939   9.114 -3.0427 -1.8969  0.7275
   57SAPC  H10S 4208   1.654   2.795   9.220 -0.9578  1.2177 -0.1997
   57SAPC  C211 4209   1.807   2.794   9.066  0.1762  0.8945 -0.8095
   57SAPC  H11R 4210   1.913   2.770   9.079 -0.2225  0.1787  1.7133
   57SAPC  C212 4211   1.756   2.767   8.947 -0.0039  0.4766 -0.4360
   57SAPC  H12R 4212   1.826   2.713   8.882 -0.5496  0.2399 -0.8378
   57SAPC  C213 4213   1.620   2.782   8.889  0.7108  0.1914  0.2525
   57SAPC  H13R 4214   1.627   2.833   8.791 -0.1105 -1.0235 -0.4691
   57SAPC  H13S 4215   1.560   2.852   8.951 -0.6566 -1.7778  1.2782
   57SAPC  C214 4216   1.560   2.646   8.868 -0.4221  0.1780  0.7251
   57SAPC  H14R 4217   1.594   2.566   8.936 -3.1667 -1.1356  0.6835
   57SAPC  C215 4218   1.466   2.619   8.780  0.4837 -0.8631  0.3765
   57SAPC  H15R 4219   1.419   2.520   8.776 -0.8664 -0.2007 -2.1644
   57SAPC  C216 4220   1.399   2.727   8.692 -0.4633 -0.1998  0.1969
   57SAPC  H16R 4221   1.447   2.728   8.592  3.5383 -1.6758  1.8657
   57SAPC  H16S 4222   1.400   2.828   8.737  1.9211 -1.0761  2.3674
   57SAPC  C217 4223   1.247   2.697   8.679  0.2612 -0.2355  0.2391
   57SAPC  H17R 4224   1.190   2.687   8.774 -0.7510 -3.6680 -0.6041
   57SAPC  H17S 4225   1.238   2.593   8.643 -3.3420  0.8915 -2.7876
   57SAPC  C218 4226   1.179   2.779   8.569  0.0420 -0.3665  1.0472
   57SAPC  H18R 4227   1.217   2.745   8.470 -0.4119  0.1588  0.6850
   57SAPC  H18S 4228   1.209   2.884   8.589  1.1171 -0.8211  1.9139
   57SAPC  C219 4229   1.021   2.759   8.578  0.4153  1.1714 -0.2223
   57SAPC  H19R 4230   0.982   2.774   8.680 -1.7604 -1.8375 -0.4975
   57SAPC  H19S 4231   1.002   2.656   8.541 -0.2211  1.1542  0.1475
   57SAPC  C220 4232   0.945   2.855   8.489 -0.6493  0.4959  0.4186
   57SAPC  H20R 4233   0.984   2.836   8.386  1.3405  2.7423  0.6752
   57SAPC  H20S 4234   0.992   2.952   8.517  2.9501 -1.0307  0.2946
   57SAPC  H20T 4235   0.835   2.847   8.489 -0.5720 -1.2067 -0.4818
   57SAPC   C33 4236   2.251   2.904   9.668 -0.0587  0.0667 -0.3140
   57SAPC   H3X 4237   2.315   2.839   9.732 -2.4608 -1.7532  0.4033
   57SAPC   H3Y 4238   2.266   3.011   9.692  1.0614  0.0384 -0.8353
   57SAPC   C34 4239   2.292   2.878   9.518 -0.3834  0.2078  0.0295
   57SAPC   H4X 4240   2.332   2.776   9.500 -0.5115  0.6318 -3.0701
   57SAPC   H4Y 4241   2.381   2.940   9.492  1.4119 -2.8170 -1.5548
   57SAPC   C35 4242   2.190   2.921   9.414  0.1722  0.1773 -0.2079
   57SAPC   H5X 4243   2.151   3.023   9.437  0.3697  0.2548 -0.2172
   57SAPC   H5Y 4244   2.102   2.854   9.421  2.1323 -2.4223  0.8156
   57SAPC   C36 4245   2.254   2.918   9.275 -0.1188 -0.5912  0.4653
   57SAPC   H6X 4246   2.302   2.821   9.251  0.2371 -0.7099  1.6256
   57SAPC   H6Y 4247   2.335   2.993   9.260  0.5735 -1.3037  0.5876
   57SAPC   C37 4248   2.151   2.943   9.169 -0.8545 -0.1432 -0.5390
   57SAPC   H7X 4249   2.099   3.039   9.191 -0.2555 -0.0206  0.3893
   57SAPC   H7Y 4250   2.077   2.861   9.160 -1.9180  0.7531 -0.2043
   57SAPC   C38 4251   2.209   2.965   9.029 -0.2924 -0.2722 -0.0222
   57SAPC   H8X 4252   2.258   2.874   8.987  1.0859 -1.0065  2.8711
   57SAPC   H8Y 4253   2.275   3.054   9.039 -2.4917  1.5973 -1.3585
   57SAPC   C39 4254   2.109   3.007   8.920 -0.4927 -0.5562  0.6105
   57SAPC   H9X 4255   2.048   3.093   8.955  0.6155  0.8100 -0.6483
   57SAPC   H9Y 4256   2.041   2.922   8.901 -0.0336 -1.3031  2.1466
   57SAPC  C310 4257   2.180   3.050   8.790 -0.3795  0.0434 -0.0674
   57SAPC  H10X 4258   2.248   2.969   8.756 -0.1478  0.2920 -0.2001
   57SAPC  H10Y 4259   2.241   3.139   8.816  0.4510 -1.1810  2.4339
   57SAPC  C311 4260   2.079   3.073   8.675 -0.0531  0.8395  0.4339
   57SAPC  H11X 4261   2.001   3.146   8.706 -1.5825 -0.4222 -0.3012
   57SAPC  H11Y 4262   2.027   2.976   8.656  0.9574  0.1972  0.8255
   57SAPC  C312 4263   2.145   3.112   8.543  0.0597  0.7501 -0.8993
   57SAPC  H12X 4264   2.204   3.206   8.550  0.1368  0.5847  0.9627
   57SAPC  H12Y 4265   2.058   3.119   8.474 -1.0162  0.2251  0.3725
   57SAPC  C313 4266   2.219   2.990   8.478 -0.0584  0.4920 -0.3743
   57SAPC  H13X 4267   2.147   2.910   8.452 -1.7711  1.9740 -0.3997
   57SAPC  H13Y 4268   2.291   2.944   8.549  2.7199  2.8005 -1.5376
   57SAPC  C314 4269   2.297   3.026   8.351 -0.0796 -0.5378  0.3734
   57SAPC  H14X 4270   2.369   3.101   8.390  0.2594 -0.6221 -0.0831
   57SAPC  H14Y 4271   2.235   3.065   8.268  0.4466 -1.9791 -0.7387
   57SAPC  C315 4272   2.382   2.910   8.300  0.0177  0.1073 -0.6701
   57SAPC  H15X 4273   2.461   2.888   8.376  0.1874  0.0708 -0.8564
   57SAPC  H15Y 4274   2.453   2.940   8.220  2.9107 -1.0305  1.2824
   57SAPC  C316 4275   2.296   2.787   8.257 -0.9590  1.0810  0.1907
   57SAPC  H16X 4276   2.243   2.754   8.349 -0.3725 -0.2133  0.0845
   57SAPC  H16Y 4277   2.359   2.702   8.223 -3.6068 -0.6869 -0.6462
   57SAPC  C317 4278   2.197   2.810   8.139 -0.0858 -0.2245 -0.7750
   57SAPC  H17X 4279   2.259   2.851   8.056 -1.3271  1.8465 -0.7463
   57SAPC  H17Y 4280   2.116   2.884   8.154  0.0241 -0.4268  0.9952
   57SAPC  C318 4281   2.144   2.674   8.099  0.3888  0.9222  0.3173
   57SAPC  H18X 4282   2.088   2.678   8.003  1.0126 -2.6913 -0.3157
   57SAPC  H18Y 4283   2.080   2.634   8.180  0.9369 -1.5593 -0.4178
   57SAPC  H18Z 4284   2.234   2.609   8.094  0.0297  0.5289 -1.6956
   58SAPC     N 4285   6.207   1.104  10.683 -0.0706  0.1420 -0.1630
   58SAPC   C12 4286   6.344   1.105  10.622 -0.6038 -0.2864 -0.0227
   58SAPC  H12A 4287   6.399   1.012  10.622  2.1618  1.2307  1.7881
   58SAPC  H12B 4288   6.402   1.170  10.685  0.4382  0.2755 -1.4852
   58SAPC   C13 4289   6.108   1.046  10.592  0.2134 -1.0857 -0.5010
   58SAPC  H13A 4290   6.093   1.093  10.496 -1.3343 -0.4428  0.0148
   58SAPC  H13B 4291   6.126   0.940  10.577 -0.0137 -1.3275  0.7521
   58SAPC  H13C 4292   6.008   1.046  10.632 -0.0775 -1.1098 -1.2091
   58SAPC   C14 4293   6.225   1.019  10.807 -0.0323 -0.2711 -0.4338
   58SAPC  H14A 4294   6.302   1.043  10.879  0.4875 -0.3972 -0.9425
   58SAPC  H14B 4295   6.129   1.023  10.857  1.1534 -0.0613  1.9412
   58SAPC  H14C 4296   6.260   0.921  10.779  0.6542  0.2351 -1.4188
   58SAPC   C15 4297   6.174   1.245  10.735 -0.0220  0.0559  1.0829
   58SAPC  H15A 4298   6.085   1.250  10.796  0.1826  0.5716  1.3408
   58SAPC  H15B 4299   6.263   1.285  10.781 -0.5999 -1.2299  3.5159
   58SAPC  H15C 4300   6.147   1.308  10.652 -1.4856 -0.7590  0.9056
   58SAPC   C11 4301   6.353   1.167  10.480 -0.0557 -0.6292  0.1816
   58SAPC  H11A 4302   6.288   1.104  10.416  0.4043 -1.1191  0.1896
   58SAPC  H11B 4303   6.448   1.145  10.425 -0.7265  0.6422 -1.6135
   58SAPC     P 4304   6.413   1.415  10.482 -0.4308  0.1659  0.4455
   58SAPC   O13 4305   6.331   1.544  10.478 -0.5451  0.1629  0.5012
   58SAPC   O14 4306   6.517   1.399  10.582  0.2437  0.1218 -0.3391
   58SAPC   O12 4307   6.308   1.300  10.485 -0.3157 -0.4035 -0.0574
   58SAPC   O11 4308   6.487   1.399  10.344 -0.4277  0.0119  0.7631
   58SAPC    C1 4309   6.432   1.445  10.223 -0.1670  0.7144 -0.3886
   58SAPC    HA 4310   6.393   1.548  10.239 -1.8327  0.0264  0.2167
   58SAPC    HB 4311   6.500   1.445  10.136 -0.0507 -3.6581 -0.5076
   58SAPC    C2 4312   6.312   1.367  10.168 -0.2652  0.2805  0.4054
   58SAPC    HS 4313   6.252   1.330  10.255  1.1368 -1.7639  0.5560
   58SAPC   O21 4314   6.367   1.243  10.114 -0.2413 -1.1009  0.7563
   58SAPC   C21 4315   6.273   1.169  10.064  0.9524  0.2909 -0.4596
   58SAPC   O22 4316   6.151   1.181  10.079  0.2628 -0.5342  0.6063
   58SAPC   C22 4317   6.332   1.058   9.982 -0.3819 -0.4335  0.6886
   58SAPC   H2R 4318   6.377   1.110   9.895 -3.5856  0.7333 -0.3961
   58SAPC   H2S 4319   6.410   1.003  10.040  0.4755  0.1722  0.1384
   58SAPC    C3 4320   6.227   1.457  10.075 -0.1447  0.1511 -0.3431
   58SAPC    HX 4321   6.218   1.548  10.138 -1.0990  0.4247 -0.8666
   58SAPC    HY 4322   6.123   1.421  10.064 -0.1594 -1.1102  2.8880
   58SAPC   O31 4323   6.310   1.497   9.966  0.4906 -0.1065  0.6074
   58SAPC   C31 4324   6.274   1.437   9.845 -0.0007 -0.3472 -1.0843
   58SAPC   O32 4325   6.201   1.340   9.836  0.6002 -0.1152  0.5376
   58SAPC   C32 4326   6.328   1.509   9.725 -0.2511  0.4823  0.0573
   58SAPC   H2X 4327   6.437   1.523   9.740 -0.5407  1.3237  1.5357
   58SAPC   H2Y 4328   6.284   1.610   9.711 -0.2615  0.1569 -2.9060
   58SAPC   C23 4329   6.232   0.964   9.910  0.3587 -0.1922 -0.5147
   58SAPC   H3R 4330   6.144   1.020   9.872 -1.9852 -2.7286  0.8794
   58SAPC   H3S 4331   6.176   0.898   9.979 -1.0417 -0.0517 -1.4846
   58SAPC   C24 4332   6.294   0.885   9.810  0.3077  0.1230  0.0701
   58SAPC   H4R 4333   6.218   0.806   9.789  0.0456  0.9976 -2.5209
   58SAPC   H4S 4334   6.379   0.830   9.857 -0.2854  2.0661  3.8522
   58SAPC   C25 4335   6.338   0.959   9.683  0.0154  1.1243 -0.4060
   58SAPC   H5R 4336   6.368   1.064   9.693 -1.2329  1.3399  1.6618
   58SAPC   C26 4337   6.316   0.913   9.556 -0.0731  0.3677 -0.4803
   58SAPC   H6R 4338   6.333   0.974   9.466  2.4197  1.4328  0.6182
   58SAPC   C27 4339   6.254   0.778   9.527 -0.2542 -0.3257  0.6277
   58SAPC   H7R 4340   6.233   0.772   9.418 -0.1920 -1.3014  0.6685
   58SAPC   H7S 4341   6.156   0.773   9.577 -0.1757 -0.1393  0.8048
   58SAPC   C28 4342   6.337   0.662   9.548 -0.5319 -0.1471 -0.4986
   58SAPC   H8R 4343   6.384   0.634   9.644  2.5885  0.0570 -1.8289
   58SAPC   C29 4344   6.375   0.573   9.451 -0.7241 -0.5356 -0.3643
   58SAPC   H9R 4345   6.442   0.492   9.482  0.0895  0.0203 -0.6265
   58SAPC  C210 4346   6.325   0.578   9.304 -0.1353 -0.2059  0.2307
   58SAPC  H10R 4347   6.350   0.671   9.249  1.6050 -1.2484 -0.8184
   58SAPC  H10S 4348   6.214   0.570   9.312 -0.3666  1.9579 -0.2188
   58SAPC  C211 4349   6.370   0.457   9.226  0.5954  0.4258  0.3115
   58SAPC  H11R 4350   6.350   0.363   9.280  1.4689  0.7530  1.2356
   58SAPC  C212 4351   6.418   0.450   9.105 -0.5927  0.3222  0.7415
   58SAPC  H12R 4352   6.446   0.352   9.064  0.7362  1.5928 -1.5737
   58SAPC  C213 4353   6.449   0.564   9.006 -0.7146 -0.7364 -0.0227
   58SAPC  H13R 4354   6.532   0.542   8.936 -1.9935  1.5920 -2.4805
   58SAPC  H13S 4355   6.470   0.650   9.074  0.5814 -2.3414  1.7051
   58SAPC  C214 4356   6.330   0.596   8.923 -0.4020  0.2933 -0.6266
   58SAPC  H14R 4357   6.237   0.574   8.976 -2.1373 -0.4495 -3.7403
   58SAPC  C215 4358   6.329   0.645   8.800  0.2103  0.7691 -0.4192
   58SAPC  H15R 4359   6.236   0.671   8.749  0.4454  2.9025  0.1275
   58SAPC  C216 4360   6.450   0.684   8.719 -0.7411 -0.1700  0.0713
   58SAPC  H16R 4361   6.547   0.687   8.774 -0.0672  5.1253 -0.8402
   58SAPC  H16S 4362   6.438   0.789   8.682 -1.7162  0.4006  1.8768
   58SAPC  C217 4363   6.454   0.585   8.604 -0.3086  0.6549  0.2789
   58SAPC  H17R 4364   6.462   0.482   8.645  1.4986  1.0796  1.1012
   58SAPC  H17S 4365   6.547   0.612   8.549 -0.0439 -0.2053  0.2804
   58SAPC  C218 4366   6.336   0.597   8.508 -1.2320 -0.1976  0.5526
   58SAPC  H18R 4367   6.244   0.545   8.544 -1.7359  0.9642  0.9961
   58SAPC  H18S 4368   6.359   0.537   8.417 -0.3354 -2.5407  2.2177
   58SAPC  C219 4369   6.293   0.739   8.457 -0.3869  0.3467  0.6386
   58SAPC  H19R 4370   6.388   0.792   8.433  0.4669 -1.5072 -0.2739
   58SAPC  H19S 4371   6.250   0.798   8.541  0.9385  1.0757  0.8267
   58SAPC  C220 4372   6.215   0.736   8.330  0.4826  0.1196  0.1840
   58SAPC  H20R 4373   6.254   0.659   8.260  1.5187 -0.4772  1.3846
   58SAPC  H20S 4374   6.208   0.839   8.290 -0.5301  1.3915  3.3136
   58SAPC  H20T 4375   6.111   0.713   8.362  0.2713  1.1629  0.2917
   58SAPC   C33 4376   6.288   1.421   9.606  0.5818 -0.3104  0.0079
   58SAPC   H3X 4377   6.180   1.395   9.604  0.8375 -1.3443 -1.0831
   58SAPC   H3Y 4378   6.333   1.319   9.609 -1.3123 -1.2016 -0.4442
   58SAPC   C34 4379   6.344   1.461   9.465  0.0323 -0.3095 -0.0281
   58SAPC   H4X 4380   6.325   1.568   9.441  0.4718 -0.5563 -1.5097
   58SAPC   H4Y 4381   6.277   1.405   9.397 -0.1762  0.4749 -0.4834
   58SAPC   C35 4382   6.487   1.439   9.437 -0.3329 -0.8691  0.3035
   58SAPC   H5X 4383   6.524   1.335   9.421  0.7764 -0.8495  2.3947
   58SAPC   H5Y 4384   6.546   1.479   9.522  1.0918  0.0940 -1.0697
   58SAPC   C36 4385   6.548   1.508   9.312  0.1750 -0.1313  0.3521
   58SAPC   H6X 4386   6.653   1.475   9.325  0.0597 -1.2046 -1.2759
   58SAPC   H6Y 4387   6.531   1.617   9.328 -0.3788 -0.0527 -0.7309
   58SAPC   C37 4388   6.497   1.471   9.171  0.2273  0.3166  0.0789
   58SAPC   H7X 4389   6.392   1.503   9.151  0.9769  1.5466 -2.1323
   58SAPC   H7Y 4390   6.492   1.360   9.171 -0.9770  0.3302  1.3892
   58SAPC   C38 4391   6.589   1.509   9.056 -0.0436  0.2312  0.1956
   58SAPC   H8X 4392   6.690   1.463   9.068  1.3116  2.5691 -1.4176
   58SAPC   H8Y 4393   6.596   1.620   9.060  1.6210  0.1886 -0.3699
   58SAPC   C39 4394   6.533   1.461   8.920  0.0656  0.5265  0.0203
   58SAPC   H9X 4395   6.445   1.526   8.901  1.5400  2.5495 -0.2317
   58SAPC   H9Y 4396   6.501   1.355   8.931  0.7109  0.1320 -1.6567
   58SAPC  C310 4397   6.635   1.480   8.807 -0.6025 -0.1350  0.1557
   58SAPC  H10X 4398   6.724   1.421   8.838 -1.2982 -0.0825  2.3934
   58SAPC  H10Y 4399   6.667   1.585   8.790 -2.6424  0.3979 -0.7203
   58SAPC  C311 4400   6.579   1.443   8.669  0.7373 -0.2809 -0.5829
   58SAPC  H11X 4401   6.500   1.517   8.645 -0.2321 -1.1088 -0.0415
   58SAPC  H11Y 4402   6.528   1.344   8.673  0.0445  0.0903 -0.0122
   58SAPC  C312 4403   6.679   1.442   8.557 -0.3434 -0.3141  0.2464
   58SAPC  H12X 4404   6.630   1.392   8.471 -1.0627 -0.5549  0.7857
   58SAPC  H12Y 4405   6.779   1.396   8.577  0.0678  0.3473 -0.2402
   58SAPC  C313 4406   6.714   1.584   8.508 -0.4210  0.6618  0.6421
   58SAPC  H13X 4407   6.783   1.637   8.577 -0.3787  0.9785  0.3564
   58SAPC  H13Y 4408   6.620   1.644   8.517  1.1145  3.7090 -1.8645
   58SAPC  C314 4409   6.772   1.599   8.372  0.1983 -0.4434 -0.5994
   58SAPC  H14X 4410   6.783   1.709   8.359 -0.3477  0.0554  2.4023
   58SAPC  H14Y 4411   6.699   1.571   8.294 -2.0513 -1.1888  1.6368
   58SAPC  C315 4412   6.907   1.527   8.341 -0.3714 -0.3218  0.9570
   58SAPC  H15X 4413   6.901   1.416   8.342  1.3690 -0.4610 -0.2446
   58SAPC  H15Y 4414   6.983   1.557   8.416  0.5455  0.6589 -0.3268
   58SAPC  C316 4415   6.962   1.557   8.196  0.0809 -0.6360 -0.2708
   58SAPC  H16X 4416   6.993   1.662   8.214 -0.0811 -0.3519 -1.5475
   58SAPC  H16Y 4417   6.884   1.555   8.116  1.1580  1.4519 -1.4481
   58SAPC  C317 4418   7.087   1.477   8.158 -0.3427 -0.3295 -0.2642
   58SAPC  H17X 4419   7.048   1.377   8.127 -0.9710 -0.4933  0.9624
   58SAPC  H17Y 4420   7.147   1.449   8.248  0.0414 -3.0025 -1.2688
   58SAPC  C318 4421   7.155   1.542   8.039 -0.0447  0.4651  0.8826
   58SAPC  H18X 4422   7.199   1.641   8.063  0.2164  0.4862  0.3338
   58SAPC  H18Y 4423   7.083   1.541   7.955  2.3989  0.4486 -1.3466
   58SAPC  H18Z 4424   7.241   1.488   7.994 -0.3218  1.0659 -0.4133
   59SAPC     N 4425   4.338   3.096  11.194  0.3834 -0.5406 -0.2871
   59SAPC   C12 4426   4.301   3.061  11.054 -0.1347  0.6364 -0.8308
   59SAPC  H12A 4427   4.194   3.071  11.038 -0.7668  0.3028  2.4915
   59SAPC  H12B 4428   4.322   2.956  11.041 -1.8590  0.2135 -0.4532
   59SAPC   C13 4429   4.361   3.243  11.190  0.7644 -0.6231 -0.5992
   59SAPC  H13A 4430   4.272   3.304  11.187  0.1956 -1.1312  2.5766
   59SAPC  H13B 4431   4.414   3.277  11.278  1.1079 -2.5182 -0.0268
   59SAPC  H13C 4432   4.418   3.269  11.102  0.1599 -0.9217 -1.0896
   59SAPC   C14 4433   4.230   3.077  11.296 -0.4363  0.1800  0.7119
   59SAPC  H14A 4434   4.143   3.138  11.273  1.4383  3.3575  1.3832
   59SAPC  H14B 4435   4.204   2.972  11.295  0.9338 -0.1978 -1.2468
   59SAPC  H14C 4436   4.269   3.107  11.392 -2.2532 -0.0618  1.5735
   59SAPC   C15 4437   4.464   3.031  11.240 -0.0598  0.0816 -0.3098
   59SAPC  H15A 4438   4.446   2.925  11.248 -2.1791  0.3635 -0.6080
   59SAPC  H15B 4439   4.548   3.055  11.177 -0.0458 -1.4396 -0.9076
   59SAPC  H15C 4440   4.493   3.064  11.338  0.1631  1.9497 -0.9712
   59SAPC   C11 4441   4.359   3.145  10.937 -0.3617  0.3394 -0.0518
   59SAPC  H11A 4442   4.330   3.252  10.946  0.7674  0.5591  1.6511
   59SAPC  H11B 4443   4.322   3.107  10.840  2.2120 -0.0472 -0.9536
   59SAPC     P 4444   4.576   2.990  10.907 -0.0121  0.0445 -0.2998
   59SAPC   O13 4445   4.680   2.986  11.005 -0.3263  0.3911  0.3815
   59SAPC   O14 4446   4.471   2.884  10.912 -0.5706 -0.2876  0.2408
   59SAPC   O12 4447   4.502   3.127  10.932 -0.1025  0.3243  0.2915
   59SAPC   O11 4448   4.638   3.001  10.768  0.1179 -0.1985  0.1441
   59SAPC    C1 4449   4.676   3.140  10.723 -0.7764  0.8875 -0.1764
   59SAPC    HA 4450   4.604   3.219  10.754 -0.4083  0.8544  0.7953
   59SAPC    HB 4451   4.776   3.163  10.765  0.4334 -1.9593 -1.2197
   59SAPC    C2 4452   4.708   3.146  10.572  0.0418  0.1533 -0.2975
   59SAPC    HS 4453   4.756   3.241  10.539  1.1968 -0.3253 -0.0683
   59SAPC   O21 4454   4.591   3.115  10.496 -0.9016  0.1433 -0.3200
   59SAPC   C21 4455   4.504   3.219  10.480 -0.7311  0.6799  0.7433
   59SAPC   O22 4456   4.534   3.331  10.518 -0.1130 -0.1046  0.3769
   59SAPC   C22 4457   4.384   3.186  10.397 -0.3696  0.0412 -0.4985
   59SAPC   H2R 4458   4.303   3.138  10.456 -2.6359  0.3479 -3.1496
   59SAPC   H2S 4459   4.345   3.282  10.357  0.3698  1.2744  1.6053
   59SAPC    C3 4460   4.813   3.036  10.537  0.2287 -0.1998 -0.3769
   59SAPC    HX 4461   4.767   2.936  10.548  0.7203 -0.6850 -2.3299
   59SAPC    HY 4462   4.892   3.031  10.615 -0.8712 -1.8862  0.6958
   59SAPC   O31 4463   4.872   3.056  10.406  0.1075  0.3231 -0.4424
   59SAPC   C31 4464   4.932   2.947  10.365  0.3222 -0.1924 -0.2161
   59SAPC   O32 4465   4.928   2.838  10.425 -0.4323  0.2676 -0.5463
   59SAPC   C32 4466   5.010   2.984  10.225  0.1997 -0.4031  0.1200
   59SAPC   H2X 4467   5.115   2.961  10.252  0.0876  1.3785  2.3362
   59SAPC   H2Y 4468   5.011   3.095  10.219  2.1937 -0.0300  4.0130
   59SAPC   C23 4469   4.403   3.092  10.269  1.0582  0.7946 -0.8223
   59SAPC   H3R 4470   4.308   3.103  10.212  0.3641 -0.2499  0.1013
   59SAPC   H3S 4471   4.410   2.985  10.299  1.4154  1.0330 -0.0075
   59SAPC   C24 4472   4.519   3.129  10.179 -0.0785 -0.0858 -0.2064
   59SAPC   H4R 4473   4.522   3.063  10.089  2.6733  1.5275 -1.4265
   59SAPC   H4S 4474   4.616   3.111  10.231  1.1019  1.7759 -1.6034
   59SAPC   C25 4475   4.503   3.266  10.124 -0.5288  0.5579 -0.0048
   59SAPC   H5R 4476   4.514   3.345  10.200  2.1929  0.7763 -0.5506
   59SAPC   C26 4477   4.476   3.298  10.004 -0.6184 -0.3663  0.1119
   59SAPC   H6R 4478   4.473   3.406   9.980 -0.3056 -0.4068 -0.1214
   59SAPC   C27 4479   4.458   3.211   9.877  0.7246  0.8593 -0.2610
   59SAPC   H7R 4480   4.395   3.123   9.903  1.6785  0.8131  2.1901
   59SAPC   H7S 4481   4.554   3.164   9.847  0.6446  0.2210  0.4480
   59SAPC   C28 4482   4.407   3.302   9.766 -0.5274  0.3641  1.3290
   59SAPC   H8R 4483   4.364   3.394   9.808 -0.8771  1.2668 -0.9006
   59SAPC   C29 4484   4.412   3.292   9.626 -0.0258  0.1728 -0.5370
   59SAPC   H9R 4485   4.370   3.373   9.565  0.1811 -0.3987 -1.4774
   59SAPC  C210 4486   4.483   3.178   9.545 -0.6168 -0.4392  0.3240
   59SAPC  H10R 4487   4.406   3.102   9.518 -1.6555  0.4133  0.7983
   59SAPC  H10S 4488   4.558   3.121   9.604 -0.3514 -1.9484 -1.3665
   59SAPC  C211 4489   4.548   3.235   9.416  0.1718 -0.6735 -0.0336
   59SAPC  H11R 4490   4.625   3.308   9.445 -1.4640  1.0606  0.1733
   59SAPC  C212 4491   4.513   3.222   9.290 -0.1842  0.0742 -0.3465
   59SAPC  H12R 4492   4.560   3.280   9.209 -2.6459  1.6687 -0.7647
   59SAPC  C213 4493   4.403   3.141   9.234 -0.5550  0.5098 -0.3416
   59SAPC  H13R 4494   4.337   3.110   9.318  0.3352 -1.0028 -0.1694
   59SAPC  H13S 4495   4.449   3.046   9.198  0.0119  0.7548 -0.2852
   59SAPC  C214 4496   4.317   3.200   9.129  0.0684 -0.1140  0.0156
   59SAPC  H14R 4497   4.266   3.293   9.156 -0.5871 -0.2198 -0.8407
   59SAPC  C215 4498   4.276   3.131   9.017  0.3360  0.4037 -0.7107
   59SAPC  H15R 4499   4.223   3.193   8.943 -2.2813  1.7917  2.1252
   59SAPC  C216 4500   4.320   2.989   8.980 -0.0600  0.3892 -0.6841
   59SAPC  H16R 4501   4.247   2.945   8.909 -0.0459 -2.0446  0.6996
   59SAPC  H16S 4502   4.325   2.904   9.052 -0.2707 -3.7807 -5.0507
   59SAPC  C217 4503   4.456   2.981   8.910  0.0347  0.3401  0.0435
   59SAPC  H17R 4504   4.481   2.878   8.876 -1.5551  0.1993 -0.7626
   59SAPC  H17S 4505   4.533   3.001   8.988  0.9339 -0.1364 -0.6965
   59SAPC  C218 4506   4.481   3.074   8.794 -0.1010  0.1479 -0.5609
   59SAPC  H18R 4507   4.494   3.170   8.848  0.3342  0.2915 -0.9167
   59SAPC  H18S 4508   4.389   3.085   8.733 -0.1558 -1.3377 -0.7980
   59SAPC  C219 4509   4.600   3.036   8.707  0.4088  1.0752  0.0732
   59SAPC  H19R 4510   4.592   2.933   8.668  0.1530  0.0618  2.6224
   59SAPC  H19S 4511   4.688   3.038   8.774  1.0473 -0.0756 -0.7073
   59SAPC  C220 4512   4.627   3.128   8.594 -0.4741 -0.8244  0.1923
   59SAPC  H20R 4513   4.719   3.103   8.537 -0.5303 -0.2497 -0.1600
   59SAPC  H20S 4514   4.643   3.230   8.636 -1.4223 -0.6015  0.0268
   59SAPC  H20T 4515   4.542   3.120   8.522 -1.6092  1.8839  1.0990
   59SAPC   C33 4516   4.957   2.902  10.106 -0.0350 -0.3817  0.5037
   59SAPC   H3X 4517   4.959   2.794  10.130  0.1256  0.0050  2.3931
   59SAPC   H3Y 4518   5.020   2.925  10.017 -1.7802  0.5450 -0.5671
   59SAPC   C34 4519   4.815   2.932  10.053  0.1459 -0.3309  0.7085
   59SAPC   H4X 4520   4.811   3.037  10.017  1.3763 -0.3208  0.5862
   59SAPC   H4Y 4521   4.748   2.928  10.142 -0.8451  0.5462  0.0223
   59SAPC   C35 4522   4.769   2.859   9.925  0.3304  0.5025  0.7680
   59SAPC   H5X 4523   4.658   2.858   9.919  0.2913  1.3887  1.1502
   59SAPC   H5Y 4524   4.803   2.753   9.925 -0.1692  0.3367  1.3517
   59SAPC   C36 4525   4.833   2.917   9.795 -0.0360 -1.0204 -0.1931
   59SAPC   H6X 4526   4.944   2.922   9.799 -0.0937 -0.4386  1.0491
   59SAPC   H6Y 4527   4.787   3.017   9.776  0.2963 -0.5567  1.3293
   59SAPC   C37 4528   4.803   2.840   9.666 -0.5745  1.3792 -1.3228
   59SAPC   H7X 4529   4.693   2.822   9.658 -0.3776 -0.8728  0.0861
   59SAPC   H7Y 4530   4.840   2.736   9.681 -0.7227  1.2247 -1.9519
   59SAPC   C38 4531   4.870   2.897   9.542 -0.0763  0.0251 -0.1881
   59SAPC   H8X 4532   4.978   2.874   9.551 -0.1270 -0.3729 -0.5781
   59SAPC   H8Y 4533   4.858   3.008   9.542  1.3059  0.1964  0.3114
   59SAPC   C39 4534   4.810   2.854   9.414  0.0507 -0.4444 -0.4502
   59SAPC   H9X 4535   4.726   2.918   9.382 -0.4766 -1.2659 -0.7446
   59SAPC   H9Y 4536   4.766   2.752   9.419 -0.3351 -0.3595 -1.7751
   59SAPC  C310 4537   4.902   2.850   9.288  0.2031  0.1411 -0.3151
   59SAPC  H10X 4538   4.979   2.772   9.307 -0.5425 -0.1505  1.7270
   59SAPC  H10Y 4539   4.951   2.949   9.274  1.4603 -0.3796  0.2813
   59SAPC  C311 4540   4.820   2.825   9.161  0.2930  0.5013 -0.3821
   59SAPC  H11X 4541   4.785   2.926   9.132 -0.3316  1.2261  2.5289
   59SAPC  H11Y 4542   4.732   2.762   9.185 -0.1929  1.9477  1.9183
   59SAPC  C312 4543   4.921   2.773   9.057  0.2856  0.6578 -0.9945
   59SAPC  H12X 4544   4.958   2.670   9.078  0.3945  1.0040  0.5993
   59SAPC  H12Y 4545   5.016   2.830   9.065  1.6869 -1.7112  0.3759
   59SAPC  C313 4546   4.861   2.803   8.917  0.1308  0.2637  0.5780
   59SAPC  H13X 4547   4.829   2.909   8.915 -1.3802 -0.1697  0.5632
   59SAPC  H13Y 4548   4.771   2.739   8.905 -0.8106  1.6682 -0.2129
   59SAPC  C314 4549   4.955   2.768   8.804 -0.5132  0.9247  0.0302
   59SAPC  H14X 4550   4.979   2.659   8.811 -0.4578  0.7532 -2.0213
   59SAPC  H14Y 4551   5.048   2.827   8.813  0.0870 -0.2265  1.9662
   59SAPC  C315 4552   4.894   2.802   8.669 -0.5692  0.7046 -0.1393
   59SAPC  H15X 4553   4.889   2.911   8.652  0.8424  0.9374  0.8278
   59SAPC  H15Y 4554   4.786   2.780   8.684  0.2185 -2.1268  2.5616
   59SAPC  C316 4555   4.946   2.728   8.540 -0.6664 -0.1841  0.6633
   59SAPC  H16X 4556   4.974   2.624   8.567  0.5404 -0.9259 -2.9343
   59SAPC  H16Y 4557   5.027   2.785   8.490 -1.1298 -1.0296 -1.1120
   59SAPC  C317 4558   4.829   2.712   8.439 -0.8383  0.3947 -0.0410
   59SAPC  H17X 4559   4.745   2.647   8.472 -0.4983  0.0974  0.2508
   59SAPC  H17Y 4560   4.864   2.662   8.346  0.2034  0.9658  0.0303
   59SAPC  C318 4561   4.768   2.845   8.403  0.8134 -0.1166 -0.2565
   59SAPC  H18X 4562   4.704   2.814   8.318  0.1030 -0.0637  0.2540
   59SAPC  H18Y 4563   4.837   2.923   8.365  2.7365 -2.0267 -0.8843
   59SAPC  H18Z 4564   4.701   2.881   8.484  2.9400 -1.6977  2.3419
   60SAPC     N 4565   0.242   1.108  10.798  0.2699 -0.3639 -0.2024
   60SAPC   C12 4566   0.273   0.970  10.746  0.2421  0.4531  0.1774
   60SAPC  H12A 4567   0.180   0.916  10.734  0.7955 -0.1510 -1.6529
   60SAPC  H12B 4568   0.316   0.909  10.824 -4.5149 -2.3212  1.0919
   60SAPC   C13 4569   0.358   1.177  10.868  0.0917 -0.4427 -0.0032
   60SAPC  H13A 4570   0.444   1.191  10.805  0.2760  1.5020  0.6220
   60SAPC  H13B 4571   0.332   1.275  10.905  0.3851  0.6075 -2.3713
   60SAPC  H13C 4572   0.391   1.126  10.957  1.2671  2.1918  1.1828
   60SAPC   C14 4573   0.188   1.204  10.691  0.3635 -0.4841 -0.3828
   60SAPC  H14A 4574   0.155   1.293  10.744  2.8597  0.8837 -0.9568
   60SAPC  H14B 4575   0.269   1.230  10.626  1.2285  2.0487  1.5164
   60SAPC  H14C 4576   0.103   1.161  10.639 -1.2629 -1.3917  2.7443
   60SAPC   C15 4577   0.137   1.096  10.900  0.1198  0.1048  0.7280
   60SAPC  H15A 4578   0.158   1.035  10.986  0.0687 -1.5953 -0.4081
   60SAPC  H15B 4579   0.104   1.185  10.951  0.8341  0.6103  0.3388
   60SAPC  H15C 4580   0.050   1.056  10.850 -0.2176  1.4627  0.1993
   60SAPC   C11 4581   0.349   0.968  10.606 -1.1285 -0.3023  0.1762
   60SAPC  H11A 4582   0.279   1.008  10.530 -1.1118  5.4854  2.6302
   60SAPC  H11B 4583   0.368   0.861  10.586 -1.3207 -0.1480 -0.9065
   60SAPC     P 4584   0.508   1.151  10.514 -0.3457 -0.0951 -0.1851
   60SAPC   O13 4585   0.434   1.275  10.555 -0.3423 -0.1124 -0.0416
   60SAPC   O14 4586   0.654   1.171  10.499  0.3668  0.3972  0.1966
   60SAPC   O12 4587   0.473   1.043  10.625 -0.6046  0.2240 -0.3287
   60SAPC   O11 4588   0.437   1.098  10.379 -0.2492  0.0026  0.0002
   60SAPC    C1 4589   0.485   0.971  10.322  0.4627 -0.0631 -0.8983
   60SAPC    HA 4590   0.585   0.939  10.358  0.2962  0.8133  0.4172
   60SAPC    HB 4591   0.415   0.889  10.349 -0.0757  0.6671 -0.0532
   60SAPC    C2 4592   0.499   0.974  10.165 -0.0088 -0.0007 -0.3103
   60SAPC    HS 4593   0.550   0.884  10.124 -1.4269 -0.4817 -1.0830
   60SAPC   O21 4594   0.563   1.095  10.114 -0.1646 -0.0119  0.0473
   60SAPC   C21 4595   0.692   1.076  10.113  0.4869  0.1888  0.6192
   60SAPC   O22 4596   0.758   0.993  10.170  0.0844  0.1046 -0.6541
   60SAPC   C22 4597   0.766   1.179  10.024 -0.2670  0.1306  0.0108
   60SAPC   H2R 4598   0.697   1.260   9.991 -0.4336 -0.1440 -0.3256
   60SAPC   H2S 4599   0.839   1.226  10.093 -1.9753  1.2912  1.1067
   60SAPC    C3 4600   0.350   0.963  10.114  0.0141  0.3938  0.6774
   60SAPC    HX 4601   0.294   1.055  10.142 -1.9993 -0.7979  0.8164
   60SAPC    HY 4602   0.322   0.864  10.157  2.2094 -1.0711 -1.0378
   60SAPC   O31 4603   0.348   0.954   9.968  0.9939 -0.1073 -0.0027
   60SAPC   C31 4604   0.241   0.898   9.912  0.6395  0.3256 -0.4093
   60SAPC   O32 4605   0.149   0.841   9.971  0.3691  0.1623  0.9490
   60SAPC   C32 4606   0.255   0.894   9.761  1.1729  0.7553 -0.0352
   60SAPC   H2X 4607   0.159   0.879   9.707  1.5355 -1.5703 -0.1351
   60SAPC   H2Y 4608   0.305   0.799   9.734 -0.4770  0.3036 -1.6640
   60SAPC   C23 4609   0.831   1.123   9.897  0.4813 -0.3192 -0.0956
   60SAPC   H3R 4610   0.901   1.047   9.938  1.8648  0.6242 -0.6406
   60SAPC   H3S 4611   0.893   1.200   9.847 -0.7380  0.8079  0.0765
   60SAPC   C24 4612   0.725   1.070   9.787 -0.0280  0.2897  0.1072
   60SAPC   H4R 4613   0.637   1.023   9.836 -1.5029  2.5136 -0.2493
   60SAPC   H4S 4614   0.782   0.996   9.727 -2.4871  0.9014 -3.2379
   60SAPC   C25 4615   0.675   1.179   9.689 -0.1232  0.4711  0.3482
   60SAPC   H5R 4616   0.619   1.265   9.729 -1.7557 -0.0387 -0.7271
   60SAPC   C26 4617   0.713   1.183   9.562  0.0675 -0.5632  0.1597
   60SAPC   H6R 4618   0.674   1.270   9.508  0.6772 -1.0722 -1.1315
   60SAPC   C27 4619   0.785   1.086   9.472  0.1603 -0.0621 -0.1631
   60SAPC   H7R 4620   0.803   0.992   9.529  1.0095 -0.5823 -1.2588
   60SAPC   H7S 4621   0.886   1.131   9.459  0.8598 -1.0204  1.5331
   60SAPC   C28 4622   0.694   1.056   9.358 -0.0277  0.1962  0.0745
   60SAPC   H8R 4623   0.646   0.958   9.372  2.5806 -1.2843 -0.6937
   60SAPC   C29 4624   0.674   1.126   9.243  0.1711 -0.1438 -0.7467
   60SAPC   H9R 4625   0.597   1.092   9.172 -1.2611 -1.9546  1.5297
   60SAPC  C210 4626   0.747   1.259   9.209  0.1772  0.1584 -0.6096
   60SAPC  H10R 4627   0.808   1.247   9.117  0.4225  5.6997 -1.4898
   60SAPC  H10S 4628   0.823   1.273   9.289 -1.6856  3.2196  0.8080
   60SAPC  C211 4629   0.665   1.389   9.198 -0.4969  0.2003  0.6765
   60SAPC  H11R 4630   0.563   1.374   9.161 -0.0370 -0.9354 -0.2053
   60SAPC  C212 4631   0.702   1.516   9.236 -0.2236 -0.6089 -0.4841
   60SAPC  H12R 4632   0.634   1.600   9.219  0.1462 -0.3495 -0.6814
   60SAPC  C213 4633   0.838   1.542   9.303  0.5423 -0.2592  0.0469
   60SAPC  H13R 4634   0.914   1.523   9.224 -1.9311 -0.8141 -2.3912
   60SAPC  H13S 4635   0.851   1.460   9.377 -0.4128 -0.6947 -0.2422
   60SAPC  C214 4636   0.855   1.682   9.367 -0.2462 -0.2988 -0.2544
   60SAPC  H14R 4637   0.907   1.755   9.304 -0.7697  0.0264 -0.3233
   60SAPC  C215 4638   0.811   1.726   9.484  0.1659 -0.4205  0.1713
   60SAPC  H15R 4639   0.833   1.829   9.516 -2.0437 -0.1161  0.8962
   60SAPC  C216 4640   0.736   1.636   9.581 -0.2602  0.1104  0.1534
   60SAPC  H16R 4641   0.729   1.528   9.552 -4.2269 -0.5715  2.7928
   60SAPC  H16S 4642   0.636   1.679   9.604 -1.0278 -2.3458  1.8715
   60SAPC  C217 4643   0.814   1.646   9.717 -0.5228  0.9791  0.0457
   60SAPC  H17R 4644   0.807   1.749   9.756 -1.4367  1.0493 -0.2918
   60SAPC  H17S 4645   0.920   1.623   9.690 -0.3689  1.4484  0.2380
   60SAPC  C218 4646   0.765   1.545   9.826  1.1228  0.1650  0.1461
   60SAPC  H18R 4647   0.794   1.438   9.817 -0.2190 -0.4247  2.2364
   60SAPC  H18S 4648   0.655   1.540   9.820  0.9992 -0.5899  2.3916
   60SAPC  C219 4649   0.795   1.601   9.961  0.1068 -0.1442 -0.7130
   60SAPC  H19R 4650   0.737   1.536  10.030 -0.8815  1.5295  0.0914
   60SAPC  H19S 4651   0.755   1.704   9.971  0.1769 -0.0213 -1.6833
   60SAPC  C220 4652   0.942   1.590  10.002  0.1875 -0.5596  0.7309
   60SAPC  H20R 4653   0.980   1.493   9.961 -1.5359 -0.8207 -0.3700
   60SAPC  H20S 4654   0.961   1.601  10.110  0.4000  1.6900  0.5157
   60SAPC  H20T 4655   1.003   1.668   9.951  2.9452 -1.0509  3.0203
   60SAPC   C33 4656   0.322   1.020   9.696 -0.7692 -0.0470  0.1494
   60SAPC   H3X 4657   0.426   0.990   9.719 -1.0773 -0.3152  1.2363
   60SAPC   H3Y 4658   0.278   1.110   9.745 -0.5189 -0.6993  1.6475
   60SAPC   C34 4659   0.302   1.019   9.542  0.7227 -0.5494 -0.2091
   60SAPC   H4X 4660   0.359   1.109   9.509  1.0025 -0.6081  0.1035
   60SAPC   H4Y 4661   0.195   1.029   9.512  0.5563 -1.5673  0.0272
   60SAPC   C35 4662   0.361   0.899   9.465 -0.3813 -0.3836 -0.0680
   60SAPC   H5X 4663   0.318   0.798   9.484  2.3426 -1.2090  2.5817
   60SAPC   H5Y 4664   0.468   0.880   9.491  0.4789  2.1369 -1.4569
   60SAPC   C36 4665   0.355   0.924   9.314 -0.0650  0.5051 -0.4181
   60SAPC   H6X 4666   0.414   1.015   9.289 -0.0628  0.2782 -1.2857
   60SAPC   H6Y 4667   0.250   0.918   9.278 -0.1567  1.1854 -0.2806
   60SAPC   C37 4668   0.420   0.801   9.232 -0.3797 -0.6240 -0.1163
   60SAPC   H7X 4669   0.338   0.726   9.231  0.1060 -1.2231 -3.1807
   60SAPC   H7Y 4670   0.510   0.774   9.290  1.5606  1.2771 -2.0690
   60SAPC   C38 4671   0.470   0.840   9.096 -0.3691  0.7049  0.5305
   60SAPC   H8X 4672   0.534   0.930   9.103 -0.1980  0.5944  0.3970
   60SAPC   H8Y 4673   0.384   0.864   9.030  1.3327  0.2387 -1.9731
   60SAPC   C39 4674   0.552   0.730   9.028 -0.3544  0.1125 -0.9012
   60SAPC   H9X 4675   0.496   0.635   9.038  0.8636 -0.7562 -1.9581
   60SAPC   H9Y 4676   0.651   0.714   9.075 -0.4703 -0.6631 -0.9065
   60SAPC  C310 4677   0.577   0.761   8.881 -0.3127 -0.5716 -0.4228
   60SAPC  H10X 4678   0.486   0.784   8.821 -0.4579 -1.5352 -0.6011
   60SAPC  H10Y 4679   0.610   0.664   8.835  3.5260  1.1964 -1.8411
   60SAPC  C311 4680   0.695   0.865   8.868 -0.2095 -0.3856  0.6136
   60SAPC  H11X 4681   0.784   0.826   8.921 -0.0567 -0.9999 -0.0722
   60SAPC  H11Y 4682   0.651   0.959   8.907  0.0031  0.0376 -0.1398
   60SAPC  C312 4683   0.743   0.887   8.718 -0.1611  0.6675  0.6035
   60SAPC  H12X 4684   0.666   0.853   8.646 -0.8954 -0.6304  1.9388
   60SAPC  H12Y 4685   0.837   0.829   8.711  0.6193  1.9908 -0.1551
   60SAPC  C313 4686   0.774   1.033   8.687  0.7936  0.0637 -0.1262
   60SAPC  H13X 4687   0.849   1.069   8.760 -0.4580 -0.7596  1.6341
   60SAPC  H13Y 4688   0.681   1.093   8.698  1.3400  0.8723  0.2255
   60SAPC  C314 4689   0.825   1.047   8.542 -0.3705  0.9492  0.2407
   60SAPC  H14X 4690   0.929   1.006   8.540 -1.1046 -1.1763  2.3981
   60SAPC  H14Y 4691   0.846   1.155   8.522  0.8664  0.6481 -0.2053
   60SAPC  C315 4692   0.738   1.004   8.426 -0.5611 -0.1427 -0.1245
   60SAPC  H15X 4693   0.649   1.071   8.425 -2.4331 -2.4374  2.0123
   60SAPC  H15Y 4694   0.693   0.903   8.430 -2.3141  0.6392  0.8550
   60SAPC  C316 4695   0.814   1.033   8.293  0.3762  0.2761  0.0707
   60SAPC  H16X 4696   0.915   0.989   8.298 -0.0928 -0.7209  1.3866
   60SAPC  H16Y 4697   0.814   1.143   8.273  0.3382  0.2114 -0.2957
   60SAPC  C317 4698   0.731   0.972   8.175  0.0375 -0.4645 -0.0724
   60SAPC  H17X 4699   0.710   0.867   8.207  1.1845 -1.0110 -1.0058
   60SAPC  H17Y 4700   0.806   0.960   8.094 -1.8589  1.0495 -2.1583
   60SAPC  C318 4701   0.604   1.050   8.129  0.0736  0.6521 -0.8094
   60SAPC  H18X 4702   0.622   1.159   8.125 -1.5918  0.9300 -1.3975
   60SAPC  H18Y 4703   0.523   1.033   8.203  2.6858 -1.1137  1.8432
   60SAPC  H18Z 4704   0.580   1.012   8.027 -1.2380 -0.4573 -0.1313
   61SAPC     N 4705   3.184   6.357  10.761  0.1815 -0.4062 -0.3338
   61SAPC   C12 4706   3.280   6.444  10.684  0.3990  0.5689 -0.3625
   61SAPC  H12A 4707   3.308   6.529  10.745 -0.0473 -1.0260  2.1805
   61SAPC  H12B 4708   3.231   6.467  10.591  0.5176  1.3350 -0.2423
   61SAPC   C13 4709   3.061   6.438  10.793  1.0161 -0.4543 -0.0399
   61SAPC  H13A 4710   3.093   6.534  10.830  0.0704  0.7075 -2.0368
   61SAPC  H13B 4711   3.002   6.453  10.703  0.0581 -0.4244  0.5790
   61SAPC  H13C 4712   3.001   6.384  10.864  0.4090 -0.6670 -0.6993
   61SAPC   C14 4713   3.137   6.232  10.684 -0.5658 -0.2979 -0.7442
   61SAPC  H14A 4714   3.043   6.189  10.716 -0.4173 -0.8368 -1.0304
   61SAPC  H14B 4715   3.124   6.251  10.579  1.7292 -1.9897 -1.4190
   61SAPC  H14C 4716   3.215   6.158  10.698 -0.4195  0.2361  1.8283
   61SAPC   C15 4717   3.242   6.305  10.890  1.1343 -0.0055 -0.7686
   61SAPC  H15A 4718   3.289   6.383  10.949 -1.6104  0.7074  0.6319
   61SAPC  H15B 4719   3.164   6.257  10.947  1.6894  0.6970  0.6293
   61SAPC  H15C 4720   3.310   6.223  10.875 -1.0127 -1.6741 -1.8582
   61SAPC   C11 4721   3.416   6.369  10.643 -0.2149  0.0731  0.0926
   61SAPC  H11A 4722   3.463   6.435  10.568  0.0250  1.0948  1.1023
   61SAPC  H11B 4723   3.383   6.275  10.594  0.8035 -0.6427  0.7369
   61SAPC     P 4724   3.577   6.453  10.826 -0.2333 -0.0567 -0.2104
   61SAPC   O13 4725   3.472   6.541  10.886 -0.2084 -0.0758  0.4719
   61SAPC   O14 4726   3.691   6.399  10.900  0.8496  0.2366  0.9587
   61SAPC   O12 4727   3.504   6.330  10.755 -0.2482  0.2856 -0.4834
   61SAPC   O11 4728   3.636   6.545  10.720 -0.5180 -0.0406  0.2708
   61SAPC    C1 4729   3.756   6.514  10.654 -0.7875 -0.2634  0.6709
   61SAPC    HA 4730   3.846   6.515  10.719 -0.4936  1.4774  0.2805
   61SAPC    HB 4731   3.753   6.413  10.607 -1.0762  0.9673 -2.1605
   61SAPC    C2 4732   3.773   6.621  10.542  0.5390  0.1684  0.4296
   61SAPC    HS 4733   3.786   6.713  10.602 -0.9574 -0.4072  1.7111
   61SAPC   O21 4734   3.642   6.628  10.475 -0.1412  0.3691 -0.8782
   61SAPC   C21 4735   3.627   6.737  10.400 -0.7364 -0.0485 -0.0948
   61SAPC   O22 4736   3.714   6.823  10.399  0.4360  0.2201 -0.5649
   61SAPC   C22 4737   3.502   6.728  10.323  0.2089  0.0272 -0.0695
   61SAPC   H2R 4738   3.504   6.639  10.256  0.3481 -0.0158 -0.0084
   61SAPC   H2S 4739   3.421   6.713  10.398  0.4616 -1.7943 -0.1124
   61SAPC    C3 4740   3.890   6.585  10.440  0.2644  0.4176  0.8663
   61SAPC    HX 4741   3.975   6.586  10.511  0.3041  0.4408  0.8198
   61SAPC    HY 4742   3.901   6.663  10.361 -0.5291  0.3259  0.6513
   61SAPC   O31 4743   3.874   6.453  10.384  0.2588 -0.1816 -0.0408
   61SAPC   C31 4744   3.785   6.443  10.291  0.0225 -0.6244  0.1703
   61SAPC   O32 4745   3.724   6.535  10.233  0.6185  1.0854  0.1815
   61SAPC   C32 4746   3.763   6.296  10.259 -0.0943 -0.0324  0.3178
   61SAPC   H2X 4747   3.832   6.267  10.177 -1.3391 -1.7558 -0.1683
   61SAPC   H2Y 4748   3.658   6.277  10.230 -0.6648 -0.7994  2.6384
   61SAPC   C23 4749   3.467   6.851  10.244  0.6158  0.7518 -0.0773
   61SAPC   H3R 4750   3.500   6.941  10.299  0.4063 -1.0877  3.2975
   61SAPC   H3S 4751   3.358   6.845  10.223  0.9664 -0.2880 -1.8931
   61SAPC   C24 4752   3.532   6.866  10.100  0.0374  0.1377 -0.0680
   61SAPC   H4R 4753   3.638   6.872  10.133 -0.2289  1.0220  0.6981
   61SAPC   H4S 4754   3.501   6.967  10.065 -2.7514 -0.4778  0.4284
   61SAPC   C25 4755   3.499   6.754  10.004 -0.0226 -0.5282 -0.2891
   61SAPC   H5R 4756   3.500   6.648  10.035  1.0688 -0.3310  0.3974
   61SAPC   C26 4757   3.467   6.781   9.878 -0.2907 -0.3400  0.0150
   61SAPC   H6R 4758   3.451   6.689   9.820 -0.7238 -1.1739  1.4298
   61SAPC   C27 4759   3.454   6.910   9.804 -0.3669 -0.2592 -0.4833
   61SAPC   H7R 4760   3.549   6.931   9.751 -1.4765  0.6943 -2.1631
   61SAPC   H7S 4761   3.445   7.005   9.861  0.6220  0.7892 -2.0145
   61SAPC   C28 4762   3.331   6.909   9.712  0.3923 -0.3519 -0.3786
   61SAPC   H8R 4763   3.233   6.888   9.759  0.5376 -1.2360 -0.4477
   61SAPC   C29 4764   3.329   6.948   9.587 -0.2543  0.2652 -0.0042
   61SAPC   H9R 4765   3.234   6.943   9.534 -0.1429  0.1294 -0.1912
   61SAPC  C210 4766   3.447   6.985   9.501  0.3675 -0.2218 -0.0275
   61SAPC  H10R 4767   3.535   7.013   9.564  1.0549  2.6051 -2.0398
   61SAPC  H10S 4768   3.433   7.070   9.431 -0.0376 -0.1868  0.0969
   61SAPC  C211 4769   3.482   6.856   9.421 -0.0456  0.3951 -0.2330
   61SAPC  H11R 4770   3.543   6.782   9.475 -0.1535  0.6541  0.2516
   61SAPC  C212 4771   3.442   6.829   9.291  0.3710  0.5150  0.2720
   61SAPC  H12R 4772   3.470   6.733   9.246  0.1908  1.5187 -2.1098
   61SAPC  C213 4773   3.358   6.920   9.210  0.0619 -0.2950 -0.1038
   61SAPC  H13R 4774   3.382   7.026   9.235 -2.5875 -0.4238  3.9228
   61SAPC  H13S 4775   3.253   6.913   9.247  0.4342 -0.6149  0.9143
   61SAPC  C214 4776   3.393   6.899   9.065  0.2291  0.7271 -0.9741
   61SAPC  H14R 4777   3.497   6.917   9.035  0.1500 -0.1395 -1.8280
   61SAPC  C215 4778   3.316   6.860   8.963  0.3646 -0.1180  0.1627
   61SAPC  H15R 4779   3.362   6.844   8.864  0.3987  2.8337 -0.3910
   61SAPC  C216 4780   3.168   6.828   8.967 -0.3250  0.4811  0.4597
   61SAPC  H16R 4781   3.116   6.885   8.888 -0.6936 -1.1024 -0.4666
   61SAPC  H16S 4782   3.121   6.845   9.067 -2.4944  1.2362 -0.6392
   61SAPC  C217 4783   3.125   6.680   8.944 -0.2839 -0.1831 -0.0802
   61SAPC  H17R 4784   3.018   6.665   8.971 -0.0370 -1.7744  0.1056
   61SAPC  H17S 4785   3.181   6.622   9.021  1.0326  1.3283  0.1458
   61SAPC  C218 4786   3.147   6.630   8.800  0.2871  0.4340 -0.0271
   61SAPC  H18R 4787   3.136   6.519   8.810 -0.2385  0.5451  0.7357
   61SAPC  H18S 4788   3.252   6.647   8.768  0.1316 -0.5179 -1.1034
   61SAPC  C219 4789   3.059   6.683   8.683 -0.2188 -0.2626 -0.0575
   61SAPC  H19R 4790   3.069   6.613   8.598  0.5910 -0.9500  0.5778
   61SAPC  H19S 4791   3.090   6.782   8.642 -2.2334  0.2793 -0.3949
   61SAPC  C220 4792   2.910   6.695   8.718 -0.7264 -0.2668 -0.1324
   61SAPC  H20R 4793   2.858   6.745   8.634 -0.3692  0.8147  0.2820
   61SAPC  H20S 4794   2.900   6.764   8.804  2.8236  2.8083 -1.8990
   61SAPC  H20T 4795   2.859   6.599   8.742 -0.0480 -0.2785  1.3951
   61SAPC   C33 4796   3.784   6.206  10.379 -0.3248  0.2137  0.8549
   61SAPC   H3X 4797   3.727   6.236  10.470 -1.8076  1.9126 -0.5559
   61SAPC   H3Y 4798   3.892   6.206  10.401  0.3248 -1.2344 -1.9053
   61SAPC   C34 4799   3.738   6.055  10.348  0.2808 -1.0299  0.4263
   61SAPC   H4X 4800   3.788   5.994  10.427  3.2450 -1.1363 -1.3735
   61SAPC   H4Y 4801   3.791   6.014  10.259  1.1513 -0.0345  0.4636
   61SAPC   C35 4802   3.591   6.026  10.338 -0.8607 -0.3164 -0.9819
   61SAPC   H5X 4803   3.537   6.081  10.258  1.4320  2.5364 -0.7370
   61SAPC   H5Y 4804   3.543   6.069  10.428  2.3305  1.5783 -0.0038
   61SAPC   C36 4805   3.557   5.877  10.313  0.0960  0.1522 -0.3803
   61SAPC   H6X 4806   3.448   5.860  10.325 -0.2212  2.4176  0.3165
   61SAPC   H6Y 4807   3.601   5.824  10.401  1.7919  0.8307 -0.7953
   61SAPC   C37 4808   3.603   5.816  10.185 -0.0926 -0.0398 -0.5653
   61SAPC   H7X 4809   3.564   5.712  10.179 -0.6840  0.2425 -2.6147
   61SAPC   H7Y 4810   3.713   5.820  10.197 -0.4134 -0.1841  5.8447
   61SAPC   C38 4811   3.563   5.904  10.066  0.4437 -0.3985 -0.0945
   61SAPC   H8X 4812   3.641   5.983  10.067  1.9401 -1.8176  1.0283
   61SAPC   H8Y 4813   3.460   5.941  10.080  1.0745  0.7496  1.8357
   61SAPC   C39 4814   3.586   5.829   9.939  0.2614 -0.5860  0.2047
   61SAPC   H9X 4815   3.528   5.737   9.918 -1.0071  0.2858 -0.2013
   61SAPC   H9Y 4816   3.693   5.800   9.931  0.5325  0.7335 -1.4695
   61SAPC  C310 4817   3.553   5.915   9.813 -0.0523  0.3301  1.1210
   61SAPC  H10X 4818   3.642   5.981   9.807  0.6308 -0.5227  1.5403
   61SAPC  H10Y 4819   3.461   5.972   9.834  0.0750  0.4634  1.3262
   61SAPC  C311 4820   3.530   5.837   9.685  0.4385 -0.5078  0.0752
   61SAPC  H11X 4821   3.435   5.779   9.690 -1.0809  1.8801  0.2532
   61SAPC  H11Y 4822   3.620   5.772   9.670  0.9727  0.3599 -0.5711
   61SAPC  C312 4823   3.508   5.928   9.556  0.2346  0.7062  0.4316
   61SAPC  H12X 4824   3.599   5.988   9.536  1.0214 -0.7654 -0.6334
   61SAPC  H12Y 4825   3.423   5.996   9.577  1.1952  1.6901  1.2961
   61SAPC  C313 4826   3.468   5.843   9.430  0.9682  0.1647  0.3895
   61SAPC  H13X 4827   3.365   5.801   9.423  1.4622 -0.9603 -0.3655
   61SAPC  H13Y 4828   3.537   5.758   9.412 -0.0317 -0.4762 -0.5412
   61SAPC  C314 4829   3.474   5.941   9.312 -0.5356 -0.0339 -0.6406
   61SAPC  H14X 4830   3.574   5.988   9.327 -0.2578 -1.1063  1.0542
   61SAPC  H14Y 4831   3.392   6.016   9.316 -2.0368 -1.6701  1.1359
   61SAPC  C315 4832   3.473   5.875   9.170  0.1169  1.1078 -0.3341
   61SAPC  H15X 4833   3.448   5.952   9.094  0.8975  1.4003 -0.3064
   61SAPC  H15Y 4834   3.396   5.795   9.163  0.2522  0.8475  0.8770
   61SAPC  C316 4835   3.608   5.818   9.120  0.3477  0.0598 -0.0517
   61SAPC  H16X 4836   3.640   5.727   9.175 -0.2537  0.3412  0.7900
   61SAPC  H16Y 4837   3.681   5.896   9.149  0.5012 -0.6802  1.7313
   61SAPC  C317 4838   3.605   5.780   8.974 -0.7364 -0.1931  0.3938
   61SAPC  H17X 4839   3.602   5.873   8.912  1.4239  1.0323  1.9911
   61SAPC  H17Y 4840   3.515   5.719   8.949 -1.2031  0.6989 -0.1841
   61SAPC  C318 4841   3.743   5.710   8.935  0.3540 -0.8123  0.3244
   61SAPC  H18X 4842   3.718   5.666   8.836  0.5489  0.3249 -0.2541
   61SAPC  H18Y 4843   3.765   5.632   9.010 -0.7170  0.0735  1.5999
   61SAPC  H18Z 4844   3.821   5.788   8.925  0.2516 -0.5718  1.2961
   62SAPC     N 4845   1.535   0.578  10.810 -0.3958  0.0591  0.1401
   62SAPC   C12 4846   1.593   0.476  10.707  0.0513  0.0415  0.1814
   62SAPC  H12A 4847   1.554   0.379  10.735  0.2130  0.1024  0.6287
   62SAPC  H12B 4848   1.698   0.466  10.733 -0.3853 -0.4307  1.8773
   62SAPC   C13 4849   1.387   0.602  10.794 -0.1738  0.0107  0.3317
   62SAPC  H13A 4850   1.383   0.631  10.690  0.8420  0.7877  0.4941
   62SAPC  H13B 4851   1.314   0.527  10.821 -1.5049  1.1318 -0.0225
   62SAPC  H13C 4852   1.349   0.692  10.841 -2.3290 -0.7811  0.2130
   62SAPC   C14 4853   1.557   0.521  10.952  0.4756  0.5949  0.3470
   62SAPC  H14A 4854   1.497   0.434  10.976  1.3089 -0.1704 -0.2794
   62SAPC  H14B 4855   1.662   0.498  10.964  0.1945 -0.4554  0.8655
   62SAPC  H14C 4856   1.529   0.585  11.035 -1.3321 -0.2074  0.4040
   62SAPC   C15 4857   1.609   0.704  10.790 -0.0132 -0.0087  0.8091
   62SAPC  H15A 4858   1.570   0.777  10.860 -0.7254 -0.0654  0.4842
   62SAPC  H15B 4859   1.713   0.693  10.816  1.0672  0.4010 -2.7721
   62SAPC  H15C 4860   1.608   0.728  10.684  3.4538 -2.2898  0.1195
   62SAPC   C11 4861   1.582   0.509  10.557 -0.7120  0.0890  0.4726
   62SAPC  H11A 4862   1.478   0.534  10.526 -0.8287 -1.1177 -0.1816
   62SAPC  H11B 4863   1.585   0.413  10.502  1.3644 -1.2119  2.6674
   62SAPC     P 4864   1.827   0.582  10.502  0.2466 -0.6440 -0.8093
   62SAPC   O13 4865   1.879   0.716  10.521 -0.0933  0.6008 -0.9050
   62SAPC   O14 4866   1.865   0.482  10.606  0.8718 -0.0834  0.4534
   62SAPC   O12 4867   1.672   0.613  10.514  0.0693 -0.2393  0.6221
   62SAPC   O11 4868   1.852   0.531  10.358  0.3200 -0.4694  0.1323
   62SAPC    C1 4869   1.776   0.586  10.247 -0.2561  0.4369 -0.5874
   62SAPC    HA 4870   1.763   0.503  10.174  2.2824  0.9626 -1.7621
   62SAPC    HB 4871   1.672   0.615  10.270 -0.2179 -0.1067  0.3202
   62SAPC    C2 4872   1.861   0.695  10.172 -0.1159  0.1069  0.4776
   62SAPC    HS 4873   1.852   0.795  10.220  0.0609  1.5542 -2.2832
   62SAPC   O21 4874   1.829   0.698  10.033  0.1467  0.4726 -0.5885
   62SAPC   C21 4875   1.740   0.785  10.009  0.1136 -0.3870  0.3647
   62SAPC   O22 4876   1.674   0.845  10.099  0.6277  0.4047  0.2757
   62SAPC   C22 4877   1.714   0.802   9.863 -0.8434 -0.4829 -0.2274
   62SAPC   H2R 4878   1.806   0.837   9.813  0.7567  1.1309  3.4301
   62SAPC   H2S 4879   1.684   0.698   9.837 -1.8125 -0.0634 -0.8363
   62SAPC    C3 4880   2.012   0.657  10.179 -0.0044  0.8993 -0.0322
   62SAPC    HX 4881   2.033   0.550  10.159  1.3016  1.4704 -2.0438
   62SAPC    HY 4882   2.037   0.671  10.287  2.1656  0.3117 -0.3934
   62SAPC   O31 4883   2.091   0.740  10.089  0.6608  0.5890 -0.2829
   62SAPC   C31 4884   2.117   0.865  10.123  0.2290 -0.1808 -0.2600
   62SAPC   O32 4885   2.113   0.911  10.238 -0.6432  0.4079  0.1510
   62SAPC   C32 4886   2.173   0.946  10.009  0.3115 -0.0157  0.4934
   62SAPC   H2X 4887   2.188   0.880   9.921  0.5421 -1.3031  1.4781
   62SAPC   H2Y 4888   2.271   0.987  10.041 -0.0066  0.7440  0.5212
   62SAPC   C23 4889   1.594   0.895   9.831 -0.5102 -0.2101  0.5085
   62SAPC   H3R 4890   1.607   0.985   9.895 -0.7681  0.0482  0.2023
   62SAPC   H3S 4891   1.495   0.853   9.856 -0.1839 -0.4757  1.3914
   62SAPC   C24 4892   1.598   0.942   9.681 -0.1754 -0.1541  0.3405
   62SAPC   H4R 4893   1.700   0.985   9.672  0.1958 -0.9829  0.4650
   62SAPC   H4S 4894   1.526   1.019   9.646 -0.2918  0.3567  1.6788
   62SAPC   C25 4895   1.593   0.826   9.590  0.5214  0.0630  0.3373
   62SAPC   H5R 4896   1.671   0.751   9.611 -1.3278 -2.5813 -1.4671
   62SAPC   C26 4897   1.503   0.797   9.489  0.0764 -0.3650  0.2502
   62SAPC   H6R 4898   1.517   0.702   9.436  1.5184  0.0632 -0.1949
   62SAPC   C27 4899   1.383   0.889   9.458 -0.2898 -0.2355  0.0678
   62SAPC   H7R 4900   1.337   0.957   9.533 -1.3670  2.2415 -2.5994
   62SAPC   H7S 4901   1.292   0.826   9.443  0.2982 -0.8089 -1.2399
   62SAPC   C28 4902   1.418   0.971   9.338 -0.0795  0.7578 -0.8406
   62SAPC   H8R 4903   1.494   1.046   9.363  0.8067 -0.2977 -0.3084
   62SAPC   C29 4904   1.346   0.961   9.224  0.7804  0.9451 -0.0535
   62SAPC   H9R 4905   1.385   1.026   9.144  1.8651 -0.6714 -0.8777
   62SAPC  C210 4906   1.221   0.877   9.184  0.5069 -0.6854 -0.7044
   62SAPC  H10R 4907   1.138   0.882   9.259 -0.2073 -1.2668 -1.4339
   62SAPC  H10S 4908   1.253   0.771   9.177 -0.4463 -1.2036  1.5974
   62SAPC  C211 4909   1.169   0.942   9.058  0.2292 -0.0777  0.1318
   62SAPC  H11R 4910   1.100   1.028   9.064  1.2084  0.9858 -2.5203
   62SAPC  C212 4911   1.195   0.894   8.936  0.0966 -0.2861  0.3188
   62SAPC  H12R 4912   1.166   0.953   8.848  0.5827  1.1695  1.0960
   62SAPC  C213 4913   1.273   0.764   8.899  0.5829  0.2836 -0.9709
   62SAPC  H13R 4914   1.214   0.679   8.857  0.2755 -1.1105  2.0614
   62SAPC  H13S 4915   1.304   0.708   8.989 -1.2062 -1.2425 -1.2530
   62SAPC  C214 4916   1.395   0.794   8.823  0.3404  0.0614  0.0038
   62SAPC  H14R 4917   1.432   0.897   8.830  0.5849 -0.0658  0.5904
   62SAPC  C215 4918   1.462   0.709   8.738 -0.2228 -0.4255 -0.3090
   62SAPC  H15R 4919   1.549   0.756   8.691  0.3862  0.2043  1.3770
   62SAPC  C216 4920   1.430   0.559   8.721 -1.3879 -0.8059 -0.4180
   62SAPC  H16R 4921   1.389   0.539   8.619 -2.0408 -1.7600  0.0203
   62SAPC  H16S 4922   1.371   0.532   8.811  0.5065 -1.1411  0.7647
   62SAPC  C217 4923   1.559   0.481   8.732 -0.0668 -0.0641 -0.4093
   62SAPC  H17R 4924   1.530   0.373   8.733 -0.5783  0.0703 -0.5669
   62SAPC  H17S 4925   1.607   0.501   8.830  2.4503  0.2703 -1.6099
   62SAPC  C218 4926   1.665   0.528   8.621  0.1672 -0.5090  0.4120
   62SAPC  H18R 4927   1.693   0.633   8.643  2.5530 -0.9966 -0.0369
   62SAPC  H18S 4928   1.630   0.522   8.515  1.5276 -0.1158 -0.0805
   62SAPC  C219 4929   1.796   0.447   8.633  0.5093 -0.5133 -0.0982
   62SAPC  H19R 4930   1.772   0.341   8.653  1.1077 -0.9622 -1.5712
   62SAPC  H19S 4931   1.844   0.487   8.725 -1.0925  1.0634  0.1143
   62SAPC  C220 4932   1.881   0.453   8.502 -0.0037 -0.8730 -0.0805
   62SAPC  H20R 4933   1.890   0.552   8.453  1.1289 -1.2049 -0.5871
   62SAPC  H20S 4934   1.839   0.376   8.433 -0.0367 -0.7906 -0.1527
   62SAPC  H20T 4935   1.983   0.413   8.520  0.5345 -0.2564 -1.5929
   62SAPC   C33 4936   2.069   1.054   9.970 -0.2479  0.0032 -0.2307
   62SAPC   H3X 4937   2.069   1.137  10.043  0.3358 -1.3204  1.3276
   62SAPC   H3Y 4938   1.968   1.008   9.974 -0.1527 -0.1090  1.2508
   62SAPC   C34 4939   2.090   1.103   9.826  0.3788  0.3563  0.6938
   62SAPC   H4X 4940   2.195   1.090   9.794  0.0962 -2.3764  0.6326
   62SAPC   H4Y 4941   2.068   1.212   9.828  0.0839  0.3721 -1.5461
   62SAPC   C35 4942   1.993   1.039   9.730 -0.4974 -0.2905  1.2036
   62SAPC   H5X 4943   1.884   1.054   9.750 -1.0996 -1.1514 -1.0738
   62SAPC   H5Y 4944   1.996   0.928   9.728 -1.9945 -0.3533  0.2291
   62SAPC   C36 4945   1.995   1.089   9.579 -0.1723  0.3235 -0.4714
   62SAPC   H6X 4946   2.102   1.094   9.550  0.0874 -0.1845  0.3564
   62SAPC   H6Y 4947   1.946   1.189   9.577 -0.3548  0.2183 -1.6657
   62SAPC   C37 4948   1.924   1.002   9.481  0.4227  0.1649  0.4745
   62SAPC   H7X 4949   1.820   0.989   9.517  0.9486 -0.6056  1.7727
   62SAPC   H7Y 4950   1.972   0.902   9.475  0.4714  0.0084  2.8801
   62SAPC   C38 4951   1.922   1.060   9.340 -0.1560 -0.4113 -0.1108
   62SAPC   H8X 4952   2.007   1.022   9.281  0.1741 -3.1066  1.9177
   62SAPC   H8Y 4953   1.930   1.170   9.358  0.8448 -0.4758 -0.1258
   62SAPC   C39 4954   1.802   1.033   9.259  0.4254  0.5503 -0.2979
   62SAPC   H9X 4955   1.720   1.072   9.323  0.4188  0.5102 -0.2819
   62SAPC   H9Y 4956   1.777   0.925   9.247 -0.9561  0.8559 -0.2779
   62SAPC  C310 4957   1.804   1.104   9.127  1.0743 -0.5516 -0.0685
   62SAPC  H10X 4958   1.876   1.051   9.061 -0.2456 -2.1511 -0.2742
   62SAPC  H10Y 4959   1.855   1.201   9.146  0.8441 -1.0871  4.2331
   62SAPC  C311 4960   1.673   1.127   9.059  0.1149 -0.0063  0.0742
   62SAPC  H11X 4961   1.618   1.200   9.122 -1.3106  0.1717 -1.3294
   62SAPC  H11Y 4962   1.613   1.035   9.048 -1.4933  1.1675 -1.6428
   62SAPC  C312 4963   1.695   1.183   8.916 -0.5262 -0.4649  0.3528
   62SAPC  H12X 4964   1.769   1.266   8.906 -1.2417  0.1532  0.0700
   62SAPC  H12Y 4965   1.601   1.225   8.874 -0.1465 -0.5479 -0.5968
   62SAPC  C313 4966   1.740   1.082   8.815 -0.5803  0.5469  0.8041
   62SAPC  H13X 4967   1.674   1.095   8.726 -2.0895 -0.9440  1.6526
   62SAPC  H13Y 4968   1.724   0.979   8.852  2.8248 -0.3494  0.0895
   62SAPC  C314 4969   1.894   1.083   8.776  0.1158 -0.0359  0.4841
   62SAPC  H14X 4970   1.953   1.036   8.858  1.4979  2.0218  0.7261
   62SAPC  H14Y 4971   1.941   1.181   8.754  4.7931 -2.0376  0.4392
   62SAPC  C315 4972   1.912   0.991   8.649  0.4819 -0.0101  0.4074
   62SAPC  H15X 4973   1.871   0.888   8.661 -1.8608  0.7959 -0.0859
   62SAPC  H15Y 4974   2.022   0.987   8.634  0.4033 -3.9063 -0.2181
   62SAPC  C316 4975   1.848   1.051   8.524 -0.5668 -0.0148 -0.1916
   62SAPC  H16X 4976   1.737   1.042   8.524 -0.4663 -1.5136 -0.4640
   62SAPC  H16Y 4977   1.881   0.980   8.445 -0.8990 -2.1548  1.5095
   62SAPC  C317 4978   1.886   1.194   8.476  0.1375  0.1324  0.0729
   62SAPC  H17X 4979   1.930   1.185   8.375 -2.4365  0.4536 -1.1632
   62SAPC  H17Y 4980   1.968   1.235   8.538 -2.3637  3.3421  1.5837
   62SAPC  C318 4981   1.773   1.304   8.476 -1.0728  0.4653 -0.7380
   62SAPC  H18X 4982   1.827   1.395   8.442  0.6857  1.0931  3.2096
   62SAPC  H18Y 4983   1.756   1.316   8.585  0.8283 -1.1541 -0.2067
   62SAPC  H18Z 4984   1.689   1.275   8.408 -0.9819  0.4588 -0.8479
   63SAPC     N 4985   4.736   4.557   5.828 -0.2894 -0.5436  0.4179
   63SAPC   C12 4986   4.801   4.567   5.970  0.1366  0.0806 -0.5608
   63SAPC  H12A 4987   4.829   4.669   5.994  1.4396 -0.2673 -0.5546
   63SAPC  H12B 4988   4.901   4.528   5.961 -0.4354 -1.4123 -0.6377
   63SAPC   C13 4989   4.603   4.607   5.812  0.2694 -0.4639 -0.4696
   63SAPC  H13A 4990   4.595   4.706   5.854  1.5783 -1.0661  1.2917
   63SAPC  H13B 4991   4.579   4.632   5.709  1.9137  0.6241 -0.6287
   63SAPC  H13C 4992   4.528   4.542   5.853 -1.6293  0.7368 -1.8221
   63SAPC   C14 4993   4.822   4.629   5.726 -0.0193 -0.1918  0.0305
   63SAPC  H14A 4994   4.774   4.612   5.631 -0.9291  0.1255  0.4266
   63SAPC  H14B 4995   4.830   4.734   5.750 -1.7042 -0.5961  2.7280
   63SAPC  H14C 4996   4.923   4.591   5.720 -0.5138 -1.8240  1.3474
   63SAPC   C15 4997   4.737   4.412   5.790 -0.1088  0.5014  0.1921
   63SAPC  H15A 4998   4.686   4.382   5.700  0.3651  0.7644 -0.1684
   63SAPC  H15B 4999   4.841   4.383   5.802  0.5585  3.2225  1.7891
   63SAPC  H15C 5000   4.680   4.360   5.866 -0.4551  1.0055  0.2760
   63SAPC   C11 5001   4.727   4.501   6.086  0.8858 -0.7647 -0.1664
   63SAPC  H11A 5002   4.776   4.405   6.114  0.8412 -1.0326 -0.9976
   63SAPC  H11B 5003   4.623   4.489   6.050  1.1864  1.4422 -1.9789
   63SAPC     P 5004   4.632   4.715   6.182  0.1254 -0.4941 -0.2158
   63SAPC   O13 5005   4.676   4.798   6.067 -0.2867  0.0486 -0.0403
   63SAPC   O14 5006   4.491   4.668   6.182 -0.0664 -0.4817  0.1968
   63SAPC   O12 5007   4.735   4.590   6.189  0.2509  0.4815  0.0313
   63SAPC   O11 5008   4.670   4.787   6.318 -0.5844 -0.9321  0.1726
   63SAPC    C1 5009   4.804   4.834   6.344 -0.0532  0.3122  0.0668
   63SAPC    HA 5010   4.877   4.802   6.267 -0.1108  0.9969 -0.2845
   63SAPC    HB 5011   4.807   4.945   6.353  0.4638  0.4083 -1.1710
   63SAPC    C2 5012   4.860   4.768   6.470  0.4072 -0.3154 -1.1180
   63SAPC    HS 5013   4.822   4.663   6.470 -0.2325 -0.0860 -1.2930
   63SAPC   O21 5014   4.819   4.851   6.582  0.4157  0.5886 -0.5293
   63SAPC   C21 5015   4.769   4.767   6.681 -0.7321 -0.0887  0.2559
   63SAPC   O22 5016   4.773   4.645   6.678  0.0561 -0.2481  0.1373
   63SAPC   C22 5017   4.721   4.843   6.797  0.0286 -0.3317 -0.1656
   63SAPC   H2R 5018   4.661   4.929   6.762 -0.3654  0.1770  1.6566
   63SAPC   H2S 5019   4.655   4.777   6.857  1.3751 -1.7144 -0.1536
   63SAPC    C3 5020   5.016   4.759   6.476 -0.0200 -0.3340 -1.0137
   63SAPC    HX 5021   5.052   4.864   6.483 -1.0428  0.2581 -3.5194
   63SAPC    HY 5022   5.058   4.704   6.389  1.2252 -2.5932  0.8873
   63SAPC   O31 5023   5.058   4.686   6.602  0.2009  0.4479 -0.1090
   63SAPC   C31 5024   5.183   4.711   6.630 -0.1124  0.5838 -0.1720
   63SAPC   O32 5025   5.270   4.759   6.559  0.0521 -0.1121  0.1908
   63SAPC   C32 5026   5.195   4.675   6.778  0.4817 -0.4123 -0.0258
   63SAPC   H2X 5027   5.103   4.621   6.809  0.0643 -0.7828 -1.8292
   63SAPC   H2Y 5028   5.216   4.765   6.841  2.2458 -1.5817  1.1756
   63SAPC   C23 5029   4.839   4.892   6.877 -0.7028  0.2966 -0.6391
   63SAPC   H3R 5030   4.905   4.947   6.807  0.3295 -1.2951 -0.9711
   63SAPC   H3S 5031   4.900   4.806   6.914 -2.6235  0.2972  3.0004
   63SAPC   C24 5032   4.798   4.986   6.992  0.7050 -0.7435  0.0283
   63SAPC   H4R 5033   4.727   4.936   7.061 -1.9966  1.9790 -0.5760
   63SAPC   H4S 5034   4.735   5.063   6.942  0.9350 -0.1844  0.5814
   63SAPC   C25 5035   4.917   5.041   7.058 -0.1024 -0.1618  0.1776
   63SAPC   H5R 5036   4.965   5.125   7.006  0.2577  1.0692  2.3842
   63SAPC   C26 5037   4.969   4.986   7.172 -0.3263  0.2205  0.7953
   63SAPC   H6R 5038   5.045   5.029   7.239 -0.7797  0.1555  1.3549
   63SAPC   C27 5039   4.916   4.861   7.239 -0.2401 -0.6184 -0.7436
   63SAPC   H7R 5040   4.999   4.798   7.277  0.4107  1.3885  1.3931
   63SAPC   H7S 5041   4.863   4.795   7.167 -0.1317 -1.1934 -0.3026
   63SAPC   C28 5042   4.825   4.886   7.361  0.2054  0.1059  0.2058
   63SAPC   H8R 5043   4.719   4.905   7.338  0.1153 -0.1360  0.4227
   63SAPC   C29 5044   4.861   4.894   7.490 -0.5074  0.2375  0.3016
   63SAPC   H9R 5045   4.784   4.897   7.568 -3.1800  2.1179 -2.2240
   63SAPC  C210 5046   5.003   4.887   7.532 -0.6722  0.5654 -0.3433
   63SAPC  H10R 5047   5.070   4.880   7.444 -0.4073  2.7220 -0.3634
   63SAPC  H10S 5048   5.017   4.794   7.591 -0.8281 -0.1463 -1.4038
   63SAPC  C211 5049   5.046   5.018   7.599 -0.6484  0.5457 -0.1665
   63SAPC  H11R 5050   5.039   5.106   7.534  0.3581 -0.5594 -1.8729
   63SAPC  C212 5051   5.082   5.029   7.729 -0.3647 -0.0411 -0.0656
   63SAPC  H12R 5052   5.096   5.130   7.771  1.1626 -0.4050  0.3630
   63SAPC  C213 5053   5.099   4.924   7.843  0.3709 -0.4075 -0.3510
   63SAPC  H13R 5054   5.207   4.914   7.864  0.0865 -0.1363  1.3418
   63SAPC  H13S 5055   5.062   4.827   7.803 -2.0749 -0.8141  2.5823
   63SAPC  C214 5056   5.044   4.945   7.979  0.4502 -0.1493 -0.3820
   63SAPC  H14R 5057   5.105   4.898   8.057 -0.7857 -0.0402  0.6987
   63SAPC  C215 5058   4.925   4.992   8.018  0.1129 -0.6918  0.3717
   63SAPC  H15R 5059   4.905   5.024   8.122 -1.0101 -0.3032  0.0537
   63SAPC  C216 5060   4.815   5.040   7.928  0.8497  0.4313  0.3811
   63SAPC  H16R 5061   4.830   4.999   7.826  1.4072  2.7670 -0.5582
   63SAPC  H16S 5062   4.821   5.149   7.903 -2.4845  0.4503 -0.8405
   63SAPC  C217 5063   4.668   5.003   7.976  0.0120 -0.2005  1.0589
   63SAPC  H17R 5064   4.654   5.039   8.080 -0.4195 -1.2796  1.3969
   63SAPC  H17S 5065   4.671   4.892   7.983 -1.0597 -0.2544  0.8391
   63SAPC  C218 5066   4.562   5.067   7.890  0.4945  0.1230 -0.2705
   63SAPC  H18R 5067   4.461   5.036   7.923  0.4060  0.4183 -0.2544
   63SAPC  H18S 5068   4.566   5.030   7.786  2.8957  2.9650 -1.3433
   63SAPC  C219 5069   4.567   5.219   7.888 -0.6120  0.3278  0.1383
   63SAPC  H19R 5070   4.651   5.253   7.824 -2.4581  3.4535 -0.8488
   63SAPC  H19S 5071   4.585   5.260   7.990  1.6280  0.7862 -0.3783
   63SAPC  C220 5072   4.439   5.276   7.821  0.5227  0.0658  0.1115
   63SAPC  H20R 5073   4.355   5.211   7.853 -0.6401  2.3200  1.8637
   63SAPC  H20S 5074   4.450   5.262   7.711  0.5354 -0.6449  0.1977
   63SAPC  H20T 5075   4.425   5.381   7.853 -0.4023 -0.4148  1.3343
   63SAPC   C33 5076   5.319   4.589   6.807 -0.3932  0.3019  0.1054
   63SAPC   H3X 5077   5.399   4.653   6.762 -0.9764  1.3381  0.5050
   63SAPC   H3Y 5078   5.321   4.500   6.741 -1.5363  1.7077 -1.9465
   63SAPC   C34 5079   5.348   4.549   6.958  0.5275  0.6141 -0.0186
   63SAPC   H4X 5080   5.361   4.637   7.025  1.0266  0.6722 -0.1922
   63SAPC   H4Y 5081   5.448   4.501   6.962  0.2327 -0.0870 -0.8179
   63SAPC   C35 5082   5.241   4.449   7.011 -0.2598  0.3016 -0.2991
   63SAPC   H5X 5083   5.239   4.367   6.935 -0.0727 -0.9912  1.0468
   63SAPC   H5Y 5084   5.139   4.494   7.008  0.0799  1.0565 -1.9995
   63SAPC   C36 5085   5.271   4.393   7.150  0.3680 -1.0211  0.5792
   63SAPC   H6X 5086   5.379   4.365   7.153  0.9760  0.8728 -0.9703
   63SAPC   H6Y 5087   5.214   4.301   7.174 -0.1224 -0.8355  0.1377
   63SAPC   C37 5088   5.245   4.502   7.256  0.0005 -0.1535  0.0326
   63SAPC   H7X 5089   5.143   4.544   7.263 -0.1820 -0.6047  0.1097
   63SAPC   H7Y 5090   5.299   4.592   7.220 -1.0342  0.4059 -0.1588
   63SAPC   C38 5091   5.296   4.475   7.399  0.2382  0.6265  0.3653
   63SAPC   H8X 5092   5.401   4.510   7.404  0.2585  0.5780  0.2872
   63SAPC   H8Y 5093   5.285   4.366   7.418  1.5454  0.4051 -0.0734
   63SAPC   C39 5094   5.203   4.559   7.491  0.3846 -0.0688  0.1455
   63SAPC   H9X 5095   5.095   4.535   7.491 -0.4694  3.2598  0.2200
   63SAPC   H9Y 5096   5.201   4.662   7.450 -0.0535 -0.0229  0.2750
   63SAPC  C310 5097   5.252   4.561   7.635  0.2084 -0.1041 -0.9305
   63SAPC  H10X 5098   5.219   4.654   7.686  1.5971 -1.4445  2.7737
   63SAPC  H10Y 5099   5.363   4.569   7.628  0.4516 -1.8630  0.3764
   63SAPC  C311 5100   5.206   4.446   7.722  0.9663  0.1295 -0.2706
   63SAPC  H11X 5101   5.279   4.362   7.720  0.4551 -0.3520  0.5240
   63SAPC  H11Y 5102   5.110   4.412   7.679  1.5415 -1.1444 -0.6184
   63SAPC  C312 5103   5.178   4.494   7.862  0.0835  0.5615  0.2248
   63SAPC  H12X 5104   5.117   4.413   7.908  3.0981 -0.5750  2.5113
   63SAPC  H12Y 5105   5.112   4.584   7.870 -0.6541 -0.0040  0.6163
   63SAPC  C313 5106   5.302   4.524   7.949 -0.3222 -0.1782  0.1567
   63SAPC  H13X 5107   5.338   4.622   7.912 -0.1177 -1.0797 -2.2421
   63SAPC  H13Y 5108   5.379   4.448   7.922 -1.3503 -0.9953 -0.5889
   63SAPC  C314 5109   5.280   4.521   8.103  0.0864 -0.3298  0.7309
   63SAPC  H14X 5110   5.245   4.419   8.129 -0.0341 -0.5665 -0.3075
   63SAPC  H14Y 5111   5.198   4.589   8.133  1.3267  1.5904 -0.0255
   63SAPC  C315 5112   5.411   4.554   8.178 -0.0934 -0.0128 -0.5532
   63SAPC  H15X 5113   5.437   4.661   8.165 -0.0810 -0.1898 -2.1345
   63SAPC  H15Y 5114   5.489   4.494   8.128 -1.7278 -1.5339 -1.3941
   63SAPC  C316 5115   5.415   4.514   8.327  0.1515 -0.2644  0.2164
   63SAPC  H16X 5116   5.341   4.571   8.387  1.2051  1.2528  0.1322
   63SAPC  H16Y 5117   5.516   4.542   8.366 -1.1372  2.7617  1.7186
   63SAPC  C317 5118   5.395   4.364   8.349 -0.2689 -0.1766  0.1833
   63SAPC  H17X 5119   5.476   4.316   8.291 -0.8119 -2.3038  1.0855
   63SAPC  H17Y 5120   5.300   4.318   8.315 -0.4292 -1.1012  1.7628
   63SAPC  C318 5121   5.415   4.322   8.485 -0.2790  0.7060 -0.9315
   63SAPC  H18X 5122   5.350   4.366   8.564  0.5342 -1.7461  1.2284
   63SAPC  H18Y 5123   5.521   4.329   8.517 -0.5255 -2.8972  1.1591
   63SAPC  H18Z 5124   5.403   4.212   8.484  0.7124  0.5848 -0.7250
   64SAPC     N 5125   6.490   4.664   5.892 -0.5193 -0.1573 -0.3033
   64SAPC   C12 5126   6.497   4.621   6.036 -0.3588 -0.2383  0.7332
   64SAPC  H12A 5127   6.417   4.674   6.086 -0.8375 -0.9311  0.7241
   64SAPC  H12B 5128   6.587   4.666   6.076  0.5615 -1.7975  0.5049
   64SAPC   C13 5129   6.354   4.633   5.829 -0.5611  0.0672 -0.8052
   64SAPC  H13A 5130   6.316   4.542   5.872  1.5630 -0.6550 -0.3422
   64SAPC  H13B 5131   6.281   4.709   5.855 -0.9061 -0.6426  0.3514
   64SAPC  H13C 5132   6.357   4.623   5.722  0.9013  2.3819 -1.0491
   64SAPC   C14 5133   6.505   4.815   5.887  0.2355 -0.6903  0.2309
   64SAPC  H14A 5134   6.609   4.843   5.895  0.1056  0.6437 -1.9796
   64SAPC  H14B 5135   6.469   4.863   5.797  0.5947  0.5532  0.7290
   64SAPC  H14C 5136   6.439   4.867   5.955  0.2573 -0.1556 -0.1462
   64SAPC   C15 5137   6.594   4.597   5.807 -1.1250 -0.1265 -1.1902
   64SAPC  H15A 5138   6.601   4.490   5.813  1.7605  0.0587  0.7736
   64SAPC  H15B 5139   6.580   4.631   5.705 -0.8181 -0.3504 -1.3080
   64SAPC  H15C 5140   6.696   4.622   5.834 -0.9560 -0.7280 -1.2674
   64SAPC   C11 5141   6.492   4.473   6.069  0.0571 -0.3574 -0.6533
   64SAPC  H11A 5142   6.492   4.463   6.180  0.5835 -3.1052 -0.8229
   64SAPC  H11B 5143   6.588   4.430   6.035  0.6462  0.8086 -0.5284
   64SAPC     P 5144   6.379   4.252   6.015 -0.2508 -0.0498  0.0862
   64SAPC   O13 5145   6.261   4.202   5.948  0.6024  0.0885  0.6571
   64SAPC   O14 5146   6.512   4.222   5.949 -0.5462  0.4032 -0.3551
   64SAPC   O12 5147   6.368   4.414   6.022 -0.3987 -0.1670  0.4125
   64SAPC   O11 5148   6.389   4.207   6.165 -0.5361 -0.1306 -0.3094
   64SAPC    C1 5149   6.274   4.234   6.246 -0.5987 -0.0155 -0.2011
   64SAPC    HA 5150   6.249   4.342   6.237  1.7055  0.4913 -1.1335
   64SAPC    HB 5151   6.187   4.175   6.209  0.5297 -2.6756  1.0563
   64SAPC    C2 5152   6.288   4.199   6.391  0.8472  0.5791  0.2898
   64SAPC    HS 5153   6.281   4.090   6.411  1.0715  0.6226  0.6156
   64SAPC   O21 5154   6.191   4.279   6.458 -0.0888  0.3776  0.3526
   64SAPC   C21 5155   6.066   4.222   6.467  0.3589  0.0766  0.4658
   64SAPC   O22 5156   6.043   4.102   6.451  0.1101  0.0202  0.7064
   64SAPC   C22 5157   5.957   4.315   6.517  0.0351 -0.2396  0.5895
   64SAPC   H2R 5158   5.914   4.379   6.437  1.2200 -0.7376 -0.4738
   64SAPC   H2S 5159   5.876   4.256   6.564 -0.6027 -0.8282 -1.1574
   64SAPC    C3 5160   6.429   4.237   6.437  0.2484 -0.5100 -0.3776
   64SAPC    HX 5161   6.434   4.347   6.422  2.5314 -0.8227 -2.9350
   64SAPC    HY 5162   6.509   4.198   6.370  0.7687  1.4610 -0.9577
   64SAPC   O31 5163   6.445   4.194   6.570 -0.1311 -0.1125 -0.4520
   64SAPC   C31 5164   6.480   4.067   6.593  0.3879  0.4688  0.2967
   64SAPC   O32 5165   6.525   3.991   6.511  0.4182  0.3247  0.0421
   64SAPC   C32 5166   6.447   4.031   6.732  0.7253  0.3788  0.0862
   64SAPC   H2X 5167   6.476   4.118   6.794  0.1097 -1.2982  2.9082
   64SAPC   H2Y 5168   6.497   3.935   6.757  0.5233  0.5268  1.0940
   64SAPC   C23 5169   6.014   4.422   6.618  0.1100  0.1290 -0.2358
   64SAPC   H3R 5170   6.086   4.493   6.573 -0.7870  1.6648  0.6626
   64SAPC   H3S 5171   6.070   4.358   6.689 -0.8649 -1.3516 -0.7605
   64SAPC   C24 5172   5.902   4.501   6.686 -0.1141 -0.4487 -0.0371
   64SAPC   H4R 5173   5.811   4.439   6.704 -2.1333  1.8161 -1.8807
   64SAPC   H4S 5174   5.872   4.576   6.610  3.3392  1.0422 -0.0789
   64SAPC   C25 5175   5.953   4.579   6.803 -1.1269  0.3293  0.3248
   64SAPC   H5R 5176   6.020   4.661   6.771 -2.1132 -0.1750 -3.5326
   64SAPC   C26 5177   5.937   4.544   6.935  0.4632  0.4388 -0.5221
   64SAPC   H6R 5178   5.974   4.610   7.015  0.1988 -1.6402  1.4285
   64SAPC   C27 5179   5.851   4.433   6.986  0.8552  0.0184 -0.1647
   64SAPC   H7R 5180   5.914   4.400   7.072  0.1995  1.1694  0.7807
   64SAPC   H7S 5181   5.844   4.343   6.921  1.1696  0.0826 -0.2927
   64SAPC   C28 5182   5.720   4.496   7.018 -0.6343  0.1663  0.0469
   64SAPC   H8R 5183   5.667   4.547   6.936  0.7287  4.8795  1.7688
   64SAPC   C29 5184   5.671   4.526   7.137 -0.9092 -0.0481 -0.5022
   64SAPC   H9R 5185   5.580   4.588   7.138 -0.5217  0.5526  1.6634
   64SAPC  C210 5186   5.740   4.496   7.268  0.0362 -0.2339  0.5090
   64SAPC  H10R 5187   5.787   4.395   7.270  0.9383  0.1532  2.8240
   64SAPC  H10S 5188   5.659   4.485   7.344  0.1014 -0.3419  0.5640
   64SAPC  C211 5189   5.847   4.593   7.318  0.3411 -0.3237  0.4515
   64SAPC  H11R 5190   5.909   4.647   7.245 -0.1062  1.7799  1.5223
   64SAPC  C212 5191   5.870   4.615   7.445 -0.0669  0.3616 -0.6312
   64SAPC  H12R 5192   5.958   4.676   7.470  2.4209 -2.9753 -0.6016
   64SAPC  C213 5193   5.793   4.563   7.568 -0.4962 -0.1717 -0.5518
   64SAPC  H13R 5194   5.819   4.457   7.588 -2.1513 -0.6033 -0.5468
   64SAPC  H13S 5195   5.686   4.549   7.543 -0.4756 -5.0846  1.0561
   64SAPC  C214 5196   5.824   4.649   7.689 -0.5558 -0.0060 -0.7687
   64SAPC  H14R 5197   5.801   4.756   7.689 -0.7646  0.0230  2.0756
   64SAPC  C215 5198   5.888   4.606   7.801  0.7160  0.4243  0.5268
   64SAPC  H15R 5199   5.903   4.671   7.889  2.9711 -0.6259  0.9841
   64SAPC  C216 5200   5.937   4.461   7.813 -0.1193 -0.5554  0.2188
   64SAPC  H16R 5201   6.032   4.455   7.871  1.0212 -0.5481 -1.5577
   64SAPC  H16S 5202   5.980   4.430   7.715 -0.3401  1.2480 -0.4900
   64SAPC  C217 5203   5.840   4.354   7.863 -0.0406 -0.5342  0.6279
   64SAPC  H17R 5204   5.908   4.267   7.873  0.8141 -0.1639 -1.4533
   64SAPC  H17S 5205   5.761   4.330   7.788 -2.3730  1.4185  2.3108
   64SAPC  C218 5206   5.772   4.386   7.994  0.0253  0.1342  0.2810
   64SAPC  H18R 5207   5.705   4.306   8.030 -0.8904  0.5222 -0.5248
   64SAPC  H18S 5208   5.706   4.474   7.976  0.2945  0.5251  1.1423
   64SAPC  C219 5209   5.860   4.417   8.115  0.3098 -0.3204  0.2584
   64SAPC  H19R 5210   5.912   4.515   8.101 -2.3221  0.8802 -2.0617
   64SAPC  H19S 5211   5.944   4.345   8.122  0.5879  0.0589  0.9943
   64SAPC  C220 5212   5.789   4.418   8.256  0.4498 -0.5234  0.1178
   64SAPC  H20R 5213   5.714   4.499   8.271  1.2568 -0.1335  2.5764
   64SAPC  H20S 5214   5.873   4.436   8.327 -0.1120  0.3532  0.5880
   64SAPC  H20T 5215   5.734   4.323   8.270  2.0459 -2.1492 -3.4944
   64SAPC   C33 5216   6.301   4.000   6.763  0.0943  0.4736 -0.0176
   64SAPC   H3X 5217   6.306   3.914   6.834  0.9888 -1.8591 -2.6989
   64SAPC   H3Y 5218   6.247   3.964   6.673  0.5662  0.3472 -0.2564
   64SAPC   C34 5219   6.227   4.123   6.820 -0.8361  0.6806 -0.1326
   64SAPC   H4X 5220   6.117   4.108   6.827 -0.7437  0.3259  0.6609
   64SAPC   H4Y 5221   6.247   4.217   6.763  1.2087 -0.8028 -2.0224
   64SAPC   C35 5222   6.271   4.157   6.963 -0.3748  0.6053  0.5752
   64SAPC   H5X 5223   6.377   4.187   6.972 -1.1784  3.4712  1.5561
   64SAPC   H5Y 5224   6.262   4.060   7.017  1.9833  0.8433  1.5384
   64SAPC   C36 5225   6.187   4.262   7.029 -0.2567 -0.5699  0.0068
   64SAPC   H6X 5226   6.078   4.266   7.006 -0.0006  0.5311 -1.1044
   64SAPC   H6Y 5227   6.221   4.363   6.997  0.3430  0.3270  3.1007
   64SAPC   C37 5228   6.207   4.253   7.180  0.6706  0.1466 -0.1397
   64SAPC   H7X 5229   6.314   4.264   7.210  0.3583 -0.4527  1.2534
   64SAPC   H7Y 5230   6.184   4.151   7.216 -0.6797  0.7845  0.8963
   64SAPC   C38 5231   6.122   4.357   7.257  0.3685 -0.8613  0.0344
   64SAPC   H8X 5232   6.014   4.330   7.250 -0.3791  2.2046 -3.6018
   64SAPC   H8Y 5233   6.135   4.461   7.220 -0.7307 -0.4787  0.6605
   64SAPC   C39 5234   6.180   4.370   7.400 -0.1385  0.0821 -0.0222
   64SAPC   H9X 5235   6.112   4.439   7.455  1.0910  1.1721  0.1879
   64SAPC   H9Y 5236   6.285   4.407   7.405  0.8399 -2.6121  2.1434
   64SAPC  C310 5237   6.184   4.238   7.484  0.0611  0.0162 -0.1248
   64SAPC  H10X 5238   6.246   4.157   7.439 -0.6786 -0.4815 -0.2716
   64SAPC  H10Y 5239   6.078   4.205   7.494  0.2361 -0.2474  1.0049
   64SAPC  C311 5240   6.236   4.278   7.622 -0.3096 -0.3360 -0.0514
   64SAPC  H11X 5241   6.190   4.371   7.662 -0.5650 -1.2019  1.7827
   64SAPC  H11Y 5242   6.342   4.308   7.609  0.0194 -0.5521  1.7851
   64SAPC  C312 5243   6.228   4.155   7.711 -0.0419  0.3527  0.5773
   64SAPC  H12X 5244   6.284   4.074   7.661  0.6970  1.6499 -0.7819
   64SAPC  H12Y 5245   6.123   4.118   7.708 -0.2083  0.7148  1.4172
   64SAPC  C313 5246   6.290   4.182   7.852  0.5400 -0.2702 -0.4024
   64SAPC  H13X 5247   6.223   4.259   7.895  0.6269  0.5794 -1.7337
   64SAPC  H13Y 5248   6.395   4.218   7.849  1.2614 -2.2727 -2.6952
   64SAPC  C314 5249   6.297   4.060   7.951 -1.6371  0.1686 -0.2101
   64SAPC  H14X 5250   6.356   3.978   7.905 -2.5364 -0.8086  0.3609
   64SAPC  H14Y 5251   6.194   4.021   7.964 -1.9485  0.3425 -1.9137
   64SAPC  C315 5252   6.344   4.107   8.091  0.2390 -0.3346 -0.3459
   64SAPC  H15X 5253   6.270   4.179   8.131  1.9222  2.7652 -2.3856
   64SAPC  H15Y 5254   6.448   4.144   8.105 -0.9710  2.6569  1.8442
   64SAPC  C316 5255   6.349   3.976   8.182  0.4620 -0.5646 -0.1323
   64SAPC  H16X 5256   6.417   3.896   8.146  0.7828 -0.4789  0.2768
   64SAPC  H16Y 5257   6.249   3.930   8.172  0.3578 -0.4339  0.2838
   64SAPC  C317 5258   6.373   4.007   8.329 -0.1758 -1.1455 -0.1857
   64SAPC  H17X 5259   6.298   4.074   8.375  0.7069 -1.5794  2.0178
   64SAPC  H17Y 5260   6.473   4.055   8.337 -1.2128  1.3551 -1.1921
   64SAPC  C318 5261   6.382   3.874   8.409  0.2648 -0.3316 -0.0192
   64SAPC  H18X 5262   6.388   3.893   8.518 -0.4204 -1.5202  0.2440
   64SAPC  H18Y 5263   6.468   3.807   8.386  3.0075  3.0996 -0.6867
   64SAPC  H18Z 5264   6.284   3.824   8.396 -0.7529  1.9329 -2.0245
   65SAPC     N 5265   1.456   5.468   5.708 -0.2085  0.4489  0.4090
   65SAPC   C12 5266   1.502   5.611   5.702 -0.2039  0.0339 -0.0901
   65SAPC  H12A 5267   1.430   5.670   5.757  0.7728 -0.4173  1.7558
   65SAPC  H12B 5268   1.495   5.645   5.600 -0.5743  1.2339  0.3265
   65SAPC   C13 5269   1.317   5.459   5.649 -0.3245  0.5336  0.2895
   65SAPC  H13A 5270   1.332   5.477   5.543  0.1304  3.9647  0.8201
   65SAPC  H13B 5271   1.262   5.368   5.672  2.8195 -1.6442 -0.2084
   65SAPC  H13C 5272   1.263   5.543   5.690  1.1244  0.0795  3.4122
   65SAPC   C14 5273   1.554   5.391   5.620  0.1755  0.6416 -0.1195
   65SAPC  H14A 5274   1.544   5.426   5.518  0.5430 -0.9266 -0.7233
   65SAPC  H14B 5275   1.654   5.406   5.657  0.2747  0.5322 -0.3456
   65SAPC  H14C 5276   1.539   5.285   5.632 -0.2357  0.8289  1.1328
   65SAPC   C15 5277   1.465   5.411   5.845 -0.3046 -0.3267 -0.2996
   65SAPC  H15A 5278   1.561   5.434   5.888  0.9051 -2.3995 -1.7362
   65SAPC  H15B 5279   1.385   5.451   5.906 -0.8032 -1.2262 -0.3516
   65SAPC  H15C 5280   1.443   5.306   5.841  1.3221 -0.6762 -4.1509
   65SAPC   C11 5281   1.646   5.652   5.746 -0.1466  0.6513 -0.2284
   65SAPC  H11A 5282   1.663   5.762   5.739 -1.5499  0.8565 -0.7184
   65SAPC  H11B 5283   1.713   5.613   5.667 -0.7075 -0.1850 -0.3048
   65SAPC     P 5284   1.827   5.556   5.911  0.2007 -0.2459 -0.1870
   65SAPC   O13 5285   1.836   5.414   5.867  0.7086 -0.3907  0.0751
   65SAPC   O14 5286   1.928   5.656   5.866 -0.5367  0.1790  0.9291
   65SAPC   O12 5287   1.682   5.608   5.886 -0.1477 -0.5353  0.5527
   65SAPC   O11 5288   1.848   5.552   6.068  0.1894 -0.5608  0.0020
   65SAPC    C1 5289   1.740   5.526   6.157 -0.3603 -0.1314  0.0321
   65SAPC    HA 5290   1.644   5.499   6.108 -0.8440  1.8473 -0.2072
   65SAPC    HB 5291   1.760   5.443   6.228 -0.2153 -0.8693 -0.8428
   65SAPC    C2 5292   1.712   5.647   6.245  0.9168  0.4930  0.2283
   65SAPC    HS 5293   1.698   5.724   6.167  1.2022  0.9758  0.6439
   65SAPC   O21 5294   1.827   5.672   6.326 -0.5854  0.6925  0.0393
   65SAPC   C21 5295   1.839   5.785   6.390 -0.2908 -1.0916 -0.0420
   65SAPC   O22 5296   1.775   5.888   6.375  0.2508  0.7112  0.0937
   65SAPC   C22 5297   1.936   5.771   6.502 -0.7924 -0.1085  0.2768
   65SAPC   H2R 5298   1.914   5.675   6.553  1.0557 -0.9692 -0.4440
   65SAPC   H2S 5299   2.038   5.761   6.459  0.8090  0.5648  3.5984
   65SAPC    C3 5300   1.584   5.630   6.324 -0.2323  0.1394  0.1966
   65SAPC    HX 5301   1.511   5.574   6.262 -0.8037 -0.5527  1.4654
   65SAPC    HY 5302   1.536   5.729   6.342 -0.6105 -0.1626  0.9242
   65SAPC   O31 5303   1.609   5.556   6.446 -0.2001 -0.1378 -0.7451
   65SAPC   C31 5304   1.581   5.429   6.454  0.3501  0.1223  0.4320
   65SAPC   O32 5305   1.517   5.366   6.364 -0.0359 -0.1046 -0.7558
   65SAPC   C32 5306   1.630   5.366   6.585 -0.3171 -0.0819 -0.3461
   65SAPC   H2X 5307   1.629   5.255   6.575 -3.3488 -0.1525  0.0281
   65SAPC   H2Y 5308   1.560   5.401   6.664  0.2386  1.0772 -0.3397
   65SAPC   C23 5309   1.942   5.890   6.602  0.6654  0.8725  0.8795
   65SAPC   H3R 5310   1.933   5.984   6.544 -2.8640 -0.0434 -0.3256
   65SAPC   H3S 5311   2.046   5.880   6.639  0.0408  1.0309  2.8218
   65SAPC   C24 5312   1.835   5.875   6.714  0.1162  0.4637  0.6717
   65SAPC   H4R 5313   1.813   5.767   6.730 -1.6805  0.8754  1.1498
   65SAPC   H4S 5314   1.737   5.910   6.676  0.1967 -0.5842 -0.5938
   65SAPC   C25 5315   1.873   5.947   6.843  0.4547 -0.8168 -0.2319
   65SAPC   H5R 5316   1.900   6.053   6.828  0.1622 -0.6024  0.6577
   65SAPC   C26 5317   1.887   5.896   6.968 -0.1833  0.4618  0.3634
   65SAPC   H6R 5318   1.911   5.971   7.045  1.6665 -0.7131  0.9994
   65SAPC   C27 5319   1.859   5.759   7.013  0.6648 -0.4495  0.1568
   65SAPC   H7R 5320   1.772   5.708   6.966  0.8916  0.7471 -1.6464
   65SAPC   H7S 5321   1.830   5.757   7.120  0.9965  2.4861  0.3753
   65SAPC   C28 5322   1.979   5.664   6.984  0.1306 -0.3612  0.0724
   65SAPC   H8R 5323   1.988   5.628   6.880 -0.3140 -0.3558  0.0322
   65SAPC   C29 5324   2.071   5.618   7.072  0.4713 -0.0013 -0.2874
   65SAPC   H9R 5325   2.162   5.571   7.031 -0.7599 -1.6949 -1.2362
   65SAPC  C210 5326   2.075   5.643   7.219  0.5435  0.2729  0.1345
   65SAPC  H10R 5327   2.162   5.587   7.259  1.5369  0.6454 -1.4185
   65SAPC  H10S 5328   1.983   5.613   7.273  0.3767  0.7398  0.1170
   65SAPC  C211 5329   2.113   5.786   7.240  0.1603 -1.0355 -0.3068
   65SAPC  H11R 5330   2.147   5.838   7.149  0.7027 -0.9769 -0.0732
   65SAPC  C212 5331   2.106   5.859   7.354  0.1785  1.0404  0.8465
   65SAPC  H12R 5332   2.126   5.967   7.361 -3.6356  1.8479  1.5696
   65SAPC  C213 5333   2.074   5.807   7.494  0.2082  0.2772 -0.4731
   65SAPC  H13R 5334   2.148   5.847   7.566 -0.8545  2.4080 -0.4920
   65SAPC  H13S 5335   2.084   5.696   7.491 -1.6019 -0.0244  1.9221
   65SAPC  C214 5336   1.929   5.837   7.527 -0.0332  0.1719 -0.0743
   65SAPC  H14R 5337   1.860   5.816   7.444 -1.5281  0.1334  1.1452
   65SAPC  C215 5338   1.878   5.901   7.641 -0.0934  0.5455  0.2561
   65SAPC  H15R 5339   1.774   5.881   7.672  0.7036 -0.9682  2.1563
   65SAPC  C216 5340   1.958   5.942   7.763  0.1146 -0.2634  0.2104
   65SAPC  H16R 5341   1.909   6.020   7.825 -1.1864 -0.5502 -0.4364
   65SAPC  H16S 5342   2.054   5.986   7.728 -0.3927  0.4459 -0.3178
   65SAPC  C217 5343   1.977   5.818   7.856  0.6681  0.3993 -0.7898
   65SAPC  H17R 5344   2.005   5.728   7.797  0.6715  0.4127 -0.8089
   65SAPC  H17S 5345   1.887   5.790   7.914 -1.1872  1.2099 -3.0963
   65SAPC  C218 5346   2.077   5.854   7.972 -0.1330  0.0156  0.3563
   65SAPC  H18R 5347   2.182   5.869   7.940  0.1441 -2.4710 -0.0787
   65SAPC  H18S 5348   2.082   5.756   8.023  1.2424  0.3615  0.9451
   65SAPC  C219 5349   2.031   5.961   8.068  0.0004  0.4748 -0.4778
   65SAPC  H19R 5350   1.921   5.946   8.066  0.2710 -1.9888  0.3552
   65SAPC  H19S 5351   2.037   6.066   8.031 -0.5463  0.4634 -0.6172
   65SAPC  C220 5352   2.067   5.939   8.210  0.2291 -0.0243  0.3660
   65SAPC  H20R 5353   2.177   5.928   8.220  0.5757  2.3627 -0.1711
   65SAPC  H20S 5354   2.013   5.853   8.256 -1.3078  1.0644  0.7015
   65SAPC  H20T 5355   2.047   6.025   8.278  1.0944  1.0765 -0.7229
   65SAPC   C33 5356   1.767   5.413   6.620 -0.0959  0.4053 -0.1558
   65SAPC   H3X 5357   1.774   5.523   6.633  0.4165  0.4942 -1.0430
   65SAPC   H3Y 5358   1.837   5.385   6.538 -1.2320 -3.3946  0.0017
   65SAPC   C34 5359   1.842   5.350   6.743  0.0307 -0.2257 -0.0188
   65SAPC   H4X 5360   1.943   5.396   6.749  0.2986 -0.9644  1.6541
   65SAPC   H4Y 5361   1.845   5.242   6.721 -0.0808 -0.6785  1.9945
   65SAPC   C35 5362   1.774   5.380   6.873  0.0656  0.4327  0.3845
   65SAPC   H5X 5363   1.673   5.335   6.881 -0.0100  0.4266 -0.5759
   65SAPC   H5Y 5364   1.782   5.491   6.884  0.4863  0.4989 -0.5741
   65SAPC   C36 5365   1.859   5.328   6.994  0.9179  0.0771  0.0333
   65SAPC   H6X 5366   1.955   5.386   6.996  0.9380  0.0387  0.2265
   65SAPC   H6Y 5367   1.887   5.221   6.997  0.3739 -0.0469  2.7140
   65SAPC   C37 5368   1.786   5.359   7.124  0.5477 -0.2702  0.3278
   65SAPC   H7X 5369   1.692   5.301   7.122  0.3722  0.0157 -0.6383
   65SAPC   H7Y 5370   1.771   5.469   7.119  0.1599 -0.3212  0.3730
   65SAPC   C38 5371   1.867   5.340   7.252  0.7425  0.5668 -0.2945
   65SAPC   H8X 5372   1.969   5.381   7.237  0.1253  1.5781 -2.1360
   65SAPC   H8Y 5373   1.877   5.230   7.263 -1.3250  0.5575  2.6709
   65SAPC   C39 5374   1.813   5.418   7.372 -0.2514 -0.0690 -0.0085
   65SAPC   H9X 5375   1.708   5.390   7.394 -0.2771  1.8054  2.7026
   65SAPC   H9Y 5376   1.815   5.526   7.342  0.1289  0.3031  1.3150
   65SAPC  C310 5377   1.907   5.388   7.483 -0.3138  0.2467 -0.4842
   65SAPC  H10X 5378   2.008   5.420   7.450  0.7404 -1.2011  1.1274
   65SAPC  H10Y 5379   1.910   5.279   7.501 -0.1473  0.2041 -0.7754
   65SAPC  C311 5380   1.889   5.447   7.631  0.2945 -0.3168 -0.3505
   65SAPC  H11X 5381   1.783   5.422   7.654  0.6845 -2.2081 -0.4005
   65SAPC  H11Y 5382   1.909   5.555   7.646  2.6549 -0.7891  0.3722
   65SAPC  C312 5383   1.986   5.370   7.727 -0.1403  0.1163  1.1097
   65SAPC  H12X 5384   2.091   5.389   7.697 -0.5638  1.4379  0.4174
   65SAPC  H12Y 5385   1.972   5.260   7.715  2.3186  0.0091 -2.8178
   65SAPC  C313 5386   1.979   5.419   7.873 -0.1303 -0.3338  0.4563
   65SAPC  H13X 5387   1.873   5.419   7.909 -0.1359  2.0448  0.5789
   65SAPC  H13Y 5388   2.006   5.527   7.865 -0.7815 -0.2221 -0.5069
   65SAPC  C314 5389   2.063   5.337   7.969 -0.2306  0.0446  0.1877
   65SAPC  H14X 5390   2.171   5.343   7.944  0.0981  0.7394  1.6559
   65SAPC  H14Y 5391   2.033   5.231   7.962 -2.4076  0.6246  0.0596
   65SAPC  C315 5392   2.035   5.380   8.119  0.1082 -0.6446 -0.0609
   65SAPC  H15X 5393   2.061   5.487   8.129 -1.7205 -0.0084 -1.5126
   65SAPC  H15Y 5394   2.102   5.319   8.184  2.0840  0.8486 -0.6028
   65SAPC  C316 5395   1.893   5.352   8.163 -0.5407 -0.5225  0.3793
   65SAPC  H16X 5396   1.846   5.254   8.181 -0.5186 -0.2430  2.0704
   65SAPC  H16Y 5397   1.820   5.411   8.103  2.0151  2.1354 -0.3661
   65SAPC  C317 5398   1.872   5.412   8.305 -0.4041 -0.3314  0.6741
   65SAPC  H17X 5399   1.774   5.378   8.343 -0.8598 -0.6799 -0.7579
   65SAPC  H17Y 5400   1.861   5.522   8.296 -1.5684 -0.4577  0.4910
   65SAPC  C318 5401   1.980   5.375   8.412 -0.0782  0.0069  1.0438
   65SAPC  H18X 5402   2.075   5.428   8.387 -0.6475  0.1939 -0.8291
   65SAPC  H18Y 5403   1.986   5.264   8.413 -2.5678 -0.3029 -2.3897
   65SAPC  H18Z 5404   1.939   5.410   8.509 -2.3000 -1.6794  0.7795
   66SAPC     N 5405   5.068   6.029   5.950 -0.1260 -0.0883 -0.1640
   66SAPC   C12 5406   5.092   5.910   6.033  0.6522 -0.1354  0.3090
   66SAPC  H12A 5407   5.105   5.822   5.973  3.4379  1.6378 -1.9303
   66SAPC  H12B 5408   5.001   5.902   6.092 -0.7123  4.2673 -0.7764
   66SAPC   C13 5409   4.933   6.018   5.894  0.4870  0.3200 -0.5625
   66SAPC  H13A 5410   4.923   5.937   5.822 -0.5370 -0.4303  0.3945
   66SAPC  H13B 5411   4.863   5.995   5.972  0.2323 -0.1661 -0.9264
   66SAPC  H13C 5412   4.892   6.112   5.860 -1.9854  0.0915  1.5148
   66SAPC   C14 5413   5.062   6.145   6.043  0.3254 -0.4548  0.0228
   66SAPC  H14A 5414   5.022   6.234   5.996  0.6129 -0.6941 -0.6796
   66SAPC  H14B 5415   5.000   6.131   6.130  2.7493  0.5189  2.0410
   66SAPC  H14C 5416   5.165   6.158   6.074 -0.0816  2.9242  0.3186
   66SAPC   C15 5417   5.162   6.053   5.839 -0.4281  0.4410  0.5736
   66SAPC  H15A 5418   5.144   5.980   5.762  1.8023  0.9765 -0.5298
   66SAPC  H15B 5419   5.147   6.140   5.777 -1.0441 -1.5683 -2.2630
   66SAPC  H15C 5420   5.265   6.055   5.872  0.2262 -1.7326 -1.1522
   66SAPC   C11 5421   5.214   5.902   6.124 -0.5527  0.5451 -0.0032
   66SAPC  H11A 5422   5.218   5.804   6.176  2.4428 -0.3490 -1.6536
   66SAPC  H11B 5423   5.204   5.986   6.197 -0.2816 -0.5819  1.3697
   66SAPC     P 5424   5.437   5.807   5.987 -0.2176  0.1111 -0.5150
   66SAPC   O13 5425   5.352   5.702   5.919 -0.5556  0.0872  0.5559
   66SAPC   O14 5426   5.534   5.875   5.899 -0.2279  0.2445  0.5220
   66SAPC   O12 5427   5.343   5.917   6.055  0.1740 -0.0613  0.4767
   66SAPC   O11 5428   5.518   5.742   6.110  0.3133  0.3170  0.1725
   66SAPC    C1 5429   5.546   5.817   6.225 -0.3604  0.1007  0.4597
   66SAPC    HA 5430   5.655   5.830   6.244 -0.0729 -0.3615 -0.7964
   66SAPC    HB 5431   5.495   5.915   6.238 -2.4588 -1.0129  1.1245
   66SAPC    C2 5432   5.503   5.748   6.356  0.0735 -0.1416 -0.1511
   66SAPC    HS 5433   5.558   5.652   6.362 -1.4510 -1.0805 -0.4795
   66SAPC   O21 5434   5.366   5.714   6.345  0.1393  0.2889  0.2574
   66SAPC   C21 5435   5.326   5.610   6.417  0.2552 -1.2479  0.3152
   66SAPC   O22 5436   5.399   5.527   6.474  0.3065 -0.2594 -0.1688
   66SAPC   C22 5437   5.180   5.601   6.421  0.5849 -0.0050 -0.3652
   66SAPC   H2R 5438   5.131   5.659   6.340  0.1016  0.7721  0.4542
   66SAPC   H2S 5439   5.163   5.494   6.400  1.1641 -0.0871 -0.4341
   66SAPC    C3 5440   5.537   5.819   6.490 -0.0213 -0.0824  0.0641
   66SAPC    HX 5441   5.479   5.914   6.488 -1.1605 -0.6116  3.1236
   66SAPC    HY 5442   5.642   5.850   6.475 -0.0086  1.8156  3.2129
   66SAPC   O31 5443   5.496   5.749   6.611  0.0742  0.1190  0.5100
   66SAPC   C31 5444   5.602   5.707   6.677  0.1265  0.3580 -0.4401
   66SAPC   O32 5445   5.721   5.712   6.650 -0.0280 -0.6430  0.0613
   66SAPC   C32 5446   5.548   5.652   6.805  0.3594  0.4815 -0.4877
   66SAPC   H2X 5447   5.529   5.549   6.768 -2.1016  1.3128 -1.7810
   66SAPC   H2Y 5448   5.459   5.708   6.841  0.5964  0.5637 -0.0256
   66SAPC   C23 5449   5.134   5.640   6.560  0.5823 -0.8556 -0.5913
   66SAPC   H3R 5450   5.197   5.582   6.631 -1.1294  0.4234  2.1553
   66SAPC   H3S 5451   5.030   5.607   6.582 -0.7604  3.2620  0.0873
   66SAPC   C24 5452   5.156   5.788   6.591  0.0646 -0.2567  0.6051
   66SAPC   H4R 5453   5.090   5.845   6.522 -0.8331 -1.9354  0.0201
   66SAPC   H4S 5454   5.259   5.821   6.566  0.7174 -2.3056  0.4374
   66SAPC   C25 5455   5.129   5.803   6.735  0.0907  0.4285 -0.2594
   66SAPC   H5R 5456   5.036   5.751   6.763  0.6743 -0.3171  0.3493
   66SAPC   C26 5457   5.181   5.883   6.823 -1.0515 -0.4740  0.0362
   66SAPC   H6R 5458   5.153   5.876   6.929  0.7986  1.1926  0.7125
   66SAPC   C27 5459   5.300   5.976   6.798  0.0043  0.9874 -0.6516
   66SAPC   H7R 5460   5.321   6.004   6.693 -2.5267  1.0470 -1.2042
   66SAPC   H7S 5461   5.391   5.924   6.834 -0.5847  0.6880  0.4555
   66SAPC   C28 5462   5.276   6.103   6.877  0.0566  0.2314  0.5707
   66SAPC   H8R 5463   5.240   6.192   6.823 -0.6609  0.3094  1.1662
   66SAPC   C29 5464   5.312   6.110   7.005 -0.2563 -0.0592 -0.3426
   66SAPC   H9R 5465   5.303   6.209   7.051 -2.1846  0.1365 -1.0206
   66SAPC  C210 5466   5.366   6.006   7.094 -0.3025 -0.5463 -0.7159
   66SAPC  H10R 5467   5.477   6.012   7.096 -0.2982 -0.3438  1.5746
   66SAPC  H10S 5468   5.334   5.907   7.054  0.6321 -1.8929  1.6369
   66SAPC  C211 5469   5.313   6.011   7.234 -0.0515  0.2887  0.2129
   66SAPC  H11R 5470   5.215   6.060   7.241  0.2049  1.7457 -3.9658
   66SAPC  C212 5471   5.372   5.976   7.345  0.0806 -0.5016 -0.0979
   66SAPC  H12R 5472   5.314   5.986   7.438 -2.1528  0.0761 -1.4699
   66SAPC  C213 5473   5.515   5.930   7.350 -0.2029 -0.4004  0.2004
   66SAPC  H13R 5474   5.568   5.998   7.421  0.1162 -0.6815  0.2336
   66SAPC  H13S 5475   5.567   5.945   7.253  0.2168 -2.3560  0.0936
   66SAPC  C214 5476   5.538   5.790   7.392  0.1124 -0.2516 -0.5063
   66SAPC  H14R 5477   5.475   5.717   7.339  0.8746 -2.0999  1.0116
   66SAPC  C215 5478   5.623   5.739   7.487  1.1878  0.0806  0.6943
   66SAPC  H15R 5479   5.617   5.630   7.498 -0.6537 -0.1225 -1.6500
   66SAPC  C216 5480   5.712   5.831   7.563 -0.3217 -0.1476 -0.1284
   66SAPC  H16R 5481   5.701   5.803   7.670  1.0487  0.1509  0.1076
   66SAPC  H16S 5482   5.708   5.941   7.546  3.9962 -0.0369 -1.6305
   66SAPC  C217 5483   5.857   5.802   7.541 -0.6092 -0.0783 -0.4243
   66SAPC  H17R 5484   5.890   5.841   7.442 -0.2051 -2.2722 -1.1961
   66SAPC  H17S 5485   5.873   5.692   7.537  0.5716  0.0401  0.5102
   66SAPC  C218 5486   5.962   5.845   7.653  0.4013 -0.0649 -0.2172
   66SAPC  H18R 5487   5.936   5.812   7.756 -0.1878 -0.5667 -0.5224
   66SAPC  H18S 5488   5.962   5.956   7.654 -0.0310 -0.0636  0.4403
   66SAPC  C219 5489   6.103   5.793   7.626  0.3745  0.9753 -0.2360
   66SAPC  H19R 5490   6.120   5.827   7.521  0.1685 -3.4076 -1.9228
   66SAPC  H19S 5491   6.101   5.683   7.640 -0.1824  1.0879  0.6526
   66SAPC  C220 5492   6.220   5.841   7.715  0.5461  0.6875 -0.0468
   66SAPC  H20R 5493   6.184   5.815   7.817 -1.3390  2.8791 -0.0673
   66SAPC  H20S 5494   6.232   5.951   7.729 -2.7248  0.7524  4.0981
   66SAPC  H20T 5495   6.318   5.796   7.688 -0.3783 -0.2831 -1.9460
   66SAPC   C33 5496   5.639   5.643   6.925 -0.1776  0.1888  0.3653
   66SAPC   H3X 5497   5.648   5.743   6.972  1.7891 -0.2109  0.9109
   66SAPC   H3Y 5498   5.735   5.613   6.879 -1.4384 -1.9656 -1.0542
   66SAPC   C34 5499   5.609   5.545   7.032  0.4031 -0.8712 -0.1849
   66SAPC   H4X 5500   5.588   5.443   6.994  3.1766 -1.6436  0.1190
   66SAPC   H4Y 5501   5.527   5.580   7.098 -0.2969  0.6469 -1.7481
   66SAPC   C35 5502   5.717   5.540   7.137 -0.2405  0.7616  0.3903
   66SAPC   H5X 5503   5.739   5.636   7.189 -1.4337  1.1994  0.1228
   66SAPC   H5Y 5504   5.811   5.517   7.083 -0.8671 -0.8371 -0.0683
   66SAPC   C36 5505   5.701   5.437   7.255  0.2182  0.9512 -0.1844
   66SAPC   H6X 5506   5.673   5.335   7.222 -0.3021  0.6963  0.9719
   66SAPC   H6Y 5507   5.611   5.473   7.311  0.7018  0.6892  0.7818
   66SAPC   C37 5508   5.815   5.426   7.356 -0.3311 -0.5890  0.3525
   66SAPC   H7X 5509   5.806   5.519   7.416 -1.0631  1.3340 -2.5497
   66SAPC   H7Y 5510   5.913   5.422   7.306  0.3636 -0.3174  1.6494
   66SAPC   C38 5511   5.799   5.305   7.453 -0.0620 -0.0718 -0.4210
   66SAPC   H8X 5512   5.785   5.218   7.386  0.1611 -0.5061  0.0920
   66SAPC   H8Y 5513   5.701   5.311   7.504  0.8905  1.3230  1.3491
   66SAPC   C39 5514   5.907   5.282   7.557  0.0570 -0.1523 -0.2170
   66SAPC   H9X 5515   5.902   5.363   7.633  0.9292 -2.5265  2.5779
   66SAPC   H9Y 5516   6.007   5.287   7.510  0.5182 -0.8610  0.6446
   66SAPC  C310 5517   5.895   5.150   7.630 -0.1163 -0.1787 -0.3590
   66SAPC  H10X 5518   5.921   5.068   7.560  0.5078 -2.1861  2.0465
   66SAPC  H10Y 5519   5.788   5.136   7.655 -0.1038  1.2635  0.6394
   66SAPC  C311 5520   5.992   5.127   7.754  0.7930 -0.2464  0.6064
   66SAPC  H11X 5521   5.972   5.209   7.826 -0.3915 -0.8781  1.0113
   66SAPC  H11Y 5522   6.098   5.120   7.719 -0.4978 -1.3993 -3.5683
   66SAPC  C312 5523   5.942   5.009   7.850  0.3595 -0.2546 -0.3452
   66SAPC  H12X 5524   6.009   4.922   7.829  1.6736  0.3145  1.3338
   66SAPC  H12Y 5525   5.837   4.980   7.831  0.3852  0.9993 -2.8170
   66SAPC  C313 5526   5.947   5.044   8.004 -0.6330 -0.7514  0.6881
   66SAPC  H13X 5527   6.051   5.072   8.031 -0.2114 -0.1659 -1.3723
   66SAPC  H13Y 5528   5.923   4.955   8.065  1.0728 -0.9410  1.1244
   66SAPC  C314 5529   5.844   5.152   8.042 -0.2662 -0.3873  0.2455
   66SAPC  H14X 5530   5.742   5.125   8.007  0.4324 -0.9303 -1.4824
   66SAPC  H14Y 5531   5.857   5.248   7.987 -1.8058 -0.7010 -0.7121
   66SAPC  C315 5532   5.859   5.179   8.193  0.5343 -0.0533 -0.3016
   66SAPC  H15X 5533   5.964   5.205   8.219  0.1314 -0.5279  1.9739
   66SAPC  H15Y 5534   5.834   5.082   8.242 -0.3706  0.8732  1.1160
   66SAPC  C316 5535   5.767   5.291   8.245  0.5723  0.1058  0.4670
   66SAPC  H16X 5536   5.774   5.386   8.188  0.3526 -1.2661 -1.9921
   66SAPC  H16Y 5537   5.797   5.320   8.348 -3.6249  2.9513  1.1318
   66SAPC  C317 5538   5.625   5.235   8.244 -0.1607  0.3264  0.2001
   66SAPC  H17X 5539   5.627   5.138   8.299  3.0050  1.1277  1.7572
   66SAPC  H17Y 5540   5.609   5.213   8.136 -2.3352  0.9005  0.3667
   66SAPC  C318 5541   5.511   5.330   8.298 -0.1245  0.4203  0.4049
   66SAPC  H18X 5542   5.413   5.313   8.247  0.4077  1.0623 -0.8768
   66SAPC  H18Y 5543   5.544   5.435   8.290 -1.1056  0.8034  1.1401
   66SAPC  H18Z 5544   5.487   5.306   8.404 -2.2279  1.2384  0.1634
   67SAPC     N 5545   2.818   2.139   5.993  0.4301  0.1474 -0.9244
   67SAPC   C12 5546   2.674   2.150   5.945 -0.1161  0.2887 -0.5652
   67SAPC  H12A 5547   2.619   2.057   5.944 -1.0347  0.8268 -0.8246
   67SAPC  H12B 5548   2.667   2.195   5.848  0.1564  0.6654 -0.4126
   67SAPC   C13 5549   2.910   2.077   5.893  0.2304 -0.4955 -0.1361
   67SAPC  H13A 5550   2.938   2.153   5.822  2.7367 -1.6863 -0.5100
   67SAPC  H13B 5551   3.003   2.046   5.938  0.8871  2.7151  0.9780
   67SAPC  H13C 5552   2.857   1.997   5.843  1.0384 -0.3808 -1.2017
   67SAPC   C14 5553   2.881   2.262   6.046  0.0036 -1.0601  0.1233
   67SAPC  H14A 5554   2.892   2.329   5.962  1.2064  0.1542  1.1989
   67SAPC  H14B 5555   2.829   2.305   6.130  1.8275 -0.9532  1.2483
   67SAPC  H14C 5556   2.979   2.244   6.090 -0.5358 -1.4656  1.1974
   67SAPC   C15 5557   2.820   2.052   6.109  0.2003  0.6100 -0.0401
   67SAPC  H15A 5558   2.916   2.062   6.159 -0.1136  0.8100  0.5335
   67SAPC  H15B 5559   2.730   2.071   6.167  0.3956  2.6912 -0.3571
   67SAPC  H15C 5560   2.812   1.947   6.084 -0.5958  0.5530  0.4231
   67SAPC   C11 5561   2.582   2.222   6.043  0.1009 -0.5249  0.4464
   67SAPC  H11A 5562   2.490   2.240   5.982  0.7413 -1.3492 -0.7919
   67SAPC  H11B 5563   2.628   2.320   6.068  1.3796 -0.9615 -0.1139
   67SAPC     P 5564   2.412   2.116   6.235  0.1621 -0.3547  0.4371
   67SAPC   O13 5565   2.303   2.192   6.170  0.4796  0.3857 -0.6492
   67SAPC   O14 5566   2.398   1.970   6.232  0.3899  0.7012 -0.0151
   67SAPC   O12 5567   2.550   2.152   6.165  0.1804  0.9657  0.7353
   67SAPC   O11 5568   2.442   2.158   6.388 -0.1660 -0.0129 -0.0825
   67SAPC    C1 5569   2.544   2.243   6.420 -0.2452  0.1833 -0.5478
   67SAPC    HA 5570   2.631   2.187   6.460 -1.3323 -0.2186  1.3979
   67SAPC    HB 5571   2.584   2.306   6.338 -0.0982  0.2015 -0.4618
   67SAPC    C2 5572   2.499   2.335   6.543 -0.1542  0.0249  0.0650
   67SAPC    HS 5573   2.588   2.391   6.579  0.5023 -1.1629  0.3537
   67SAPC   O21 5574   2.446   2.256   6.644 -0.1104 -0.4390  0.3954
   67SAPC   C21 5575   2.544   2.198   6.716 -0.0601  0.8815 -0.0131
   67SAPC   O22 5576   2.661   2.212   6.705 -0.5807 -0.0542 -0.2813
   67SAPC   C22 5577   2.475   2.109   6.824 -0.1137 -0.1949 -0.4311
   67SAPC   H2R 5578   2.427   2.167   6.906 -0.8197 -1.9268  0.4240
   67SAPC   H2S 5579   2.391   2.056   6.775  1.1554 -2.4330 -0.3026
   67SAPC    C3 5580   2.389   2.431   6.498  0.3069  0.0339 -0.1786
   67SAPC    HX 5581   2.305   2.372   6.455 -0.4214  0.8818  0.0615
   67SAPC    HY 5582   2.412   2.502   6.415  3.9591 -0.3553  0.3632
   67SAPC   O31 5583   2.350   2.513   6.613  0.0371 -0.2050 -0.2018
   67SAPC   C31 5584   2.239   2.477   6.685  0.9196 -0.6146  0.1018
   67SAPC   O32 5585   2.155   2.394   6.649  0.1577  0.4169 -0.1029
   67SAPC   C32 5586   2.247   2.568   6.819  0.4527 -0.7031  0.0635
   67SAPC   H2X 5587   2.153   2.625   6.827  1.2498  0.4741  1.4769
   67SAPC   H2Y 5588   2.335   2.634   6.803  0.1527 -0.0967  0.8910
   67SAPC   C23 5589   2.574   2.004   6.888 -0.1408  0.2925 -0.1944
   67SAPC   H3R 5590   2.652   2.064   6.940 -0.3872  0.4705 -0.0277
   67SAPC   H3S 5591   2.625   1.953   6.804 -0.1399  1.0449 -0.6509
   67SAPC   C24 5592   2.503   1.920   6.990 -0.4445 -0.0244  0.6655
   67SAPC   H4R 5593   2.464   1.996   7.061  2.3678  0.9781  1.2777
   67SAPC   H4S 5594   2.584   1.868   7.047  0.5424  0.8624  0.1078
   67SAPC   C25 5595   2.427   1.814   6.924  0.0575 -0.1757 -0.0448
   67SAPC   H5R 5596   2.469   1.780   6.829 -0.1878  1.4491 -0.7842
   67SAPC   C26 5597   2.309   1.769   6.965 -0.1988 -0.4580 -0.2413
   67SAPC   H6R 5598   2.266   1.689   6.903 -0.9007 -0.7619  0.6119
   67SAPC   C27 5599   2.227   1.826   7.081 -0.9000 -0.8859 -0.3159
   67SAPC   H7R 5600   2.287   1.843   7.173  1.1291 -0.4012 -1.6414
   67SAPC   H7S 5601   2.153   1.756   7.124 -1.8738 -0.8433 -1.8260
   67SAPC   C28 5602   2.155   1.955   7.036 -0.0075  0.4750 -0.9477
   67SAPC   H8R 5603   2.110   1.944   6.937 -0.2091  0.0804 -0.8124
   67SAPC   C29 5604   2.135   2.064   7.109  0.0724 -0.4405  0.5480
   67SAPC   H9R 5605   2.072   2.150   7.079  0.5343 -0.6410 -1.0863
   67SAPC  C210 5606   2.182   2.082   7.251 -1.0055  0.7758  0.0001
   67SAPC  H10R 5607   2.252   2.167   7.241 -1.6759  1.3914  0.4795
   67SAPC  H10S 5608   2.246   1.999   7.288 -0.4355  1.1746 -0.0872
   67SAPC  C211 5609   2.077   2.120   7.351  0.6228 -0.4455 -0.5113
   67SAPC  H11R 5610   2.025   2.213   7.323  0.7424 -0.0289  0.5905
   67SAPC  C212 5611   2.062   2.067   7.472  0.5507  0.2141  0.4271
   67SAPC  H12R 5612   1.979   2.101   7.536  0.3270  1.7572 -0.6238
   67SAPC  C213 5613   2.145   1.965   7.546 -0.1928 -0.0013 -0.2278
   67SAPC  H13R 5614   2.132   1.979   7.656 -4.5412 -3.5601 -0.0028
   67SAPC  H13S 5615   2.248   1.957   7.506 -0.5011  1.0787 -1.3198
   67SAPC  C214 5616   2.083   1.829   7.521  0.1413 -0.4927 -0.6747
   67SAPC  H14R 5617   2.066   1.805   7.415 -0.1876 -0.8499 -0.5454
   67SAPC  C215 5618   2.070   1.727   7.606  0.0260  0.2474 -0.0653
   67SAPC  H15R 5619   2.017   1.637   7.571 -0.4611  0.6971 -0.5181
   67SAPC  C216 5620   2.101   1.724   7.749 -1.3612  0.8687 -0.3151
   67SAPC  H16R 5621   2.179   1.798   7.775  0.9215 -0.8071 -2.0696
   67SAPC  H16S 5622   2.147   1.628   7.780 -1.3947  0.9090 -0.1388
   67SAPC  C217 5623   1.985   1.744   7.847 -0.1428 -0.8489 -0.2265
   67SAPC  H17R 5624   1.921   1.655   7.826 -1.0431 -0.2054 -0.2385
   67SAPC  H17S 5625   1.926   1.835   7.823 -1.3624 -1.4088  0.5453
   67SAPC  C218 5626   2.020   1.769   7.998  0.1148  0.4983 -0.1654
   67SAPC  H18R 5627   1.928   1.791   8.055  0.2070 -0.1829  0.2542
   67SAPC  H18S 5628   2.094   1.852   7.999  0.3643  0.3242  2.3389
   67SAPC  C219 5629   2.092   1.654   8.067 -0.1307 -0.1148 -0.0502
   67SAPC  H19R 5630   2.107   1.691   8.170 -2.2249  1.1025 -0.1243
   67SAPC  H19S 5631   2.194   1.638   8.026 -0.0217  0.7986 -0.1524
   67SAPC  C220 5632   2.010   1.521   8.076 -0.4771  0.1234 -0.6854
   67SAPC  H20R 5633   1.917   1.547   8.132  0.6891  0.7199  1.0791
   67SAPC  H20S 5634   2.059   1.449   8.145 -1.5101  0.2050  0.1658
   67SAPC  H20T 5635   1.979   1.479   7.978 -2.9247 -0.4463  0.2636
   67SAPC   C33 5636   2.257   2.479   6.947  0.0952 -0.5376  1.1435
   67SAPC   H3X 5637   2.339   2.407   6.929 -0.2279 -0.4041 -1.1735
   67SAPC   H3Y 5638   2.161   2.423   6.950 -0.0376 -0.2963  1.3725
   67SAPC   C34 5639   2.271   2.554   7.084  0.5673 -0.4452  0.6081
   67SAPC   H4X 5640   2.202   2.641   7.096 -0.3060 -1.4196  3.2851
   67SAPC   H4Y 5641   2.373   2.595   7.070 -0.1447  0.2430 -4.2126
   67SAPC   C35 5642   2.256   2.465   7.203 -0.5697 -0.3890 -0.1547
   67SAPC   H5X 5643   2.324   2.378   7.187  0.9733  0.9700 -1.3471
   67SAPC   H5Y 5644   2.156   2.417   7.209  0.0597 -2.1887 -2.3862
   67SAPC   C36 5645   2.291   2.540   7.337  0.4014 -0.0896  0.2410
   67SAPC   H6X 5646   2.228   2.631   7.347  2.0813  1.4297 -1.9685
   67SAPC   H6Y 5647   2.393   2.581   7.319  1.0928 -2.0851 -0.7605
   67SAPC   C37 5648   2.282   2.451   7.459 -0.2957 -1.1307 -0.1400
   67SAPC   H7X 5649   2.349   2.362   7.447  0.1791 -0.9955  1.2443
   67SAPC   H7Y 5650   2.179   2.410   7.457 -0.5225 -0.5326 -0.7132
   67SAPC   C38 5651   2.333   2.511   7.594 -0.0740 -0.1632 -0.2072
   67SAPC   H8X 5652   2.298   2.455   7.682  0.2966 -0.1684 -0.0611
   67SAPC   H8Y 5653   2.278   2.608   7.603  1.5112  0.6674  0.9265
   67SAPC   C39 5654   2.474   2.555   7.583 -0.0405  0.7646 -0.7267
   67SAPC   H9X 5655   2.478   2.655   7.535 -0.0953  0.6646 -0.9386
   67SAPC   H9Y 5656   2.533   2.482   7.524  1.3294  0.2855  1.1375
   67SAPC  C310 5657   2.542   2.559   7.715  0.0385 -0.3593  0.2434
   67SAPC  H10X 5658   2.645   2.591   7.691 -0.4315  1.5609  0.5976
   67SAPC  H10Y 5659   2.553   2.458   7.759  1.1205 -0.8631 -1.1252
   67SAPC  C311 5660   2.481   2.652   7.821  0.4546 -0.4113  0.2341
   67SAPC  H11X 5661   2.374   2.623   7.822  0.2596  0.1318 -1.3646
   67SAPC  H11Y 5662   2.478   2.759   7.788 -1.2756 -0.3518  0.5251
   67SAPC  C312 5663   2.548   2.638   7.955  0.2228  0.5165  0.0127
   67SAPC  H12X 5664   2.508   2.722   8.015 -2.7546 -0.1347 -0.9229
   67SAPC  H12Y 5665   2.658   2.653   7.958  0.0702  1.8518  2.9152
   67SAPC  C313 5666   2.521   2.509   8.043  0.6756  0.1857  0.5125
   67SAPC  H13X 5667   2.558   2.420   7.988 -1.3771 -0.0167 -0.6235
   67SAPC  H13Y 5668   2.411   2.493   8.048  0.5521  0.8843  0.2407
   67SAPC  C314 5669   2.592   2.511   8.184  0.2240 -0.1520 -0.4126
   67SAPC  H14X 5670   2.541   2.592   8.240  1.6449  0.7043 -0.3031
   67SAPC  H14Y 5671   2.698   2.542   8.172  0.0976  1.3171  1.7059
   67SAPC  C315 5672   2.579   2.385   8.275 -0.5450 -0.4057 -0.0872
   67SAPC  H15X 5673   2.478   2.344   8.256 -1.5447  2.0840 -0.4355
   67SAPC  H15Y 5674   2.593   2.404   8.384  0.6377  0.9212 -0.4312
   67SAPC  C316 5675   2.679   2.285   8.228 -0.7835  0.0652  0.3038
   67SAPC  H16X 5676   2.784   2.317   8.245 -0.4814 -1.1769  0.8728
   67SAPC  H16Y 5677   2.684   2.275   8.118  0.8764 -1.7064  0.4895
   67SAPC  C317 5678   2.666   2.144   8.288 -0.0297 -0.6436 -0.4478
   67SAPC  H17X 5679   2.563   2.107   8.268 -0.0002 -2.7451  2.6335
   67SAPC  H17Y 5680   2.673   2.155   8.398 -0.3666  1.9324 -0.6294
   67SAPC  C318 5681   2.763   2.053   8.235 -0.2254 -0.1897  0.1462
   67SAPC  H18X 5682   2.870   2.072   8.257  0.3281 -1.3798 -1.3293
   67SAPC  H18Y 5683   2.750   2.060   8.125 -0.5900  1.7234  0.2869
   67SAPC  H18Z 5684   2.732   1.950   8.264 -0.3937 -0.1264  0.1923
   68SAPC     N 5685   1.613   6.694   5.901 -0.7920  0.4114 -0.3532
   68SAPC   C12 5686   1.576   6.766   6.026  1.0227  0.3161 -0.1824
   68SAPC  H12A 5687   1.496   6.714   6.076 -0.0912  0.3368 -1.8456
   68SAPC  H12B 5688   1.532   6.862   6.006 -1.6904 -0.5025  1.3399
   68SAPC   C13 5689   1.649   6.557   5.930  0.7365  0.6938  0.2281
   68SAPC  H13A 5690   1.687   6.557   6.031  0.0745 -0.3959  0.4900
   68SAPC  H13B 5691   1.557   6.502   5.943 -0.3822  2.6787  1.1994
   68SAPC  H13C 5692   1.716   6.510   5.859  0.6939  1.4697 -0.3367
   68SAPC   C14 5693   1.501   6.697   5.802  0.1146  0.5889 -0.2283
   68SAPC  H14A 5694   1.481   6.789   5.749 -1.2558 -0.8339 -2.3682
   68SAPC  H14B 5695   1.509   6.617   5.730 -3.3518 -0.8674  0.7754
   68SAPC  H14C 5696   1.403   6.679   5.843  0.8366  1.9069  2.2619
   68SAPC   C15 5697   1.727   6.770   5.830  0.1866  0.6806  0.5679
   68SAPC  H15A 5698   1.702   6.874   5.814  1.1666  1.1253  1.7494
   68SAPC  H15B 5699   1.811   6.776   5.898 -0.3005  0.5918  1.1945
   68SAPC  H15C 5700   1.752   6.721   5.738 -0.8158 -1.4794  1.3726
   68SAPC   C11 5701   1.692   6.785   6.131  0.0700 -0.9445 -0.5687
   68SAPC  H11A 5702   1.740   6.689   6.157  0.8188 -0.4586 -0.1154
   68SAPC  H11B 5703   1.643   6.836   6.216  1.7568  3.5745 -1.9956
   68SAPC     P 5704   1.927   6.902   6.154  0.2658  0.1621 -0.9516
   68SAPC   O13 5705   2.007   6.788   6.114  0.2624  0.3084  0.2133
   68SAPC   O14 5706   1.978   7.037   6.134  0.4645 -0.0058  0.0159
   68SAPC   O12 5707   1.783   6.888   6.087  0.0919 -0.3925  0.4132
   68SAPC   O11 5708   1.901   6.885   6.313  0.5212 -0.1062  0.3238
   68SAPC    C1 5709   1.832   6.982   6.391  0.4086  0.0000 -0.3525
   68SAPC    HA 5710   1.852   7.082   6.348  0.6569 -0.4293 -1.2563
   68SAPC    HB 5711   1.723   6.963   6.399  0.6988 -1.3237  0.9751
   68SAPC    C2 5712   1.897   6.976   6.532  0.6074  0.7283 -0.3838
   68SAPC    HS 5713   1.875   6.874   6.572  1.3242 -0.0286 -1.8389
   68SAPC   O21 5714   1.842   7.080   6.614  0.5207 -0.2294  0.1887
   68SAPC   C21 5715   1.715   7.054   6.647 -0.5460  0.2448 -0.4120
   68SAPC   O22 5716   1.652   6.955   6.632  0.5041 -0.2922 -0.5551
   68SAPC   C22 5717   1.663   7.193   6.700 -0.4902  0.0186 -0.4487
   68SAPC   H2R 5718   1.727   7.221   6.786  0.5183 -1.2409 -0.7523
   68SAPC   H2S 5719   1.664   7.274   6.624 -0.7719  0.0085 -0.4661
   68SAPC    C3 5720   2.051   6.969   6.524  0.7686 -0.2432  0.1259
   68SAPC    HX 5721   2.090   7.064   6.482  2.5714 -0.6948  0.7007
   68SAPC    HY 5722   2.072   6.882   6.458 -1.3398  0.7690 -2.0474
   68SAPC   O31 5723   2.108   6.943   6.652 -0.7227  0.2833 -0.1179
   68SAPC   C31 5724   2.166   7.046   6.717  0.3505 -0.3505 -0.4423
   68SAPC   O32 5725   2.186   7.155   6.670  0.3853  0.1914  0.1134
   68SAPC   C32 5726   2.155   7.020   6.873  0.6339 -0.7655  0.4516
   68SAPC   H2X 5727   2.214   6.927   6.888 -0.5838 -1.4957  0.8803
   68SAPC   H2Y 5728   2.047   7.004   6.896 -0.3197  0.5356 -2.6273
   68SAPC   C23 5729   1.511   7.184   6.739  0.0764  0.1904 -0.5797
   68SAPC   H3R 5730   1.447   7.114   6.681  0.3064  1.3761 -2.3242
   68SAPC   H3S 5731   1.450   7.274   6.714 -1.2310 -0.5509 -0.1471
   68SAPC   C24 5732   1.500   7.158   6.899 -0.0144 -0.0017  0.3114
   68SAPC   H4R 5733   1.394   7.169   6.928  0.0017  0.1834  0.3029
   68SAPC   H4S 5734   1.571   7.230   6.945  1.2737 -2.2250  1.9678
   68SAPC   C25 5735   1.524   7.016   6.949  0.1323 -0.1708  0.6473
   68SAPC   H5R 5736   1.471   6.941   6.889  0.7379  0.7782 -1.1844
   68SAPC   C26 5737   1.627   6.976   7.033 -0.2609 -0.3017 -0.0882
   68SAPC   H6R 5738   1.626   6.868   7.056 -1.5314 -0.8655 -2.3657
   68SAPC   C27 5739   1.735   7.055   7.098  0.7313 -0.2961  0.2902
   68SAPC   H7R 5740   1.732   7.154   7.047 -0.2838 -1.0257 -1.1396
   68SAPC   H7S 5741   1.835   7.012   7.077 -0.2775 -2.8088  0.2895
   68SAPC   C28 5742   1.712   7.067   7.248  0.6818 -0.0201 -0.1092
   68SAPC   H8R 5743   1.653   7.152   7.284 -1.7560 -1.3594 -0.7206
   68SAPC   C29 5744   1.758   6.976   7.331  0.4269  0.6769 -0.1016
   68SAPC   H9R 5745   1.743   6.990   7.439 -0.9317  0.0927 -0.1857
   68SAPC  C210 5746   1.833   6.848   7.291 -0.4320  0.0996  0.2977
   68SAPC  H10R 5747   1.942   6.866   7.306 -0.5255  2.2438 -1.0731
   68SAPC  H10S 5748   1.813   6.829   7.183  1.0181 -1.9704  0.3422
   68SAPC  C211 5749   1.779   6.733   7.365 -0.0216 -0.1585 -0.3002
   68SAPC  H11R 5750   1.714   6.672   7.302  0.0764 -0.7382  0.1469
   68SAPC  C212 5751   1.806   6.697   7.490 -0.0999 -0.0796 -0.5784
   68SAPC  H12R 5752   1.759   6.609   7.536 -1.6764  1.3753  0.7669
   68SAPC  C213 5753   1.890   6.778   7.586 -0.0956  0.1517 -0.0477
   68SAPC  H13R 5754   1.828   6.799   7.676  0.4688  1.5793  0.0207
   68SAPC  H13S 5755   1.917   6.881   7.557  0.2725  1.2854  3.8220
   68SAPC  C214 5756   2.020   6.699   7.623  0.5219  0.5296 -0.0933
   68SAPC  H14R 5757   2.099   6.702   7.547 -2.6896 -0.2021 -3.7698
   68SAPC  C215 5758   2.034   6.627   7.740 -0.1188  0.0614  0.0220
   68SAPC  H15R 5759   2.130   6.577   7.758  1.1229  2.1485 -0.3761
   68SAPC  C216 5760   1.939   6.614   7.857  0.2450 -0.1999  0.3654
   68SAPC  H16R 5761   1.939   6.510   7.895  2.5410 -1.3306 -2.4158
   68SAPC  H16S 5762   1.833   6.637   7.830 -0.5405 -2.2030  1.5359
   68SAPC  C217 5763   1.977   6.714   7.959  0.1742 -0.2130 -0.2098
   68SAPC  H17R 5764   1.932   6.813   7.935  0.0987  0.9628  3.9121
   68SAPC  H17S 5765   2.087   6.727   7.968  0.8449 -1.8331 -4.1652
   68SAPC  C218 5766   1.918   6.677   8.093 -0.2215  0.3590  0.0286
   68SAPC  H18R 5767   1.808   6.676   8.103 -0.2929  0.3038 -0.7559
   68SAPC  H18S 5768   1.940   6.766   8.155 -4.5313  1.1297  0.7556
   68SAPC  C219 5769   1.976   6.555   8.155 -0.3433  0.5259  0.9386
   68SAPC  H19R 5770   2.083   6.538   8.130 -0.0497  1.9798  1.0843
   68SAPC  H19S 5771   1.915   6.467   8.127 -0.5409  1.4684 -1.9324
   68SAPC  C220 5772   1.973   6.558   8.313 -0.0775 -0.4735  0.6274
   68SAPC  H20R 5773   2.051   6.626   8.354 -1.4315  1.5249  0.0259
   68SAPC  H20S 5774   2.005   6.460   8.356 -0.8214 -0.3624  1.4670
   68SAPC  H20T 5775   1.870   6.583   8.346 -0.2233  0.8981 -0.7856
   68SAPC   C33 5776   2.214   7.135   6.955 -0.2166 -1.1230  0.1361
   68SAPC   H3X 5777   2.185   7.233   6.912  0.2040 -1.6656 -1.4655
   68SAPC   H3Y 5778   2.324   7.124   6.965  0.1462  1.5191 -0.3281
   68SAPC   C34 5779   2.174   7.141   7.107  0.5227 -0.1767 -0.2712
   68SAPC   H4X 5780   2.064   7.125   7.110  0.4080  0.4824 -0.7140
   68SAPC   H4Y 5781   2.207   7.240   7.147 -2.5935  0.1618  1.8131
   68SAPC   C35 5782   2.229   7.035   7.200  0.0130  0.1284  0.2053
   68SAPC   H5X 5783   2.336   7.034   7.172  0.0068 -1.8976  0.1606
   68SAPC   H5Y 5784   2.181   6.936   7.187 -1.9616  1.0460  0.0161
   68SAPC   C36 5785   2.219   7.078   7.348 -0.3732  0.5766  1.1349
   68SAPC   H6X 5786   2.111   7.099   7.363 -0.6231 -1.9328  3.9159
   68SAPC   H6Y 5787   2.282   7.169   7.359 -0.7104  1.0337 -0.4435
   68SAPC   C37 5788   2.251   6.965   7.449  0.0201 -1.1810 -0.0251
   68SAPC   H7X 5789   2.225   6.862   7.415  0.2002 -0.5476 -2.2824
   68SAPC   H7Y 5790   2.183   6.988   7.533  1.1589 -2.2661  1.2513
   68SAPC   C38 5791   2.395   6.962   7.498  0.1816  0.7033 -0.3108
   68SAPC   H8X 5792   2.439   7.064   7.498  1.7062  0.0936  1.2510
   68SAPC   H8Y 5793   2.460   6.903   7.430  1.1357 -2.0173  2.7367
   68SAPC   C39 5794   2.426   6.908   7.634 -0.5600  0.0506 -1.1774
   68SAPC   H9X 5795   2.536   6.907   7.651 -0.5995  1.5585 -0.6492
   68SAPC   H9Y 5796   2.387   6.804   7.634 -1.5489  0.4047 -0.4099
   68SAPC  C310 5797   2.368   6.988   7.748  0.5704  0.4151  0.0145
   68SAPC  H10X 5798   2.268   7.028   7.720  0.3565 -1.5849 -2.4835
   68SAPC  H10Y 5799   2.430   7.079   7.760 -1.0442  1.4568  0.8862
   68SAPC  C311 5800   2.356   6.915   7.877  0.6167  0.8099  0.7705
   68SAPC  H11X 5801   2.298   6.821   7.878  1.6406  0.1512  2.5182
   68SAPC  H11Y 5802   2.303   6.986   7.944  0.1485  1.3422 -0.1479
   68SAPC  C312 5803   2.489   6.906   7.948  0.2533 -0.5136  0.0419
   68SAPC  H12X 5804   2.549   6.994   7.916  0.8461 -1.6135 -2.0804
   68SAPC  H12Y 5805   2.553   6.823   7.910 -1.3857 -1.5968 -0.4715
   68SAPC  C313 5806   2.465   6.885   8.098  0.8658  0.8208 -0.0480
   68SAPC  H13X 5807   2.415   6.970   8.150 -0.1089  0.4978 -0.4281
   68SAPC  H13Y 5808   2.564   6.866   8.145  0.3449 -1.7594  0.1337
   68SAPC  C314 5809   2.383   6.761   8.134 -0.6712 -0.4445  0.4908
   68SAPC  H14X 5810   2.417   6.676   8.072  1.0682  1.1909 -0.9501
   68SAPC  H14Y 5811   2.274   6.778   8.119 -0.5274  0.8974  0.8239
   68SAPC  C315 5812   2.390   6.738   8.289 -0.5972 -0.1486  0.3263
   68SAPC  H15X 5813   2.330   6.818   8.337 -1.0478 -0.9162  1.0650
   68SAPC  H15Y 5814   2.496   6.749   8.321 -1.4336  1.0508  2.9828
   68SAPC  C316 5815   2.348   6.598   8.327  1.0088  0.0261 -0.6838
   68SAPC  H16X 5816   2.411   6.520   8.279 -2.6878 -2.9355 -1.2374
   68SAPC  H16Y 5817   2.242   6.578   8.300 -0.0692  0.9818  2.3413
   68SAPC  C317 5818   2.345   6.587   8.485 -0.1508 -0.0165 -0.6877
   68SAPC  H17X 5819   2.256   6.643   8.521 -0.0433 -0.9675  1.1867
   68SAPC  H17Y 5820   2.439   6.624   8.531  0.6038 -2.3093 -0.2552
   68SAPC  C318 5821   2.333   6.445   8.543  0.2621  0.4320  0.1646
   68SAPC  H18X 5822   2.399   6.374   8.488 -1.4873 -1.4144  0.3327
   68SAPC  H18Y 5823   2.231   6.403   8.533 -0.9004  2.6240  1.8329
   68SAPC  H18Z 5824   2.369   6.439   8.648  1.8761 -2.1169 -0.4383
   69SLPC     N 5825   3.004   5.413  10.971 -0.2423 -0.9941  0.9588
   69SLPC   C13 5826   2.896   5.317  11.000  0.2625 -0.1151  0.3362
   69SLPC  H13A 5827   2.930   5.215  10.986 -0.1882 -0.2245  0.0079
   69SLPC  H13B 5828   2.852   5.328  11.098  1.5486 -0.8342  1.0075
   69SLPC  H13C 5829   2.816   5.321  10.927  1.0574  0.0555 -0.5383
   69SLPC   C14 5830   3.096   5.440  11.083  0.0726  0.1850 -0.0154
   69SLPC  H14A 5831   3.146   5.354  11.125 -1.3239  0.7704  3.1657
   69SLPC  H14B 5832   3.170   5.511  11.050 -0.3373  0.4401 -0.3897
   69SLPC  H14C 5833   3.043   5.473  11.172 -0.7129  1.0606 -0.7869
   69SLPC   C15 5834   2.929   5.540  10.959 -0.0133 -0.2280 -0.1809
   69SLPC  H15A 5835   2.855   5.535  10.880 -0.3779 -0.0369  0.1414
   69SLPC  H15B 5836   2.880   5.549  11.055  0.7455 -3.3667  0.6258
   69SLPC  H15C 5837   3.001   5.619  10.947  0.4910 -0.4399  1.2800
   69SLPC   C12 5838   3.090   5.372  10.851 -0.0266 -0.1056  0.7721
   69SLPC  H12A 5839   3.170   5.444  10.836  3.1718 -3.5506 -0.2236
   69SLPC  H12B 5840   3.037   5.378  10.757  1.1854 -1.5439 -0.0590
   69SLPC   C11 5841   3.146   5.231  10.864  0.1225  0.3897  0.5308
   69SLPC  H11A 5842   3.067   5.153  10.855  0.9860 -0.3379 -1.1916
   69SLPC  H11B 5843   3.194   5.199  10.959 -0.7769 -0.4706  0.7177
   69SLPC     P 5844   3.390   5.275  10.767 -0.5747  0.6684 -0.2152
   69SLPC   O13 5845   3.372   5.423  10.762  0.2663 -0.7849 -0.3121
   69SLPC   O14 5846   3.459   5.219  10.883 -0.1819  0.0002 -0.0166
   69SLPC   O12 5847   3.240   5.209  10.763 -0.1446  0.2313  0.1090
   69SLPC   O11 5848   3.458   5.233  10.631  0.9153  0.9851  0.1981
   69SLPC    C1 5849   3.450   5.093  10.581 -0.3989 -0.5576 -0.2555
   69SLPC    HA 5850   3.552   5.051  10.570 -0.7482 -0.7787 -3.3401
   69SLPC    HB 5851   3.402   5.017  10.647  1.7202 -1.8076 -0.0640
   69SLPC    C2 5852   3.397   5.105  10.440 -0.2154 -0.1854 -0.0809
   69SLPC    HS 5853   3.463   5.163  10.373 -0.7211 -1.6188 -1.8853
   69SLPC   O21 5854   3.260   5.151  10.431  0.3170 -0.0662  0.0462
   69SLPC   C21 5855   3.244   5.262  10.365  0.8665 -0.7947 -0.8440
   69SLPC   O22 5856   3.324   5.331  10.306 -0.1980 -0.0348 -0.3764
   69SLPC   C22 5857   3.099   5.320  10.376  0.2713  0.4367 -0.2800
   69SLPC   H2R 5858   3.028   5.236  10.390  1.2078 -0.2382  0.4640
   69SLPC   H2S 5859   3.099   5.385  10.466 -1.9502  0.7692 -0.4680
   69SLPC    C3 5860   3.405   4.961  10.377  0.6977 -1.1719 -0.0595
   69SLPC    HX 5861   3.341   4.884  10.426 -2.4193  1.0988 -0.2580
   69SLPC    HY 5862   3.509   4.928  10.397  0.3600 -3.0564 -1.2176
   69SLPC   O31 5863   3.402   4.961  10.236 -0.3294  0.4910 -0.3862
   69SLPC   C31 5864   3.283   4.929  10.193 -0.0967 -0.6296 -0.5080
   69SLPC   O32 5865   3.187   4.906  10.261  0.1828  0.2076 -0.0789
   69SLPC   C32 5866   3.293   4.900  10.049 -0.3739 -0.1111  0.2052
   69SLPC   H2X 5867   3.327   4.795  10.053  0.9795  0.3159  0.2584
   69SLPC   H2Y 5868   3.367   4.962   9.994 -2.1817 -0.9742 -3.5330
   69SLPC   C23 5869   3.056   5.403  10.250 -0.1634  0.1870  0.5993
   69SLPC   H3R 5870   3.126   5.488  10.249 -0.1294  0.1634 -0.3856
   69SLPC   H3S 5871   2.953   5.441  10.267 -0.9570 -1.8757  0.7701
   69SLPC   C24 5872   3.046   5.325  10.124 -0.3440 -0.6464  0.8488
   69SLPC   H4R 5873   2.973   5.242  10.134 -2.2932  1.1424  2.3332
   69SLPC   H4S 5874   3.145   5.280  10.102  0.1878  1.1691 -0.7703
   69SLPC   C25 5875   2.992   5.409  10.011 -0.3655  0.0509  0.5361
   69SLPC   H5R 5876   3.077   5.464   9.965 -1.9652  1.1192 -1.2615
   69SLPC   H5S 5877   2.909   5.475  10.045  1.1938  1.5678  1.5785
   69SLPC   C26 5878   2.938   5.321   9.894 -0.1939  0.0024 -0.1764
   69SLPC   H6R 5879   2.856   5.266   9.944  0.2188 -0.2566  0.2268
   69SLPC   H6S 5880   3.015   5.246   9.866  0.8982  1.1634 -0.4180
   69SLPC   C27 5881   2.871   5.396   9.775  0.3723  0.4519  0.3563
   69SLPC   H7R 5882   2.955   5.455   9.731 -0.2058  0.8935 -0.1766
   69SLPC   H7S 5883   2.788   5.460   9.811 -1.3222 -0.9830 -0.8365
   69SLPC   C28 5884   2.817   5.307   9.664 -0.6187 -0.6378 -0.5205
   69SLPC   H8R 5885   2.747   5.365   9.600  0.9003 -0.9652 -2.5896
   69SLPC   H8S 5886   2.761   5.227   9.717  4.8650 -4.4808  0.4069
   69SLPC   C29 5887   2.925   5.231   9.591 -0.4399 -0.4100 -0.3738
   69SLPC   H9R 5888   3.003   5.188   9.655 -0.2670  0.4908  0.0402
   69SLPC  C210 5889   2.927   5.216   9.458  0.1249  0.6382 -0.1435
   69SLPC  H10R 5890   3.003   5.146   9.419  1.1553 -0.2670  3.1452
   69SLPC  C211 5891   2.834   5.264   9.349  0.2450 -0.1593  0.3568
   69SLPC  H11R 5892   2.732   5.277   9.389  1.0206  2.5447  1.7121
   69SLPC  H11S 5893   2.829   5.181   9.275  2.6850 -0.1941  0.1342
   69SLPC  C212 5894   2.877   5.389   9.287 -0.0739 -0.9147 -0.4426
   69SLPC  H12R 5895   2.953   5.447   9.341 -0.5891  0.8821 -1.5356
   69SLPC  C213 5896   2.814   5.445   9.186  0.2871 -0.1483 -0.0836
   69SLPC  H13R 5897   2.840   5.550   9.166 -3.5495  1.3977  1.8982
   69SLPC  C214 5898   2.691   5.391   9.112  0.3645  0.4841  0.0902
   69SLPC  H14R 5899   2.613   5.470   9.109  0.8662  1.0322  1.0051
   69SLPC  H14S 5900   2.648   5.308   9.172  1.3682  0.2669  0.5192
   69SLPC  C215 5901   2.727   5.342   8.973 -0.7000 -0.3374 -0.0194
   69SLPC  H15R 5902   2.639   5.287   8.933  0.5437 -1.5154 -1.2448
   69SLPC  H15S 5903   2.815   5.274   8.973  0.5035  1.1083 -1.7946
   69SLPC  C216 5904   2.761   5.456   8.878 -0.4256  0.1597  0.6916
   69SLPC  H16R 5905   2.867   5.487   8.889 -0.0428 -1.2645  1.2576
   69SLPC  H16S 5906   2.687   5.538   8.888 -1.3642 -0.5014 -0.5524
   69SLPC  C217 5907   2.747   5.409   8.730 -0.3879 -0.0136 -1.0795
   69SLPC  H17R 5908   2.770   5.495   8.663  1.4735 -1.4503 -2.4285
   69SLPC  H17S 5909   2.646   5.371   8.703  0.1194 -1.6570 -0.8137
   69SLPC  C218 5910   2.859   5.306   8.689  0.4447  0.0175  0.1712
   69SLPC  H18R 5911   2.828   5.205   8.722  0.4653 -0.7717 -2.0233
   69SLPC  H18S 5912   2.959   5.330   8.730 -0.5242 -0.0957  2.7908
   69SLPC  H18T 5913   2.849   5.292   8.579 -2.8132 -3.3075  0.7011
   69SLPC   C33 5914   3.157   4.903   9.981 -0.5191  0.7677 -0.0830
   69SLPC   H3X 5915   3.114   5.004   9.995  0.6429  1.1504  0.9022
   69SLPC   H3Y 5916   3.094   4.826  10.031  1.5185 -0.9548 -0.0333
   69SLPC   C34 5917   3.159   4.871   9.831 -0.4758  0.7459 -0.4388
   69SLPC   H4X 5918   3.216   4.776   9.823 -0.9006  0.1242  2.5526
   69SLPC   H4Y 5919   3.221   4.946   9.778 -0.2295  1.0976  0.3178
   69SLPC   C35 5920   3.015   4.848   9.779 -0.3169  0.1113  0.6695
   69SLPC   H5X 5921   2.953   4.934   9.813 -1.4592 -0.6022  0.4130
   69SLPC   H5Y 5922   2.969   4.759   9.826 -1.2095 -0.1485 -0.6365
   69SLPC   C36 5923   3.019   4.832   9.624 -0.5433  0.5785  0.6415
   69SLPC   H6X 5924   3.075   4.919   9.583 -3.0079  1.7547 -0.3770
   69SLPC   H6Y 5925   2.918   4.827   9.579  0.4121 -3.1543 -1.5413
   69SLPC   C37 5926   3.090   4.705   9.571 -0.6046  0.0334 -0.4359
   69SLPC   H7X 5927   3.047   4.613   9.615  0.8580 -0.9298 -0.9177
   69SLPC   H7Y 5928   3.196   4.705   9.605 -0.5970  0.1604 -0.4582
   69SLPC   C38 5929   3.069   4.677   9.419  0.5342 -0.3596 -0.1126
   69SLPC   H8X 5930   2.965   4.695   9.385  0.7316  1.0251 -0.0219
   69SLPC   H8Y 5931   3.075   4.566   9.408 -1.5820 -0.5943  0.5833
   69SLPC   C39 5932   3.170   4.751   9.330 -0.0300 -0.2305  0.7004
   69SLPC   H9X 5933   3.273   4.716   9.355  0.4406  1.5358  1.3653
   69SLPC   H9Y 5934   3.169   4.860   9.352  1.6656  0.0877 -0.5867
   69SLPC  C310 5935   3.132   4.713   9.190 -0.4299 -0.1260  1.0990
   69SLPC  H10X 5936   3.023   4.734   9.180 -0.4278 -0.6687 -0.3508
   69SLPC  H10Y 5937   3.150   4.606   9.169  0.6202  0.4044 -1.0671
   69SLPC  C311 5938   3.205   4.798   9.087 -0.1731  0.5213  0.1891
   69SLPC  H11X 5939   3.313   4.773   9.088 -0.5866 -1.3810 -0.1981
   69SLPC  H11Y 5940   3.197   4.899   9.134  0.3334  0.0430  1.3551
   69SLPC  C312 5941   3.164   4.793   8.938 -0.6041 -0.5986  0.5613
   69SLPC  H12X 5942   3.189   4.694   8.896  0.7605 -0.0967  0.1394
   69SLPC  H12Y 5943   3.216   4.868   8.874  1.6909 -3.4669 -1.1652
   69SLPC  C313 5944   3.018   4.829   8.913  0.5780 -0.6878  0.2090
   69SLPC  H13X 5945   2.980   4.918   8.969 -0.8973 -0.3718 -1.2027
   69SLPC  H13Y 5946   2.955   4.753   8.963 -1.0021  0.6475  0.3567
   69SLPC  C314 5947   2.976   4.822   8.770 -0.1747  0.2619  0.2490
   69SLPC  H14X 5948   2.986   4.719   8.731  0.7806 -0.1025  1.4260
   69SLPC  H14Y 5949   3.046   4.884   8.709 -0.5923  1.9309  1.3949
   69SLPC  C315 5950   2.831   4.882   8.743 -0.2528  0.0762 -0.4669
   69SLPC  H15X 5951   2.817   4.974   8.803  1.4091 -0.3923  0.7199
   69SLPC  H15Y 5952   2.756   4.813   8.785 -1.5572  1.3537 -0.6316
   69SLPC  C316 5953   2.795   4.911   8.596 -0.7311 -0.0663 -0.1920
   69SLPC  H16X 5954   2.833   4.824   8.537  1.2256  1.7247 -1.7319
   69SLPC  H16Y 5955   2.846   5.007   8.572  1.7339 -0.5468  2.5621
   69SLPC  C317 5956   2.652   4.925   8.562  0.0084 -1.2709  0.6009
   69SLPC  H17X 5957   2.606   4.964   8.656  1.6593  0.5367  0.7181
   69SLPC  H17Y 5958   2.600   4.830   8.539 -2.7252  0.2371  0.0558
   69SLPC  C318 5959   2.623   5.038   8.462  0.4549  0.2854 -0.0093
   69SLPC  H18X 5960   2.517   5.071   8.470  1.0831  2.3840  0.4497
   69SLPC  H18Y 5961   2.646   4.996   8.362  2.0796 -1.2445  0.9461
   69SLPC  H18Z 5962   2.697   5.122   8.467 -0.8595  1.4417  0.7913
   70SLPC     N 5963   3.329   3.121  11.022  0.5596 -0.3422 -0.1916
   70SLPC   C13 5964   3.262   3.083  10.892  0.5588 -0.5051  0.6734
   70SLPC  H13A 5965   3.329   3.022  10.833  1.5701 -1.4978  2.7468
   70SLPC  H13B 5966   3.165   3.038  10.909  0.3333 -1.6054 -2.8383
   70SLPC  H13C 5967   3.249   3.169  10.827 -0.4031 -2.4376 -1.8288
   70SLPC   C14 5968   3.339   2.988  11.103  0.1694  0.1796 -0.1100
   70SLPC  H14A 5969   3.376   2.912  11.036 -2.6916  0.9803 -2.8349
   70SLPC  H14B 5970   3.395   3.002  11.194 -2.0957  0.3141  1.3296
   70SLPC  H14C 5971   3.237   2.962  11.126 -0.3069  1.2718 -0.8665
   70SLPC   C15 5972   3.241   3.220  11.080 -0.0056  0.0678 -0.4892
   70SLPC  H15A 5973   3.267   3.241  11.183  0.0241 -0.1783 -0.4448
   70SLPC  H15B 5974   3.235   3.314  11.028 -1.1897  0.2465 -0.0511
   70SLPC  H15C 5975   3.141   3.182  11.098  0.2138  0.5990  2.3283
   70SLPC   C12 5976   3.462   3.178  11.004 -0.2970  0.0789 -0.1855
   70SLPC  H12A 5977   3.526   3.103  10.960  0.5203  0.7636 -0.2062
   70SLPC  H12B 5978   3.513   3.190  11.098 -1.7203  0.1527  0.6029
   70SLPC   C11 5979   3.475   3.305  10.919  0.5410 -0.6295  0.0344
   70SLPC  H11A 5980   3.421   3.386  10.973  0.8198 -0.4608  0.0577
   70SLPC  H11B 5981   3.417   3.306  10.824 -1.2485 -3.2030  0.9716
   70SLPC     P 5982   3.722   3.244  10.824  0.3679  0.3253 -0.0437
   70SLPC   O13 5983   3.839   3.325  10.775  0.0129  0.0486  0.7515
   70SLPC   O14 5984   3.751   3.119  10.903  0.0910  0.1572 -0.1897
   70SLPC   O12 5985   3.608   3.334  10.896  0.1032  0.2912 -0.1632
   70SLPC   O11 5986   3.642   3.202  10.687 -0.2450  0.0188  0.1647
   70SLPC    C1 5987   3.648   3.077  10.625 -0.1932  1.2437 -0.1172
   70SLPC    HA 5988   3.754   3.043  10.618 -0.5227  0.3636 -1.0247
   70SLPC    HB 5989   3.588   2.996  10.671 -0.4552 -0.4881 -3.2509
   70SLPC    C2 5990   3.593   3.089  10.482  1.1058 -0.1150  0.5744
   70SLPC    HS 5991   3.619   2.995  10.430 -0.0307 -0.4685  0.6109
   70SLPC   O21 5992   3.638   3.206  10.416  0.4225  0.3003  0.2661
   70SLPC   C21 5993   3.759   3.198  10.368  0.2331  0.1764  0.2669
   70SLPC   O22 5994   3.831   3.098  10.370 -0.6748 -0.1829 -0.2253
   70SLPC   C22 5995   3.803   3.326  10.297  0.1623  0.3306 -0.2013
   70SLPC   H2R 5996   3.734   3.358  10.216 -2.3056 -1.7624  0.9376
   70SLPC   H2S 5997   3.804   3.402  10.378  1.6726  0.2771 -0.1462
   70SLPC    C3 5998   3.437   3.096  10.483 -0.1897  0.1120  0.3330
   70SLPC    HX 5999   3.397   3.184  10.538 -3.0783 -2.3496  2.5242
   70SLPC    HY 6000   3.402   3.010  10.545  2.0565 -0.2479  1.2069
   70SLPC   O31 6001   3.374   3.073  10.356 -0.3035 -0.0408  0.3626
   70SLPC   C31 6002   3.350   3.184  10.283  0.4844  0.0740 -0.0282
   70SLPC   O32 6003   3.363   3.301  10.317  0.1250  0.6251 -0.3355
   70SLPC   C32 6004   3.285   3.128  10.156 -0.2020  0.7936  0.1299
   70SLPC   H2X 6005   3.185   3.177  10.157 -0.5517  0.1592  2.7707
   70SLPC   H2Y 6006   3.287   3.017  10.156  0.6811  0.8030  0.6868
   70SLPC   C23 6007   3.945   3.332  10.246 -0.3019  0.0104 -0.2696
   70SLPC   H3R 6008   4.011   3.335  10.336 -2.0434 -0.6295  1.0807
   70SLPC   H3S 6009   3.963   3.429  10.196  0.5695 -1.5811 -3.3116
   70SLPC   C24 6010   3.978   3.235  10.133  0.4714  0.0064 -0.2014
   70SLPC   H4R 6011   3.947   3.131  10.157  0.2743  0.0863 -0.1056
   70SLPC   H4S 6012   4.089   3.233  10.137  0.5342  2.1719  0.7594
   70SLPC   C25 6013   3.920   3.263   9.990 -0.4368  0.2997  0.4139
   70SLPC   H5R 6014   3.954   3.367   9.970 -0.7548  0.1527 -1.0493
   70SLPC   H5S 6015   3.808   3.262   9.991 -0.4696  2.0138  1.3039
   70SLPC   C26 6016   3.963   3.171   9.871  0.5483  0.5184 -0.1665
   70SLPC   H6R 6017   3.927   3.067   9.887  1.5032  0.1976 -0.0327
   70SLPC   H6S 6018   4.071   3.146   9.883  0.7074  1.1282 -0.3178
   70SLPC   C27 6019   3.938   3.216   9.729  0.1402 -0.1254  0.5799
   70SLPC   H7R 6020   3.974   3.321   9.725  0.7239 -0.3564 -0.6589
   70SLPC   H7S 6021   3.829   3.210   9.710  0.2081 -1.7088  0.4983
   70SLPC   C28 6022   4.011   3.128   9.628  0.3241 -0.3875 -0.1900
   70SLPC   H8R 6023   3.973   3.024   9.635  0.1164 -0.2583  0.7500
   70SLPC   H8S 6024   4.119   3.134   9.655 -0.1554  0.3659  1.7084
   70SLPC   C29 6025   4.007   3.179   9.480 -0.3780 -0.2457 -0.1957
   70SLPC   H9R 6026   4.058   3.274   9.457  1.0386 -0.7793  0.5801
   70SLPC  C210 6027   3.960   3.113   9.374 -0.4368 -0.3569 -0.3556
   70SLPC  H10R 6028   3.958   3.165   9.277  2.5728  0.0356 -0.3066
   70SLPC  C211 6029   3.894   2.974   9.392 -0.5601  0.9191  0.3406
   70SLPC  H11R 6030   3.829   2.972   9.482 -1.3438  1.7199 -0.1823
   70SLPC  H11S 6031   3.976   2.900   9.403 -1.0956  0.1637 -0.5711
   70SLPC  C212 6032   3.817   2.937   9.266  0.2192 -0.4845 -0.6200
   70SLPC  H12R 6033   3.709   2.929   9.289 -0.1739  0.1404 -2.1257
   70SLPC  C213 6034   3.859   2.895   9.144  0.4113  0.0924 -0.4402
   70SLPC  H13R 6035   3.786   2.879   9.063 -1.6527 -0.2501  1.4050
   70SLPC  C214 6036   4.004   2.876   9.104  0.1269  0.4872  0.0741
   70SLPC  H14R 6037   4.066   2.887   9.196 -0.4991  1.0033  0.4413
   70SLPC  H14S 6038   4.040   2.941   9.022  2.2703 -1.6571 -0.8113
   70SLPC  C215 6039   4.018   2.717   9.075  0.2375 -1.0758 -0.2989
   70SLPC  H15R 6040   3.963   2.653   9.148 -0.2241  0.4090  0.6865
   70SLPC  H15S 6041   4.128   2.704   9.079  0.4694  0.5131 -0.9252
   70SLPC  C216 6042   3.955   2.664   8.947  0.1085  0.6793  0.2193
   70SLPC  H16R 6043   4.008   2.703   8.858  0.5104  0.9331  0.5704
   70SLPC  H16S 6044   3.849   2.697   8.945  0.5047  2.1671  1.4651
   70SLPC  C217 6045   3.955   2.513   8.948  0.4487 -0.6319 -0.4129
   70SLPC  H17R 6046   3.925   2.473   9.048 -1.4671  0.7284 -0.3999
   70SLPC  H17S 6047   4.062   2.485   8.938  0.1084 -2.0244 -0.4471
   70SLPC  C218 6048   3.872   2.434   8.844  1.3559  0.1034  0.7613
   70SLPC  H18R 6049   3.884   2.325   8.861 -2.3127 -0.7261 -1.0665
   70SLPC  H18S 6050   3.910   2.462   8.743 -1.7954 -1.2677 -0.9412
   70SLPC  H18T 6051   3.766   2.467   8.849  0.9491 -1.0640  0.1256
   70SLPC   C33 6052   3.350   3.180  10.030 -0.2671  0.4992 -0.1263
   70SLPC   H3X 6053   3.362   3.291  10.027  0.2475  0.6340  3.2769
   70SLPC   H3Y 6054   3.296   3.157   9.936  1.2272  1.6469 -1.3305
   70SLPC   C34 6055   3.491   3.119  10.012  0.4940  0.7306  0.1125
   70SLPC   H4X 6056   3.460   3.014   9.992 -0.7194  1.5216 -2.7182
   70SLPC   H4Y 6057   3.564   3.131  10.095 -0.5972  0.8777  1.0703
   70SLPC   C35 6058   3.554   3.169   9.887 -0.1609 -0.3113 -0.2233
   70SLPC   H5X 6059   3.659   3.134   9.888 -0.2480 -0.6268  1.9410
   70SLPC   H5Y 6060   3.553   3.280   9.892  0.8714 -0.3061  0.0644
   70SLPC   C36 6061   3.477   3.124   9.759 -0.5661  0.6123 -0.4916
   70SLPC   H6X 6062   3.373   3.162   9.753 -0.5612  0.4092 -2.9882
   70SLPC   H6Y 6063   3.471   3.013   9.763 -2.0018  0.6916  2.2837
   70SLPC   C37 6064   3.546   3.153   9.629 -0.1360 -0.2836  0.9741
   70SLPC   H7X 6065   3.632   3.086   9.610  0.0997  0.0438  0.8874
   70SLPC   H7Y 6066   3.581   3.259   9.631  0.7803 -0.5819  0.9240
   70SLPC   C38 6067   3.456   3.118   9.509  0.1024  0.3219  0.4151
   70SLPC   H8X 6068   3.352   3.155   9.519  0.1563  0.5132  0.2806
   70SLPC   H8Y 6069   3.449   3.008   9.502 -0.7156  0.4167 -0.5753
   70SLPC   C39 6070   3.517   3.171   9.376  0.9391 -0.9886  1.1939
   70SLPC   H9X 6071   3.627   3.155   9.368  0.8889 -1.5445  1.6166
   70SLPC   H9Y 6072   3.496   3.280   9.366  0.2262 -1.0017  2.4340
   70SLPC  C310 6073   3.453   3.105   9.254 -0.3714  0.5930  0.0300
   70SLPC  H10X 6074   3.361   3.164   9.234 -0.1146  1.3748  1.0646
   70SLPC  H10Y 6075   3.439   2.996   9.272 -0.1382  0.5436 -0.0882
   70SLPC  C311 6076   3.534   3.119   9.122  0.4343 -0.4969 -0.1415
   70SLPC  H11X 6077   3.626   3.057   9.125 -0.1878 -1.4272  0.2893
   70SLPC  H11Y 6078   3.562   3.224   9.101  1.1065 -0.8433 -1.0756
   70SLPC  C312 6079   3.445   3.069   9.010 -0.7527  0.1559  0.3516
   70SLPC  H12X 6080   3.379   3.149   8.971  0.7288  0.9063 -0.7227
   70SLPC  H12Y 6081   3.379   2.988   9.046 -1.9448  1.1002  0.3280
   70SLPC  C313 6082   3.524   3.019   8.891 -0.1076 -0.1953  0.2757
   70SLPC  H13X 6083   3.601   2.947   8.923  1.0449 -0.1895 -2.3332
   70SLPC  H13Y 6084   3.583   3.105   8.852 -0.8372 -1.0137 -2.8914
   70SLPC  C314 6085   3.443   2.955   8.770 -0.1521 -0.0414  0.5653
   70SLPC  H14X 6086   3.382   3.040   8.732 -0.0214 -0.4555 -0.6090
   70SLPC  H14Y 6087   3.365   2.881   8.800 -1.7701  0.9586 -1.0235
   70SLPC  C315 6088   3.525   2.898   8.651  0.1202  0.0168 -0.2844
   70SLPC  H15X 6089   3.572   2.801   8.679  0.1284  0.0379 -0.2250
   70SLPC  H15Y 6090   3.615   2.961   8.634 -0.7304  1.3930  0.1221
   70SLPC  C316 6091   3.424   2.879   8.539  0.0622 -0.7573  0.3027
   70SLPC  H16X 6092   3.383   2.977   8.504  2.6610 -0.6869 -3.1451
   70SLPC  H16Y 6093   3.338   2.816   8.571 -1.0420  0.9062  0.7837
   70SLPC  C317 6094   3.488   2.826   8.411  0.0491 -0.0511  0.1324
   70SLPC  H17X 6095   3.566   2.893   8.369 -0.9568  1.3554  0.4493
   70SLPC  H17Y 6096   3.405   2.805   8.340 -1.5144 -0.8877  2.0908
   70SLPC  C318 6097   3.562   2.690   8.429  0.6062 -0.0884 -0.1848
   70SLPC  H18X 6098   3.488   2.617   8.467  0.9187 -0.8211 -0.9595
   70SLPC  H18Y 6099   3.654   2.687   8.491 -0.0507 -1.2907  0.7685
   70SLPC  H18Z 6100   3.587   2.662   8.324  2.3851 -1.1994  0.5114
   71SLPC     N 6101   3.024   1.606  10.741  0.3946  0.0809  0.3719
   71SLPC   C13 6102   3.117   1.500  10.684 -0.1090 -0.6426  0.7804
   71SLPC  H13A 6103   3.217   1.539  10.678 -0.3978  0.3415  1.8867
   71SLPC  H13B 6104   3.119   1.406  10.736  0.9069 -2.3949 -2.1677
   71SLPC  H13C 6105   3.085   1.472  10.585  1.3633 -1.4200  0.4981
   71SLPC   C14 6106   3.037   1.736  10.666 -0.1330  0.0073 -0.5070
   71SLPC  H14A 6107   3.129   1.791  10.671  1.0918 -1.9653 -0.0887
   71SLPC  H14B 6108   3.020   1.719  10.560 -0.3716  0.8628 -0.6148
   71SLPC  H14C 6109   2.952   1.801  10.682 -0.2926  0.1647 -1.8474
   71SLPC   C15 6110   3.067   1.634  10.879  0.0297 -0.4688  0.2883
   71SLPC  H15A 6111   3.170   1.667  10.880  0.4126 -1.2656 -2.7254
   71SLPC  H15B 6112   3.005   1.699  10.939  2.0941  0.5637  1.3976
   71SLPC  H15C 6113   3.054   1.545  10.939 -2.1894  0.8996  2.0134
   71SLPC   C12 6114   2.877   1.559  10.751  0.5969  0.0615  0.1624
   71SLPC  H12A 6115   2.827   1.641  10.802  2.2373  1.0591  0.2203
   71SLPC  H12B 6116   2.860   1.472  10.814 -1.5805 -0.3184 -0.8487
   71SLPC   C11 6117   2.800   1.533  10.623 -0.0837 -0.5261 -0.3999
   71SLPC  H11A 6118   2.698   1.490  10.638  0.7392 -2.3323  0.2499
   71SLPC  H11B 6119   2.845   1.447  10.568 -0.1590 -1.0035  0.2693
   71SLPC     P 6120   2.682   1.763  10.546  0.0973  0.0112  0.1534
   71SLPC   O13 6121   2.611   1.742  10.675 -0.0473  0.5520 -0.4193
   71SLPC   O14 6122   2.727   1.899  10.505 -0.2682 -0.2743 -0.2398
   71SLPC   O12 6123   2.793   1.645  10.534 -0.1194  0.1583 -0.5647
   71SLPC   O11 6124   2.569   1.725  10.444  0.0487 -0.0889 -0.3834
   71SLPC    C1 6125   2.533   1.609  10.375  0.7386 -0.0122 -0.6384
   71SLPC    HA 6126   2.564   1.521  10.436  0.1292  1.7943  2.4689
   71SLPC    HB 6127   2.424   1.607  10.357  0.8031  1.3260 -1.2559
   71SLPC    C2 6128   2.604   1.598  10.241 -1.0039  0.2892  0.1699
   71SLPC    HS 6129   2.701   1.547  10.259 -0.1535  1.8013  0.0509
   71SLPC   O21 6130   2.623   1.730  10.183  0.1801 -0.2365  0.2778
   71SLPC   C21 6131   2.743   1.769  10.165  0.0423  0.1434 -0.2342
   71SLPC   O22 6132   2.847   1.715  10.209 -0.0454  0.2134  0.2348
   71SLPC   C22 6133   2.742   1.907  10.098 -0.8594  0.1180  0.1780
   71SLPC   H2R 6134   2.650   1.903  10.036  0.1498 -0.1232 -1.3554
   71SLPC   H2S 6135   2.743   1.991  10.171 -0.1049 -0.0421  0.3661
   71SLPC    C3 6136   2.535   1.508  10.133  0.1357  0.0487  0.0484
   71SLPC    HX 6137   2.436   1.552  10.105 -0.2481 -0.4532  0.5936
   71SLPC    HY 6138   2.522   1.408  10.180  0.4778 -0.8711 -1.7099
   71SLPC   O31 6139   2.602   1.502  10.012 -0.0391  0.3826 -0.0164
   71SLPC   C31 6140   2.557   1.425   9.916  0.1537 -0.1542 -0.3629
   71SLPC   O32 6141   2.466   1.343   9.915  0.2701  0.5209  0.2942
   71SLPC   C32 6142   2.651   1.461   9.799 -0.0385 -0.0973 -0.2541
   71SLPC   H2X 6143   2.756   1.452   9.834  0.0510  0.4724 -0.3608
   71SLPC   H2Y 6144   2.636   1.570   9.782 -0.2341  0.0854  0.9854
   71SLPC   C23 6145   2.861   1.940  10.002 -0.3151 -0.2483  0.1656
   71SLPC   H3R 6146   2.951   1.900  10.053  1.3717  3.7029  0.6019
   71SLPC   H3S 6147   2.863   2.048   9.980  1.2513 -0.1331  0.7853
   71SLPC   C24 6148   2.842   1.870   9.864  0.0564  0.8245 -0.4052
   71SLPC   H4R 6149   2.785   1.938   9.797  0.5500 -1.0118 -2.8109
   71SLPC   H4S 6150   2.791   1.772   9.860 -0.7797  1.2672 -0.8578
   71SLPC   C25 6151   2.981   1.860   9.796 -0.1551 -0.4968 -0.1987
   71SLPC   H5R 6152   3.039   1.788   9.857  1.0870  1.1443  0.6521
   71SLPC   H5S 6153   3.014   1.966   9.804 -2.7489  0.6090 -2.3834
   71SLPC   C26 6154   2.968   1.826   9.642 -0.5061 -0.7193  0.4252
   71SLPC   H6R 6155   2.897   1.895   9.590  1.5026  0.7440 -0.5066
   71SLPC   H6S 6156   2.933   1.721   9.634  2.0838 -1.6268  0.2979
   71SLPC   C27 6157   3.099   1.851   9.574  0.2930 -0.7855  0.0022
   71SLPC   H7R 6158   3.177   1.789   9.623  1.8799  0.6510 -0.5552
   71SLPC   H7S 6159   3.116   1.960   9.591  0.9256 -0.9119  0.2142
   71SLPC   C28 6160   3.095   1.810   9.425  0.0425 -0.2108 -0.2038
   71SLPC   H8R 6161   3.037   1.716   9.415  1.0922 -0.7417 -1.7328
   71SLPC   H8S 6162   3.199   1.778   9.402 -1.1016 -4.1785 -0.6148
   71SLPC   C29 6163   3.045   1.920   9.336  0.1920 -0.7008 -0.7443
   71SLPC   H9R 6164   2.991   1.998   9.391  1.5886 -0.3918  0.2444
   71SLPC  C210 6165   3.066   1.937   9.203  0.4430 -0.2921 -0.3892
   71SLPC  H10R 6166   3.004   2.014   9.154 -0.1642 -0.4259  0.1638
   71SLPC  C211 6167   3.153   1.843   9.117  0.1417  0.0180 -0.2765
   71SLPC  H11R 6168   3.163   1.753   9.182 -2.8509  1.8523  3.0612
   71SLPC  H11S 6169   3.242   1.908   9.114  0.7156 -0.7388 -0.0165
   71SLPC  C212 6170   3.110   1.817   8.972 -0.7083  0.2832  0.3096
   71SLPC  H12R 6171   3.063   1.894   8.909 -1.1366 -0.7007 -0.6062
   71SLPC  C213 6172   3.140   1.701   8.906  0.2750  0.2224  0.0527
   71SLPC  H13R 6173   3.115   1.695   8.799  1.7060  1.6286 -0.3848
   71SLPC  C214 6174   3.200   1.579   8.967 -0.0966 -0.7418  0.3996
   71SLPC  H14R 6175   3.223   1.590   9.075 -2.2338 -2.7001  1.1235
   71SLPC  H14S 6176   3.294   1.564   8.909 -0.6725  1.0567 -1.0873
   71SLPC  C215 6177   3.102   1.461   8.966  0.7271 -0.2753  0.2021
   71SLPC  H15R 6178   3.061   1.449   8.863  0.8593 -1.3005  0.2560
   71SLPC  H15S 6179   3.022   1.493   9.036  0.2633 -0.9301 -0.0162
   71SLPC  C216 6180   3.175   1.336   9.008  0.3029  1.2941 -0.5227
   71SLPC  H16R 6181   3.208   1.353   9.113 -1.9080  1.9930  0.1231
   71SLPC  H16S 6182   3.265   1.321   8.946  0.5658  1.3975 -0.1695
   71SLPC  C217 6183   3.079   1.219   8.999  0.4596 -0.1942 -0.2250
   71SLPC  H17R 6184   3.051   1.199   8.893 -0.8527  1.0205 -0.1479
   71SLPC  H17S 6185   2.989   1.251   9.056  2.6482  3.9736  1.2921
   71SLPC  C218 6186   3.136   1.097   9.068  0.3243  0.1390 -0.0089
   71SLPC  H18R 6187   3.247   1.087   9.064  0.3926  0.4584  0.8394
   71SLPC  H18S 6188   3.088   1.003   9.034 -1.6085  0.8005  0.7811
   71SLPC  H18T 6189   3.112   1.096   9.177 -0.4748 -3.9303 -0.0589
   71SLPC   C33 6190   2.640   1.373   9.679 -0.3721 -0.3569  0.1824
   71SLPC   H3X 6191   2.627   1.265   9.702 -2.3051 -0.3876 -0.8519
   71SLPC   H3Y 6192   2.733   1.380   9.619 -0.9219 -4.8035 -1.6328
   71SLPC   C34 6193   2.518   1.402   9.591 -1.0726 -0.3346  0.0619
   71SLPC   H4X 6194   2.519   1.511   9.568  0.1076 -0.2503  0.4392
   71SLPC   H4Y 6195   2.427   1.381   9.651 -1.3772  1.0739  0.1277
   71SLPC   C35 6196   2.510   1.323   9.463 -0.0025  0.0570  0.5284
   71SLPC   H5X 6197   2.521   1.214   9.485  1.0779  0.3177  1.3703
   71SLPC   H5Y 6198   2.589   1.356   9.392  0.3924  1.8210  1.7288
   71SLPC   C36 6199   2.376   1.336   9.400  0.7192 -0.0172  0.0756
   71SLPC   H6X 6200   2.354   1.442   9.372  1.9209  0.1652 -0.2243
   71SLPC   H6Y 6201   2.297   1.299   9.469 -0.6054 -0.9761 -1.8653
   71SLPC   C37 6202   2.372   1.250   9.262  0.2561 -0.3381 -0.0526
   71SLPC   H7X 6203   2.409   1.146   9.273  1.3143 -0.1360 -1.4203
   71SLPC   H7Y 6204   2.435   1.306   9.189 -0.3576  0.0686 -0.2853
   71SLPC   C38 6205   2.225   1.237   9.220  0.1359 -0.0295 -1.4135
   71SLPC   H8X 6206   2.172   1.334   9.211 -1.1461 -0.5423  0.1281
   71SLPC   H8Y 6207   2.176   1.195   9.310 -0.6207 -0.3592 -1.9622
   71SLPC   C39 6208   2.197   1.149   9.097 -0.1825  0.2413  0.1117
   71SLPC   H9X 6209   2.097   1.103   9.111 -1.0434  2.4835  2.1030
   71SLPC   H9Y 6210   2.266   1.061   9.097  1.8682  1.7643 -1.7071
   71SLPC  C310 6211   2.203   1.208   8.955 -0.4960  0.3351 -0.3741
   71SLPC  H10X 6212   2.167   1.131   8.885 -1.3452 -0.5345  0.9816
   71SLPC  H10Y 6213   2.304   1.229   8.912 -0.6688  2.1521  0.0046
   71SLPC  C311 6214   2.122   1.332   8.944  0.2703 -0.1790 -0.3871
   71SLPC  H11X 6215   2.145   1.399   9.029  1.8967  0.0388 -0.9652
   71SLPC  H11Y 6216   2.017   1.301   8.963  0.1871  1.1288  1.5658
   71SLPC  C312 6217   2.150   1.410   8.822  0.0259  0.0136  0.0401
   71SLPC  H12X 6218   2.080   1.363   8.749 -2.3158  2.0188  0.8498
   71SLPC  H12Y 6219   2.252   1.398   8.779  0.7682  0.0302  1.7082
   71SLPC  C313 6220   2.121   1.561   8.833 -0.3181  0.2923 -0.7409
   71SLPC  H13X 6221   2.195   1.615   8.897 -3.1698  2.1693  1.2073
   71SLPC  H13Y 6222   2.026   1.576   8.888  0.3425 -1.4488  1.0045
   71SLPC  C314 6223   2.131   1.631   8.696  1.0441 -0.1534  0.0992
   71SLPC  H14X 6224   2.200   1.569   8.635  2.4133  0.8022  0.6223
   71SLPC  H14Y 6225   2.171   1.734   8.703 -1.3950  0.9249 -0.9062
   71SLPC  C315 6226   1.999   1.643   8.624  0.0931  0.0800  0.2193
   71SLPC  H15X 6227   1.931   1.701   8.691  3.2892  2.9303  1.2667
   71SLPC  H15Y 6228   1.948   1.546   8.609 -0.8686  0.0562  3.0299
   71SLPC  C316 6229   2.017   1.703   8.487  0.4995 -0.2641  0.4371
   71SLPC  H16X 6230   2.087   1.637   8.432 -3.5527 -2.3013 -2.8686
   71SLPC  H16Y 6231   2.049   1.810   8.486  0.0928 -0.1262 -0.9672
   71SLPC  C317 6232   1.875   1.700   8.428 -0.4105  0.1593  0.1510
   71SLPC  H17X 6233   1.818   1.611   8.464 -1.6075  1.2537  1.0271
   71SLPC  H17Y 6234   1.897   1.693   8.320  2.3824 -0.8410  0.6966
   71SLPC  C318 6235   1.789   1.823   8.453  0.1079  0.2069 -0.2404
   71SLPC  H18X 6236   1.753   1.836   8.557 -0.9719 -0.8919 -0.4454
   71SLPC  H18Y 6237   1.703   1.805   8.384  0.6174  1.4125 -1.2194
   71SLPC  H18Z 6238   1.843   1.917   8.432  0.4336  0.4612  1.5848
   72SLPC     N 6239   4.772   0.699  10.999  0.3997  0.2935 -0.3758
   72SLPC   C13 6240   4.718   0.837  10.968 -0.3768  0.1917  0.0003
   72SLPC  H13A 6241   4.683   0.888  11.056 -0.8701  0.2898 -0.2500
   72SLPC  H13B 6242   4.795   0.892  10.915 -0.5311  1.5723  1.1627
   72SLPC  H13C 6243   4.629   0.842  10.907 -0.2970 -0.3380 -0.1643
   72SLPC   C14 6244   4.668   0.615  11.056 -0.1138  0.4193 -0.5643
   72SLPC  H14A 6245   4.710   0.516  11.059  0.5757  0.6946 -0.9732
   72SLPC  H14B 6246   4.633   0.650  11.152  0.9752  2.4305 -0.8442
   72SLPC  H14C 6247   4.582   0.600  10.993  0.0430  0.7024 -0.8481
   72SLPC   C15 6248   4.878   0.700  11.101 -0.3627 -0.1298  0.3849
   72SLPC  H15A 6249   4.949   0.771  11.060  0.9629 -2.5544 -1.8727
   72SLPC  H15B 6250   4.855   0.720  11.205  1.7507  1.4295  0.6110
   72SLPC  H15C 6251   4.937   0.609  11.098  0.9356  0.7077 -0.9343
   72SLPC   C12 6252   4.820   0.630  10.875 -0.0621  0.6566  0.0618
   72SLPC  H12A 6253   4.743   0.635  10.800  1.0144  0.4502 -1.1023
   72SLPC  H12B 6254   4.838   0.525  10.898  2.8083  0.9255 -0.5238
   72SLPC   C11 6255   4.945   0.686  10.810 -0.0019 -0.0977 -0.0029
   72SLPC  H11A 6256   4.994   0.626  10.730  0.8456  0.7645 -0.1532
   72SLPC  H11B 6257   5.026   0.701  10.885 -0.7458  3.5402  0.2717
   72SLPC     P 6258   4.839   0.858  10.637  0.0108 -0.3315 -0.6654
   72SLPC   O13 6259   4.702   0.824  10.674 -0.7098 -0.2529  0.2312
   72SLPC   O14 6260   4.877   0.990  10.595  0.7004 -0.0770  0.4068
   72SLPC   O12 6261   4.925   0.820  10.766 -0.0205 -0.1096  0.3880
   72SLPC   O11 6262   4.883   0.753  10.528  0.1726  0.0471 -0.4041
   72SLPC    C1 6263   4.859   0.779  10.394 -0.2373  0.3234  0.2993
   72SLPC    HA 6264   4.811   0.684  10.363 -2.3791  0.9936  1.3590
   72SLPC    HB 6265   4.788   0.861  10.373  0.6893  1.2948  0.8574
   72SLPC    C2 6266   4.987   0.807  10.314  0.6548 -0.6038  0.6068
   72SLPC    HS 6267   5.034   0.901  10.350  0.6838 -0.8116  1.1267
   72SLPC   O21 6268   4.960   0.820  10.180  0.3812  0.0613 -0.1337
   72SLPC   C21 6269   4.921   0.929  10.134  0.2100  0.4906  0.2901
   72SLPC   O22 6270   4.899   1.033  10.193  0.3055 -0.0987 -0.2685
   72SLPC   C22 6271   4.902   0.918   9.986  0.6359 -0.3753 -0.6841
   72SLPC   H2R 6272   4.891   0.810   9.963  0.2051 -0.5613  0.3570
   72SLPC   H2S 6273   4.816   0.975   9.944  0.1149 -2.8985 -3.3967
   72SLPC    C3 6274   5.093   0.689  10.341 -0.2027  0.4055  0.6711
   72SLPC    HX 6275   5.039   0.593  10.326 -0.7723  0.9109 -0.6875
   72SLPC    HY 6276   5.126   0.690  10.447 -1.5709 -0.3405  1.1240
   72SLPC   O31 6277   5.215   0.698  10.264  0.2143  0.7912  0.7396
   72SLPC   C31 6278   5.305   0.798  10.278  0.0961  0.0923 -0.5947
   72SLPC   O32 6279   5.298   0.900  10.342 -0.3085  0.1052  0.4733
   72SLPC   C32 6280   5.426   0.763  10.194  0.3092  0.0939  0.7127
   72SLPC   H2X 6281   5.405   0.658  10.165  0.4464  0.2558  0.0123
   72SLPC   H2Y 6282   5.516   0.770  10.259 -0.2625  0.3487  1.4822
   72SLPC   C23 6283   5.029   0.966   9.911  0.1831 -0.1799  0.3131
   72SLPC   H3R 6284   5.124   0.936   9.959 -1.5637 -4.0915  1.8019
   72SLPC   H3S 6285   5.026   1.077   9.911 -0.0267 -0.1775 -0.6550
   72SLPC   C24 6286   5.013   0.930   9.761  0.4247 -0.3375  0.4097
   72SLPC   H4R 6287   4.913   0.937   9.712  0.6120  2.2209  0.2190
   72SLPC   H4S 6288   5.046   0.824   9.757  0.4105 -0.4093  1.7837
   72SLPC   C25 6289   5.128   0.996   9.672  0.7917 -0.0951 -0.5980
   72SLPC   H5R 6290   5.220   1.012   9.733  1.5499  0.7270 -1.9144
   72SLPC   H5S 6291   5.092   1.097   9.642  1.1106  0.6431  1.3467
   72SLPC   C26 6292   5.170   0.909   9.549 -0.2968  0.4164  0.0054
   72SLPC   H6R 6293   5.078   0.860   9.512 -2.3838  3.2170  1.1003
   72SLPC   H6S 6294   5.247   0.840   9.589  2.5227  2.3225 -1.7588
   72SLPC   C27 6295   5.227   0.981   9.427 -0.2431  0.0669  0.2337
   72SLPC   H7R 6296   5.284   1.073   9.449  0.1782  0.1369 -1.0521
   72SLPC   H7S 6297   5.140   1.019   9.370 -1.0025  2.1361  2.6036
   72SLPC   C28 6298   5.329   0.895   9.349  0.7541 -0.5803 -0.2982
   72SLPC   H8R 6299   5.283   0.793   9.345  1.0890 -0.6997 -1.4212
   72SLPC   H8S 6300   5.422   0.905   9.408  1.5155 -0.3012 -1.5104
   72SLPC   C29 6301   5.351   0.937   9.202 -0.0748 -0.2581 -0.3934
   72SLPC   H9R 6302   5.257   0.927   9.147  0.2253  2.0080 -1.4375
   72SLPC  C210 6303   5.447   1.017   9.149  0.4236 -0.2564 -0.1430
   72SLPC  H10R 6304   5.444   1.040   9.042 -2.2707  0.1754 -0.0335
   72SLPC  C211 6305   5.565   1.083   9.222  0.7171 -0.9788 -0.1927
   72SLPC  H11R 6306   5.647   1.010   9.205  2.4718  0.9893 -0.5871
   72SLPC  H11S 6307   5.536   1.108   9.326 -0.5992 -0.1452 -0.7376
   72SLPC  C212 6308   5.582   1.216   9.153 -0.3778 -0.0987  0.4804
   72SLPC  H12R 6309   5.527   1.298   9.202 -1.1560 -0.2673 -0.0813
   72SLPC  C213 6310   5.648   1.242   9.037 -0.3464  0.1747 -0.9150
   72SLPC  H13R 6311   5.648   1.341   8.989  0.6957  0.1239 -1.0488
   72SLPC  C214 6312   5.737   1.140   8.971 -0.6731  1.5872  0.4508
   72SLPC  H14R 6313   5.758   1.047   9.028  1.8110  1.7349 -0.1114
   72SLPC  H14S 6314   5.841   1.177   8.961 -0.1119  0.2934  1.1884
   72SLPC  C215 6315   5.686   1.099   8.829 -0.3709  0.5365 -0.6199
   72SLPC  H15R 6316   5.678   1.189   8.763  2.4885  2.1857  1.0711
   72SLPC  H15S 6317   5.588   1.051   8.847 -0.4659  0.9802  0.0831
   72SLPC  C216 6318   5.768   1.003   8.742 -0.0651  0.4854  0.1949
   72SLPC  H16R 6319   5.793   0.914   8.805 -1.1830  1.0040  1.4288
   72SLPC  H16S 6320   5.856   1.063   8.712 -0.3498  0.1897 -1.2839
   72SLPC  C217 6321   5.696   0.948   8.615 -0.2406 -0.0141  0.4009
   72SLPC  H17R 6322   5.772   0.921   8.539  0.3067 -1.4455  1.4201
   72SLPC  H17S 6323   5.632   1.024   8.566  1.8414  0.9193 -1.0090
   72SLPC  C218 6324   5.606   0.828   8.654 -0.3670 -0.2097  0.2020
   72SLPC  H18R 6325   5.530   0.851   8.731 -0.1088  0.8094  0.1621
   72SLPC  H18S 6326   5.672   0.743   8.684  0.6441  0.4375 -0.1269
   72SLPC  H18T 6327   5.548   0.793   8.566  0.9638  2.7477 -2.0600
   72SLPC   C33 6328   5.453   0.848  10.065  0.0674 -0.2992  0.7254
   72SLPC   H3X 6329   5.479   0.953  10.089 -0.4241 -0.1869  0.7775
   72SLPC   H3Y 6330   5.353   0.851  10.015  1.3669  3.7540 -2.1955
   72SLPC   C34 6331   5.567   0.792   9.982 -0.6481 -0.0220 -0.3144
   72SLPC   H4X 6332   5.567   0.681   9.990 -0.5341 -0.2105 -2.3490
   72SLPC   H4Y 6333   5.660   0.828  10.030 -1.0973  0.7202  0.0204
   72SLPC   C35 6334   5.552   0.819   9.832 -0.2120 -0.3751  0.8943
   72SLPC   H5X 6335   5.589   0.921   9.806 -0.4762 -0.4792  0.0917
   72SLPC   H5Y 6336   5.446   0.814   9.798 -0.1173  1.2381  0.2642
   72SLPC   C36 6337   5.638   0.725   9.743  0.0677  0.2396  0.3154
   72SLPC   H6X 6338   5.612   0.618   9.760 -3.2527  0.3915 -2.7534
   72SLPC   H6Y 6339   5.743   0.750   9.769  0.1984  0.4018 -0.3560
   72SLPC   C37 6340   5.610   0.753   9.597 -0.4127  0.4168 -0.6127
   72SLPC   H7X 6341   5.624   0.862   9.581  0.3634  0.3089 -0.7002
   72SLPC   H7Y 6342   5.501   0.747   9.573 -0.8984 -0.6008  1.6318
   72SLPC   C38 6343   5.692   0.665   9.501 -0.0912 -0.8316  0.2797
   72SLPC   H8X 6344   5.650   0.563   9.514  1.0078 -1.1501  1.5270
   72SLPC   H8Y 6345   5.800   0.666   9.527 -0.0873  0.8443  0.3145
   72SLPC   C39 6346   5.670   0.709   9.356  0.7250 -0.0158  0.1350
   72SLPC   H9X 6347   5.691   0.818   9.362 -2.2375  0.6322  0.4012
   72SLPC   H9Y 6348   5.565   0.706   9.321 -0.7412  0.0874  4.0320
   72SLPC  C310 6349   5.768   0.648   9.253 -0.1529  0.2945 -0.0373
   72SLPC  H10X 6350   5.733   0.546   9.226 -1.0229 -0.4795  3.5051
   72SLPC  H10Y 6351   5.865   0.640   9.307  0.3160 -0.6373 -0.9593
   72SLPC  C311 6352   5.773   0.736   9.124 -0.3531  0.3494 -0.2986
   72SLPC  H11X 6353   5.794   0.839   9.160  1.4007  0.0504 -0.3746
   72SLPC  H11Y 6354   5.679   0.748   9.065  0.8551  3.4087 -1.8618
   72SLPC  C312 6355   5.876   0.686   9.017  0.2585 -0.4483  0.3132
   72SLPC  H12X 6356   5.948   0.619   9.068 -1.1417 -0.4149  2.4912
   72SLPC  H12Y 6357   5.928   0.767   8.961  0.7184 -1.7643 -1.2363
   72SLPC  C313 6358   5.815   0.594   8.909  0.1806 -0.3320  0.4388
   72SLPC  H13X 6359   5.745   0.655   8.848  1.8631  1.1862 -0.0759
   72SLPC  H13Y 6360   5.759   0.509   8.953 -0.1070 -0.9660 -1.0871
   72SLPC  C314 6361   5.923   0.548   8.816  0.1922  0.1482 -0.4212
   72SLPC  H14X 6362   5.987   0.470   8.862 -2.1137 -1.7972 -0.2985
   72SLPC  H14Y 6363   5.991   0.625   8.775  1.9164 -1.1131 -0.0148
   72SLPC  C315 6364   5.863   0.480   8.695  0.8841  0.0447  0.5568
   72SLPC  H15X 6365   5.806   0.556   8.636 -0.1318 -2.5388 -2.0265
   72SLPC  H15Y 6366   5.792   0.405   8.736 -2.3826  1.5932 -1.7706
   72SLPC  C316 6367   5.969   0.422   8.591 -0.4173 -0.7583  0.0525
   72SLPC  H16X 6368   6.022   0.350   8.657 -0.4141 -0.9801 -0.1874
   72SLPC  H16Y 6369   6.019   0.515   8.558 -0.1543 -0.6039  0.8708
   72SLPC  C317 6370   5.899   0.364   8.475 -0.1522 -0.3957  0.2139
   72SLPC  H17X 6371   5.864   0.443   8.405  0.8961 -0.2228 -0.1312
   72SLPC  H17Y 6372   5.816   0.298   8.508 -0.1725  0.5547  2.2464
   72SLPC  C318 6373   5.993   0.289   8.381 -0.1808  0.2088 -0.0775
   72SLPC  H18X 6374   6.063   0.364   8.339 -3.0035  4.3386  1.8524
   72SLPC  H18Y 6375   5.933   0.251   8.295 -0.8939  0.3694  0.3354
   72SLPC  H18Z 6376   6.048   0.203   8.422 -0.6254 -0.8234 -1.5705
   73SLPC     N 6377   5.061   5.571  10.899 -0.4824 -0.1896 -0.0031
   73SLPC   C13 6378   5.001   5.475  10.998 -0.0580  0.4101 -0.1187
   73SLPC  H13A 6379   5.058   5.456  11.087 -0.4508  2.3206  0.5909
   73SLPC  H13B 6380   4.902   5.504  11.031 -0.0150 -0.7494  1.0801
   73SLPC  H13C 6381   4.983   5.382  10.946  0.6585  0.6002 -0.7219
   73SLPC   C14 6382   5.203   5.541  10.885  0.1409  0.5010  0.0135
   73SLPC  H14A 6383   5.258   5.539  10.978  1.1439 -0.5910 -0.5859
   73SLPC  H14B 6384   5.196   5.439  10.853 -0.9713  0.2660  0.9313
   73SLPC  H14C 6385   5.258   5.602  10.814 -0.2936  1.5653  0.5612
   73SLPC   C15 6386   5.051   5.706  10.967  0.0897 -0.3243 -0.4371
   73SLPC  H15A 6387   5.118   5.706  11.052 -0.8676  0.1835  0.3332
   73SLPC  H15B 6388   5.064   5.797  10.911 -0.3501 -0.6646 -1.1049
   73SLPC  H15C 6389   4.949   5.697  11.001  0.7146 -0.4072  1.5265
   73SLPC   C12 6390   4.988   5.565  10.770  0.4623 -0.4331  0.1696
   73SLPC  H12A 6391   4.885   5.586  10.794 -0.8242 -3.9720 -1.5553
   73SLPC  H12B 6392   4.986   5.465  10.728 -1.0217 -0.3445 -0.0422
   73SLPC   C11 6393   5.044   5.667  10.668  0.8733  0.7665  0.0427
   73SLPC  H11A 6394   4.994   5.630  10.576  3.8116 -0.5648 -1.1568
   73SLPC  H11B 6395   5.154   5.655  10.653  0.9772  1.9774 -0.2778
   73SLPC     P 6396   4.865   5.864  10.645  0.0863 -0.0890 -0.2339
   73SLPC   O13 6397   4.759   5.775  10.703  0.0137  0.1112  0.1541
   73SLPC   O14 6398   4.843   6.010  10.666  0.0070 -0.0273  0.5745
   73SLPC   O12 6399   5.012   5.804  10.697 -0.4121 -0.4203  0.3540
   73SLPC   O11 6400   4.866   5.829  10.491  0.2566  0.7119 -0.7749
   73SLPC    C1 6401   4.950   5.911  10.403  0.6434 -0.5854 -0.3173
   73SLPC    HA 6402   4.925   6.016  10.428  1.5773 -0.6427  0.9293
   73SLPC    HB 6403   5.054   5.898  10.440 -0.7313 -1.8937  3.6526
   73SLPC    C2 6404   4.943   5.857  10.268 -0.3561 -0.9341 -0.8163
   73SLPC    HS 6405   4.999   5.925  10.201  0.8982 -0.5243  0.5853
   73SLPC   O21 6406   4.814   5.821  10.225 -0.3538  0.7069  0.1019
   73SLPC   C21 6407   4.736   5.924  10.198  0.4935 -0.2365 -0.2979
   73SLPC   O22 6408   4.770   6.040  10.210  0.2983 -0.7469 -0.1596
   73SLPC   C22 6409   4.604   5.877  10.137 -0.1303  0.0264 -0.2578
   73SLPC   H2R 6410   4.633   5.789  10.077 -2.7979 -0.9120 -0.3166
   73SLPC   H2S 6411   4.535   5.845  10.218 -0.5672  1.8934  0.1628
   73SLPC    C3 6412   5.010   5.716  10.256  0.3183  0.4447 -0.0299
   73SLPC    HX 6413   4.932   5.644  10.292 -1.1428  2.3051  0.7036
   73SLPC    HY 6414   5.103   5.729  10.315  1.2614 -1.3000 -1.0570
   73SLPC   O31 6415   5.073   5.693  10.124  0.8130  0.3539  0.9787
   73SLPC   C31 6416   5.006   5.606  10.052 -0.8602 -0.0047  0.0284
   73SLPC   O32 6417   4.941   5.517  10.098  0.2871  0.2616  0.1500
   73SLPC   C32 6418   5.040   5.610   9.901  0.3110  0.0719 -0.0167
   73SLPC   H2X 6419   4.979   5.530   9.855  0.6843 -1.1940  1.5853
   73SLPC   H2Y 6420   5.143   5.569   9.894  0.3881  0.3150 -0.3463
   73SLPC   C23 6421   4.539   5.996  10.059  0.4155  0.4875  0.4561
   73SLPC   H3R 6422   4.593   6.029   9.967 -0.1540 -0.1110 -0.1072
   73SLPC   H3S 6423   4.546   6.088  10.120 -1.9826  2.3282 -1.7615
   73SLPC   C24 6424   4.387   5.977  10.021 -0.5989 -0.6260 -0.1245
   73SLPC   H4R 6425   4.356   6.079   9.990 -1.1987 -0.1839  1.7880
   73SLPC   H4S 6426   4.321   5.942  10.104  0.8162 -1.3769  0.7268
   73SLPC   C25 6427   4.393   5.882   9.895 -0.5243 -0.3954  0.1847
   73SLPC   H5R 6428   4.299   5.823   9.901 -2.6321  2.7353  0.1536
   73SLPC   H5S 6429   4.475   5.807   9.894 -1.7391 -1.8038 -1.3737
   73SLPC   C26 6430   4.389   5.953   9.764 -0.6273  0.2989  0.1997
   73SLPC   H6R 6431   4.458   6.040   9.753 -2.5028  1.9628  0.8501
   73SLPC   H6S 6432   4.286   5.995   9.765 -1.0400 -0.5164 -2.1463
   73SLPC   C27 6433   4.392   5.860   9.639  0.6921  0.4526 -0.2098
   73SLPC   H7R 6434   4.343   5.763   9.660  0.8632  0.5856  0.8399
   73SLPC   H7S 6435   4.501   5.848   9.621  0.5375 -0.4339 -0.5883
   73SLPC   C28 6436   4.316   5.904   9.510 -0.0074  0.2103  0.5493
   73SLPC   H8R 6437   4.207   5.892   9.524  0.1428 -1.2934  0.6148
   73SLPC   H8S 6438   4.334   5.823   9.436  0.9192  0.7848  0.1220
   73SLPC   C29 6439   4.367   6.038   9.443 -0.0578  0.1514  0.0714
   73SLPC   H9R 6440   4.407   6.109   9.516  1.4644  1.9820 -2.3683
   73SLPC  C210 6441   4.376   6.067   9.303  0.1673  0.6757 -0.2804
   73SLPC  H10R 6442   4.425   6.158   9.267 -1.7873  1.6263 -0.6765
   73SLPC  C211 6443   4.322   5.972   9.196  0.0649  0.1085  0.0623
   73SLPC  H11R 6444   4.277   6.034   9.115 -3.0094 -1.1700  0.6517
   73SLPC  H11S 6445   4.227   5.928   9.234 -0.3167 -1.0413 -2.0332
   73SLPC  C212 6446   4.421   5.884   9.129 -0.0395 -0.4015 -0.4528
   73SLPC  H12R 6447   4.422   5.784   9.174  1.8841  0.4583  1.6237
   73SLPC  C213 6448   4.513   5.911   9.035  0.4259 -0.3017 -0.6688
   73SLPC  H13R 6449   4.571   5.831   8.987 -2.1759 -2.7995  0.0416
   73SLPC  C214 6450   4.535   6.044   8.974  0.7513  0.2095  0.2258
   73SLPC  H14R 6451   4.641   6.070   8.996  0.6007 -0.0170  1.3052
   73SLPC  H14S 6452   4.468   6.123   9.015 -1.6924 -0.9125 -1.4040
   73SLPC  C215 6453   4.514   6.045   8.825 -0.2149  0.0435  0.3737
   73SLPC  H15R 6454   4.462   6.139   8.797 -4.0400 -1.4150  1.9462
   73SLPC  H15S 6455   4.438   5.973   8.789  0.3901 -0.8666  0.8833
   73SLPC  C216 6456   4.643   6.026   8.749 -0.0598 -0.5120 -0.0293
   73SLPC  H16R 6457   4.725   6.089   8.789 -0.3757  0.4250 -0.8186
   73SLPC  H16S 6458   4.617   6.057   8.645 -2.3062  1.0122  0.8959
   73SLPC  C217 6459   4.692   5.880   8.748  0.2713  0.2365  0.2809
   73SLPC  H17R 6460   4.607   5.810   8.730 -0.6088  1.8312 -2.3464
   73SLPC  H17S 6461   4.731   5.858   8.850 -1.2602 -1.3834  0.5773
   73SLPC  C218 6462   4.802   5.842   8.642 -0.2891 -0.4430  0.2568
   73SLPC  H18R 6463   4.893   5.904   8.644 -0.3792 -0.2604 -0.7089
   73SLPC  H18S 6464   4.759   5.853   8.540  0.5850  0.2609 -0.0444
   73SLPC  H18T 6465   4.832   5.736   8.656  1.0942 -0.0566  0.3079
   73SLPC   C33 6466   5.031   5.748   9.830 -0.1268 -0.4129  0.5586
   73SLPC   H3X 6467   5.115   5.804   9.878  0.5319 -0.8556 -0.0475
   73SLPC   H3Y 6468   4.934   5.796   9.852 -0.4831 -2.0371  2.9607
   73SLPC   C34 6469   5.050   5.734   9.676 -0.1539 -0.0778  0.3109
   73SLPC   H4X 6470   4.975   5.802   9.632 -1.5544 -0.8535  1.4125
   73SLPC   H4Y 6471   5.033   5.630   9.640  0.1816 -0.4340  1.1742
   73SLPC   C35 6472   5.188   5.792   9.626  1.0011 -0.1550 -0.4321
   73SLPC   H5X 6473   5.274   5.728   9.656  0.5260 -1.3706 -1.5837
   73SLPC   H5Y 6474   5.196   5.895   9.667 -3.1672  1.2561 -2.5476
   73SLPC   C36 6475   5.196   5.801   9.473  0.7063 -0.4700  0.1364
   73SLPC   H6X 6476   5.098   5.844   9.444  0.7129  0.1613  1.0279
   73SLPC   H6Y 6477   5.207   5.705   9.418 -3.4733 -1.4661  0.6583
   73SLPC   C37 6478   5.303   5.899   9.416  0.4517 -0.1447  0.4873
   73SLPC   H7X 6479   5.406   5.871   9.447  0.2329  0.9817  2.4129
   73SLPC   H7Y 6480   5.287   5.997   9.465 -3.2502 -0.1110 -0.5290
   73SLPC   C38 6481   5.302   5.919   9.260  0.4495  0.1709 -0.8434
   73SLPC   H8X 6482   5.204   5.961   9.230  1.0817  1.1112 -1.7055
   73SLPC   H8Y 6483   5.308   5.821   9.209  1.1822 -1.0660  1.4926
   73SLPC   C39 6484   5.407   6.020   9.216  0.0373 -0.2228 -0.0999
   73SLPC   H9X 6485   5.505   5.984   9.255  0.0825 -1.8085 -1.5300
   73SLPC   H9Y 6486   5.375   6.119   9.255 -1.0501 -1.5405  2.5700
   73SLPC  C310 6487   5.427   6.031   9.066 -0.2975  0.2345 -0.1449
   73SLPC  H10X 6488   5.447   5.926   9.038  0.4052 -0.5644  3.0483
   73SLPC  H10Y 6489   5.523   6.080   9.039  0.4117 -1.1537 -0.2341
   73SLPC  C311 6490   5.317   6.088   8.981 -0.5481 -0.2151  0.1153
   73SLPC  H11X 6491   5.329   6.198   8.983  0.8856 -0.2364 -2.5146
   73SLPC  H11Y 6492   5.222   6.053   9.027 -0.8190 -0.7401 -0.8211
   73SLPC  C312 6493   5.313   6.060   8.827  0.0886  0.5173  1.1146
   73SLPC  H12X 6494   5.313   5.950   8.811  1.2312  0.4608  1.4390
   73SLPC  H12Y 6495   5.413   6.083   8.784 -0.4511  0.1851 -0.3749
   73SLPC  C313 6496   5.193   6.120   8.746 -0.7882 -0.2175  0.3361
   73SLPC  H13X 6497   5.205   6.230   8.754 -1.5797 -0.2259  2.0771
   73SLPC  H13Y 6498   5.095   6.088   8.788 -0.1993 -1.3931  0.8513
   73SLPC  C314 6499   5.187   6.081   8.602 -0.1238 -0.4524  0.1794
   73SLPC  H14X 6500   5.186   5.970   8.593 -0.3218 -0.4257 -0.1804
   73SLPC  H14Y 6501   5.275   6.120   8.546  1.4278 -2.6356  0.9665
   73SLPC  C315 6502   5.067   6.134   8.514  0.0472  0.0301 -0.4926
   73SLPC  H15X 6503   5.081   6.244   8.517 -1.8028  0.2736  0.0370
   73SLPC  H15Y 6504   4.974   6.101   8.565 -0.8314 -0.1493 -2.1414
   73SLPC  C316 6505   5.066   6.076   8.372  0.4648  0.5514 -0.0560
   73SLPC  H16X 6506   5.041   5.968   8.363 -3.2895  1.3868 -1.1588
   73SLPC  H16Y 6507   5.168   6.094   8.333  0.1356  0.4677 -0.9672
   73SLPC  C317 6508   4.976   6.156   8.279  0.4293  1.1620  0.9790
   73SLPC  H17X 6509   4.990   6.266   8.280 -1.6904  1.4724  1.1454
   73SLPC  H17Y 6510   4.872   6.132   8.310 -0.4427  2.7811 -0.5253
   73SLPC  C318 6511   5.015   6.110   8.136  0.3116  0.3009 -0.8180
   73SLPC  H18X 6512   4.946   6.160   8.064  0.8762 -0.0112 -1.6020
   73SLPC  H18Y 6513   5.001   6.000   8.135 -1.6943  0.4990  0.7581
   73SLPC  H18Z 6514   5.119   6.143   8.114  0.2238  1.6629  0.6608
   74SLPC     N 6515   0.052   6.757  10.441  0.4551 -0.1203 -0.4488
   74SLPC   C13 6516  -0.023   6.839  10.334 -0.4099  0.4006 -0.1185
   74SLPC  H13A 6517   0.035   6.929  10.322 -0.4715  0.6860  1.4831
   74SLPC  H13B 6518  -0.028   6.770  10.251 -0.0940 -1.0203  1.0053
   74SLPC  H13C 6519  -0.125   6.861  10.360 -0.5219  0.2053 -0.3884
   74SLPC   C14 6520  -0.058   6.668  10.491  0.4934 -0.2827  0.6690
   74SLPC  H14A 6521  -0.108   6.619  10.409  2.3044 -1.5560  0.2888
   74SLPC  H14B 6522  -0.017   6.595  10.559  1.0422  0.7718  1.5221
   74SLPC  H14C 6523  -0.122   6.723  10.559 -0.4786  2.1890 -2.0250
   74SLPC   C15 6524   0.099   6.836  10.559  0.3378  0.6098 -0.5840
   74SLPC  H15A 6525   0.021   6.900  10.598  0.2449  1.1136 -1.5776
   74SLPC  H15B 6526   0.113   6.763  10.637  0.6133  0.3712 -0.8606
   74SLPC  H15C 6527   0.191   6.886  10.533 -0.4984  0.1474 -5.3551
   74SLPC   C12 6528   0.167   6.676  10.387  0.0150 -0.0583 -0.3736
   74SLPC  H12A 6529   0.238   6.751  10.356  0.3878 -0.9882 -1.8888
   74SLPC  H12B 6530   0.134   6.628  10.296 -2.4290  0.6114  0.0820
   74SLPC   C11 6531   0.226   6.581  10.491  0.5428  0.1601  0.3445
   74SLPC  H11A 6532   0.261   6.636  10.581  2.1845 -0.6979  0.2671
   74SLPC  H11B 6533   0.323   6.552  10.446 -1.0696 -1.1705 -2.5366
   74SLPC     P 6534   0.150   6.348  10.410 -0.1970 -0.2193 -0.0620
   74SLPC   O13 6535   0.288   6.295  10.429  0.0865 -0.6323 -0.0954
   74SLPC   O14 6536   0.039   6.252  10.436  1.0441  0.0445  0.0483
   74SLPC   O12 6537   0.137   6.467  10.517 -0.9412  0.3813  0.4153
   74SLPC   O11 6538   0.138   6.409  10.265 -0.8131 -0.1149  0.4828
   74SLPC    C1 6539   0.009   6.441  10.220 -0.0756  0.3815 -0.4582
   74SLPC    HA 6540  -0.049   6.346  10.218  3.5037 -1.9924 -1.4341
   74SLPC    HB 6541  -0.034   6.524  10.280  0.1649 -0.8813  1.5407
   74SLPC    C2 6542   0.017   6.488  10.078 -0.1593  0.8097  0.0950
   74SLPC    HS 6543   0.065   6.587  10.073 -2.0930  1.7541 -0.9981
   74SLPC   O21 6544  -0.117   6.492  10.031 -0.4796 -0.5830  0.4603
   74SLPC   C21 6545  -0.186   6.604  10.049 -0.4942 -0.5892  0.0648
   74SLPC   O22 6546  -0.154   6.710  10.098  0.5385 -0.2364  0.5216
   74SLPC   C22 6547  -0.330   6.577  10.004 -0.3419 -0.7225  0.1411
   74SLPC   H2R 6548  -0.348   6.483   9.947 -0.4794  0.2269 -1.4740
   74SLPC   H2S 6549  -0.385   6.552  10.097 -1.0115 -1.1028 -0.3393
   74SLPC    C3 6550   0.094   6.387   9.987 -0.2951 -0.1131 -0.7524
   74SLPC    HX 6551   0.059   6.286  10.018 -2.2706  1.2689  1.9542
   74SLPC    HY 6552   0.200   6.396  10.020 -0.4930 -2.2017  0.6558
   74SLPC   O31 6553   0.094   6.413   9.844 -0.8830  0.5023 -0.1499
   74SLPC   C31 6554   0.190   6.492   9.803  0.0726  0.7032  0.8051
   74SLPC   O32 6555   0.273   6.548   9.869  0.1359  0.5177 -0.6945
   74SLPC   C32 6556   0.187   6.481   9.648  0.0845 -0.6325  0.0156
   74SLPC   H2X 6557   0.090   6.528   9.618  1.0594  1.1859 -0.4691
   74SLPC   H2Y 6558   0.182   6.373   9.623 -0.4321 -1.9319  4.7508
   74SLPC   C23 6559  -0.395   6.691   9.922 -0.1434  0.0551 -0.3416
   74SLPC   H3R 6560  -0.348   6.785   9.958 -1.2045  0.3791  0.2563
   74SLPC   H3S 6561  -0.502   6.688   9.953  0.0097  5.3870  1.6514
   74SLPC   C24 6562  -0.383   6.665   9.772 -0.2881  0.7131  0.3111
   74SLPC   H4R 6563  -0.281   6.625   9.759 -1.0421 -1.7242  1.3118
   74SLPC   H4S 6564  -0.387   6.754   9.705 -0.7041  1.4643  1.3018
   74SLPC   C25 6565  -0.491   6.579   9.714  0.3223 -0.6200  0.2293
   74SLPC   H5R 6566  -0.590   6.617   9.747 -0.0830  1.2597 -2.7700
   74SLPC   H5S 6567  -0.475   6.474   9.748 -0.0480 -1.3012 -1.6158
   74SLPC   C26 6568  -0.496   6.585   9.560 -0.4024  0.4277  0.0411
   74SLPC   H6R 6569  -0.407   6.529   9.525 -1.3973  0.5730 -2.9395
   74SLPC   H6S 6570  -0.489   6.688   9.519 -1.0129  0.0326 -1.0681
   74SLPC   C27 6571  -0.614   6.506   9.503  0.3427  0.0440 -1.0105
   74SLPC   H7R 6572  -0.708   6.559   9.527  0.0389  0.0186 -2.1009
   74SLPC   H7S 6573  -0.615   6.409   9.557 -1.8235  0.5696  0.0071
   74SLPC   C28 6574  -0.613   6.496   9.347 -0.1444 -0.0160 -0.0622
   74SLPC   H8R 6575  -0.699   6.435   9.313 -1.7232  2.5234 -0.8805
   74SLPC   H8S 6576  -0.523   6.432   9.336 -1.0793 -1.2780 -0.6564
   74SLPC   C29 6577  -0.600   6.619   9.264  0.7454  0.4651 -0.3879
   74SLPC   H9R 6578  -0.567   6.701   9.328 -2.1075  1.2231  0.2672
   74SLPC  C210 6579  -0.611   6.631   9.137 -0.7760  0.9833  0.4914
   74SLPC  H10R 6580  -0.573   6.718   9.082  0.7911  0.4480  0.6993
   74SLPC  C211 6581  -0.652   6.518   9.044 -0.8817 -1.2586  0.2108
   74SLPC  H11R 6582  -0.716   6.567   8.967  1.6719  1.1177 -0.5772
   74SLPC  H11S 6583  -0.705   6.428   9.082  1.7321 -2.6047  0.9466
   74SLPC  C212 6584  -0.526   6.461   8.987 -0.2485  0.6779 -0.2733
   74SLPC  H12R 6585  -0.454   6.421   9.060  1.4306  2.1656 -1.0190
   74SLPC  C213 6586  -0.485   6.464   8.858  0.3654  0.1260 -0.6739
   74SLPC  H13R 6587  -0.384   6.430   8.833  0.8489 -0.2126  1.4780
   74SLPC  C214 6588  -0.573   6.525   8.748  0.5297  0.3025 -0.3679
   74SLPC  H14R 6589  -0.524   6.621   8.719 -1.6869  1.5072 -0.3476
   74SLPC  H14S 6590  -0.673   6.556   8.783  1.7518  2.0318  1.8688
   74SLPC  C215 6591  -0.579   6.426   8.633 -0.5033  0.4844  0.4391
   74SLPC  H15R 6592  -0.651   6.345   8.654 -0.7407  0.2000 -1.3032
   74SLPC  H15S 6593  -0.480   6.378   8.615  0.5303  2.5499  0.2928
   74SLPC  C216 6594  -0.630   6.504   8.517  0.2914  0.2581 -0.2073
   74SLPC  H16R 6595  -0.554   6.571   8.471  1.1467 -1.2753 -1.1146
   74SLPC  H16S 6596  -0.716   6.569   8.544 -1.9434 -2.6215  0.1075
   74SLPC  C217 6597  -0.673   6.424   8.395 -0.1468 -0.0976  0.4024
   74SLPC  H17R 6598  -0.750   6.348   8.421 -0.2764 -0.6264 -1.4448
   74SLPC  H17S 6599  -0.584   6.362   8.370 -0.2162 -0.2859  0.6153
   74SLPC  C218 6600  -0.724   6.501   8.279 -0.2191 -0.2605 -0.7408
   74SLPC  H18R 6601  -0.789   6.433   8.219 -0.7895  0.5496 -1.0613
   74SLPC  H18S 6602  -0.648   6.540   8.209 -0.0527 -0.1074 -0.4763
   74SLPC  H18T 6603  -0.780   6.584   8.328  0.4633 -0.1711 -0.1076
   74SLPC   C33 6604   0.305   6.542   9.588  0.0760 -0.2825  0.2118
   74SLPC   H3X 6605   0.384   6.465   9.579 -0.8287 -1.0612 -1.5052
   74SLPC   H3Y 6606   0.327   6.626   9.658 -0.3669 -0.3792  0.4705
   74SLPC   C34 6607   0.276   6.584   9.447  0.0233 -0.7053 -0.5558
   74SLPC   H4X 6608   0.172   6.623   9.448  0.3775  0.4108  2.5262
   74SLPC   H4Y 6609   0.284   6.493   9.383  1.9494 -1.2035  0.3251
   74SLPC   C35 6610   0.380   6.684   9.403  0.1028 -0.2500  0.2114
   74SLPC   H5X 6611   0.478   6.631   9.405 -0.4219 -1.2626 -0.1040
   74SLPC   H5Y 6612   0.384   6.781   9.456  0.4948  0.2971 -0.7868
   74SLPC   C36 6613   0.353   6.738   9.258 -0.1142 -0.0080 -0.7586
   74SLPC   H6X 6614   0.424   6.818   9.228  1.4382 -1.0426  0.0481
   74SLPC   H6Y 6615   0.248   6.775   9.263  0.0155  0.2224  1.2741
   74SLPC   C37 6616   0.351   6.634   9.151 -0.3596 -0.2987  0.2597
   74SLPC   H7X 6617   0.269   6.560   9.164 -0.0628 -0.2691  2.6855
   74SLPC   H7Y 6618   0.449   6.584   9.168  0.6993  1.3374 -0.7400
   74SLPC   C38 6619   0.367   6.692   9.014  0.0393 -0.4347  0.5791
   74SLPC   H8X 6620   0.458   6.755   9.026 -0.4964  0.3561  0.5735
   74SLPC   H8Y 6621   0.287   6.763   8.984  0.1946 -0.5745 -0.1864
   74SLPC   C39 6622   0.368   6.583   8.903 -0.0400 -0.1222  0.6899
   74SLPC   H9X 6623   0.269   6.534   8.915 -0.4632  0.6809  0.5542
   74SLPC   H9Y 6624   0.437   6.501   8.934 -0.2295 -0.8478 -0.7295
   74SLPC  C310 6625   0.399   6.625   8.766  0.2425 -0.2765  0.2949
   74SLPC  H10X 6626   0.501   6.669   8.755  1.1564 -1.4641  3.0270
   74SLPC  H10Y 6627   0.327   6.703   8.734 -1.2529 -0.5857  2.6649
   74SLPC  C311 6628   0.395   6.514   8.652 -0.1583  0.4217 -0.3509
   74SLPC  H11X 6629   0.290   6.479   8.646 -0.5055  1.3167  0.3410
   74SLPC  H11Y 6630   0.452   6.428   8.694  2.0861  0.7037 -2.5877
   74SLPC  C312 6631   0.458   6.562   8.518  0.0814 -0.0214 -0.1537
   74SLPC  H12X 6632   0.515   6.482   8.465  1.9865 -0.4713  2.3949
   74SLPC  H12Y 6633   0.535   6.638   8.543 -1.6405  2.5675 -2.2453
   74SLPC  C313 6634   0.361   6.647   8.433  0.4730 -0.1847 -0.2698
   74SLPC  H13X 6635   0.422   6.691   8.351 -1.4529  2.3375 -0.4873
   74SLPC  H13Y 6636   0.335   6.735   8.496  2.6352  0.5349 -0.3239
   74SLPC  C314 6637   0.251   6.558   8.374  0.1874 -0.4636 -0.1691
   74SLPC  H14X 6638   0.194   6.626   8.307  1.1889  1.4177  0.8086
   74SLPC  H14Y 6639   0.177   6.532   8.453 -0.0336  0.1591 -0.1683
   74SLPC  C315 6640   0.296   6.437   8.297  0.1397  0.4353 -0.2901
   74SLPC  H15X 6641   0.198   6.385   8.289 -0.7766  1.9982  0.3423
   74SLPC  H15Y 6642   0.371   6.371   8.346  0.4833  1.3360  0.4150
   74SLPC  C316 6643   0.360   6.478   8.167 -0.2963  0.4096 -1.4251
   74SLPC  H16X 6644   0.467   6.509   8.176 -0.1587  0.1476 -2.0491
   74SLPC  H16Y 6645   0.304   6.566   8.131 -2.4131  0.2603  1.2343
   74SLPC  C317 6646   0.355   6.377   8.049 -0.1863  0.6348 -0.6478
   74SLPC  H17X 6647   0.249   6.348   8.032 -0.1326 -0.1801  0.2675
   74SLPC  H17Y 6648   0.409   6.284   8.077 -0.5732  0.5853 -0.0411
   74SLPC  C318 6649   0.413   6.423   7.920 -0.6660 -0.1977 -0.4270
   74SLPC  H18X 6650   0.428   6.338   7.850 -1.7501  0.7485 -1.8737
   74SLPC  H18Y 6651   0.502   6.485   7.942 -2.2029  1.0594  2.8955
   74SLPC  H18Z 6652   0.328   6.476   7.871 -2.6267 -2.2368  0.5842
   75SLPC     N 6653   6.068   3.205   6.185 -0.3108  0.6749 -0.3996
   75SLPC   C13 6654   5.965   3.163   6.086  0.0012  0.5356 -0.3637
   75SLPC  H13A 6655   6.001   3.180   5.986  0.9112 -0.8956 -0.3177
   75SLPC  H13B 6656   5.932   3.061   6.099  0.6164  0.4667  0.7822
   75SLPC  H13C 6657   5.873   3.218   6.095 -0.2641  0.4666 -2.2025
   75SLPC   C14 6658   6.113   3.340   6.161  0.1174  0.3646  0.0876
   75SLPC  H14A 6659   6.181   3.366   6.240  1.5795 -1.0755 -0.6556
   75SLPC  H14B 6660   6.150   3.343   6.060 -2.7431 -0.0067 -1.0819
   75SLPC  H14C 6661   6.029   3.409   6.168 -0.3239  0.1490 -2.2525
   75SLPC   C15 6662   6.183   3.116   6.172 -0.2002 -0.6036  0.3295
   75SLPC  H15A 6663   6.220   3.122   6.071 -1.2096  2.0505  0.0264
   75SLPC  H15B 6664   6.253   3.145   6.249 -0.9144 -1.1033  1.1854
   75SLPC  H15C 6665   6.162   3.013   6.197  4.2231 -1.1974  2.5927
   75SLPC   C12 6666   6.007   3.206   6.322  0.0813  0.2494 -0.3789
   75SLPC  H12A 6667   5.927   3.278   6.330  1.2836  1.6571 -0.7098
   75SLPC  H12B 6668   6.079   3.244   6.392 -1.1463 -0.7593  1.5146
   75SLPC   C11 6669   5.945   3.076   6.388 -0.1630 -0.1412  0.0804
   75SLPC  H11A 6670   5.859   3.053   6.322 -0.5220 -0.1141  0.5304
   75SLPC  H11B 6671   5.914   3.097   6.493  0.8305  0.7645  0.2060
   75SLPC     P 6672   6.129   2.937   6.499 -0.3056  0.0593  0.2244
   75SLPC   O13 6673   6.214   2.827   6.450 -0.0325 -0.0209 -0.7465
   75SLPC   O14 6674   6.191   3.068   6.547  0.1484  0.8098 -0.1561
   75SLPC   O12 6675   6.031   2.972   6.381  0.1241  0.0434  0.5001
   75SLPC   O11 6676   6.034   2.874   6.615  0.1354 -0.2817  0.3255
   75SLPC    C1 6677   5.920   2.796   6.576 -0.1169  0.5622 -0.0054
   75SLPC    HA 6678   5.826   2.853   6.591 -0.3186  0.4134 -0.6961
   75SLPC    HB 6679   5.920   2.756   6.473  0.7457  0.2891  0.0934
   75SLPC    C2 6680   5.913   2.667   6.665 -0.0371 -0.0513 -0.2799
   75SLPC    HS 6681   5.821   2.604   6.672 -0.5279  0.5974 -0.7545
   75SLPC   O21 6682   5.951   2.700   6.801 -0.2460  0.6414 -0.0552
   75SLPC   C21 6683   5.890   2.793   6.868  0.2974  0.5604  0.3321
   75SLPC   O22 6684   5.783   2.841   6.827 -0.6078 -0.3357  0.0900
   75SLPC   C22 6685   5.970   2.839   6.993  0.1053 -0.1153  0.7206
   75SLPC   H2R 6686   6.060   2.774   6.996  1.9602  2.2939  0.2725
   75SLPC   H2S 6687   6.017   2.939   6.993  1.6769 -0.8175  0.8973
   75SLPC    C3 6688   6.031   2.570   6.605 -0.0996  1.0878 -0.1863
   75SLPC    HX 6689   6.113   2.643   6.624 -0.2251  1.2121 -0.1175
   75SLPC    HY 6690   6.018   2.547   6.497 -1.6060 -0.4211  0.2746
   75SLPC   O31 6691   6.049   2.445   6.682 -0.3155  0.7060 -0.0358
   75SLPC   C31 6692   6.122   2.457   6.787 -0.2359 -0.1990 -0.2192
   75SLPC   O32 6693   6.197   2.548   6.813  0.0906  0.0923 -0.5086
   75SLPC   C32 6694   6.111   2.336   6.879 -0.0950 -0.1209  0.0488
   75SLPC   H2X 6695   6.207   2.323   6.934 -0.3659 -0.4981  0.4384
   75SLPC   H2Y 6696   6.092   2.246   6.816 -2.2211 -0.6237  1.3014
   75SLPC   C23 6697   5.890   2.819   7.133 -0.2733 -0.4619  0.4895
   75SLPC   H3R 6698   5.865   2.711   7.129  0.6072 -0.6405 -1.9309
   75SLPC   H3S 6699   5.796   2.878   7.128  0.3900  0.5216 -1.7499
   75SLPC   C24 6700   5.974   2.853   7.253 -0.9139  0.8078  0.2278
   75SLPC   H4R 6701   5.991   2.962   7.243  2.0954  0.4252  0.3983
   75SLPC   H4S 6702   6.070   2.798   7.249 -1.6769 -0.5642 -3.3191
   75SLPC   C25 6703   5.899   2.806   7.375  0.6655  0.3074  0.1998
   75SLPC   H5R 6704   5.877   2.700   7.350 -1.3573  1.4240 -3.5770
   75SLPC   H5S 6705   5.808   2.869   7.368  1.5674  1.5434 -1.1425
   75SLPC   C26 6706   5.966   2.834   7.508 -0.3938  0.1118  0.0775
   75SLPC   H6R 6707   5.898   2.871   7.588  0.4364 -0.2960  0.9931
   75SLPC   H6S 6708   6.034   2.921   7.492 -0.7524  0.0905 -1.8766
   75SLPC   C27 6709   6.028   2.712   7.572  0.1333  0.8213  0.2830
   75SLPC   H7R 6710   6.114   2.675   7.512  0.1223 -0.1571  0.8419
   75SLPC   H7S 6711   5.955   2.628   7.560  0.5603  0.4492  0.2735
   75SLPC   C28 6712   6.081   2.737   7.709 -0.2309  0.4947 -0.8035
   75SLPC   H8R 6713   6.143   2.828   7.726 -0.2213 -0.0755  3.5445
   75SLPC   H8S 6714   6.142   2.653   7.751 -0.2835  1.0078  0.3476
   75SLPC   C29 6715   5.963   2.743   7.806 -0.4217 -0.7092 -0.0874
   75SLPC   H9R 6716   5.865   2.723   7.761 -0.2694  1.1782 -1.3694
   75SLPC  C210 6717   5.971   2.785   7.940  1.2371 -0.4896  0.8600
   75SLPC  H10R 6718   5.876   2.778   7.995  0.5987 -0.9468 -0.2550
   75SLPC  C211 6719   6.094   2.834   8.011  0.8840 -0.3803  0.7224
   75SLPC  H11R 6720   6.075   2.908   8.091 -1.0949  1.5646 -1.3875
   75SLPC  H11S 6721   6.146   2.891   7.932  0.6672  1.3746  1.8060
   75SLPC  C212 6722   6.183   2.725   8.049 -0.6397  0.2402 -0.7705
   75SLPC  H12R 6723   6.236   2.674   7.967 -0.7113  0.2409 -0.8177
   75SLPC  C213 6724   6.228   2.692   8.175  0.1013 -0.2062  0.5189
   75SLPC  H13R 6725   6.289   2.601   8.187  2.4504  1.4438  1.7406
   75SLPC  C214 6726   6.173   2.760   8.299 -0.2117 -0.1678 -0.7195
   75SLPC  H14R 6727   6.141   2.862   8.269  0.4826 -0.9061 -4.5492
   75SLPC  H14S 6728   6.258   2.781   8.367  0.4740 -1.6802 -1.0675
   75SLPC  C215 6729   6.071   2.673   8.368 -0.2642  0.1939  0.3470
   75SLPC  H15R 6730   6.000   2.631   8.294 -1.4638  1.2472  0.8623
   75SLPC  H15S 6731   6.024   2.743   8.440  0.6143  0.8063  0.3552
   75SLPC  C216 6732   6.135   2.555   8.445  1.1055  1.0761 -0.0910
   75SLPC  H16R 6733   6.206   2.590   8.523  2.3031 -0.6822 -0.3318
   75SLPC  H16S 6734   6.192   2.488   8.377  1.1975  1.0183  0.0425
   75SLPC  C217 6735   6.028   2.470   8.520 -0.0683 -0.0767 -0.1767
   75SLPC  H17R 6736   5.953   2.425   8.451 -1.4762  0.9348  0.6448
   75SLPC  H17S 6737   5.968   2.538   8.583 -1.0463  0.8513 -2.0071
   75SLPC  C218 6738   6.085   2.362   8.610  0.2143 -0.1474  0.6776
   75SLPC  H18R 6739   6.145   2.416   8.687  0.4220  1.9279 -0.8322
   75SLPC  H18S 6740   6.153   2.292   8.557  1.6289  2.0143 -0.5495
   75SLPC  H18T 6741   6.007   2.296   8.653  0.9135 -1.5280 -0.1187
   75SLPC   C33 6742   6.010   2.353   7.000 -0.4373 -0.5704 -0.1148
   75SLPC   H3X 6743   5.910   2.382   6.963 -0.3844 -2.6205 -2.0643
   75SLPC   H3Y 6744   5.998   2.249   7.037  1.2613 -0.7897 -0.0812
   75SLPC   C34 6745   6.063   2.446   7.112  0.3157 -0.2753  0.0392
   75SLPC   H4X 6746   6.081   2.545   7.065  3.0789 -0.3421  0.7860
   75SLPC   H4Y 6747   6.163   2.405   7.139 -0.1777 -1.3814  0.2544
   75SLPC   C35 6748   5.976   2.452   7.233  0.5656  0.0596  0.1841
   75SLPC   H5X 6749   5.870   2.460   7.201  1.0781  0.1198 -1.5848
   75SLPC   H5Y 6750   6.005   2.544   7.288  0.2790  0.1685  0.1538
   75SLPC   C36 6751   5.995   2.339   7.334 -0.6347 -0.0355  0.2216
   75SLPC   H6X 6752   6.095   2.358   7.378 -0.3681 -0.0239 -0.3782
   75SLPC   H6Y 6753   5.994   2.240   7.283 -0.8012 -0.0302  0.2106
   75SLPC   C37 6754   5.889   2.322   7.444 -0.4937  0.1065 -0.2204
   75SLPC   H7X 6755   5.814   2.258   7.393 -0.0005 -0.5862 -0.0730
   75SLPC   H7Y 6756   5.845   2.424   7.458  0.9440  0.5955  0.9089
   75SLPC   C38 6757   5.932   2.257   7.581 -0.1450  0.7232 -0.3950
   75SLPC   H8X 6758   5.983   2.159   7.569  0.1631  0.7709  0.4524
   75SLPC   H8Y 6759   5.845   2.241   7.648  0.8219  0.9743  0.9719
   75SLPC   C39 6760   6.032   2.350   7.655 -0.1454  0.0116  0.2950
   75SLPC   H9X 6761   5.978   2.446   7.670 -0.8146  0.2381 -2.8592
   75SLPC   H9Y 6762   6.117   2.347   7.584 -0.2895 -2.4431  0.1369
   75SLPC  C310 6763   6.081   2.297   7.788 -0.1960 -0.0833 -0.2812
   75SLPC  H10X 6764   6.174   2.350   7.818  0.1687 -0.1596 -1.2438
   75SLPC  H10Y 6765   6.107   2.189   7.779 -0.4388 -0.1384 -0.3463
   75SLPC  C311 6766   5.991   2.308   7.914 -0.0236  0.4844  0.2816
   75SLPC  H11X 6767   5.931   2.402   7.910  1.0684  1.3307  2.3515
   75SLPC  H11Y 6768   6.055   2.313   8.004  1.2441  1.2736 -0.6263
   75SLPC  C312 6769   5.914   2.175   7.935 -0.1731  0.3814  0.5518
   75SLPC  H12X 6770   5.900   2.124   7.837 -0.6093  0.4283  0.5877
   75SLPC  H12Y 6771   5.810   2.203   7.964 -0.0248  0.2125  1.2722
   75SLPC  C313 6772   5.982   2.079   8.031  0.4530  0.1906 -0.0802
   75SLPC  H13X 6773   5.981   2.133   8.128  0.9590  2.8184 -1.4394
   75SLPC  H13Y 6774   6.087   2.057   8.000  0.4175 -1.1972  0.7356
   75SLPC  C314 6775   5.893   1.956   8.062  0.3578 -0.2616  0.4356
   75SLPC  H14X 6776   5.900   1.886   7.975  1.2997  2.0297 -1.4408
   75SLPC  H14Y 6777   5.792   2.001   8.067  1.1792  1.7122 -0.0857
   75SLPC  C315 6778   5.932   1.888   8.189  0.1044 -0.1178 -0.7135
   75SLPC  H15X 6779   5.905   1.969   8.261 -0.7993  2.0938 -3.3641
   75SLPC  H15Y 6780   6.037   1.852   8.185  0.7482  1.6366 -0.5768
   75SLPC  C316 6781   5.841   1.762   8.210 -0.1370  0.5051 -0.1352
   75SLPC  H16X 6782   5.884   1.692   8.285 -0.2576  1.4335  0.8333
   75SLPC  H16Y 6783   5.839   1.709   8.113  1.3504 -2.3473  1.2496
   75SLPC  C317 6784   5.701   1.788   8.267 -0.2076 -0.8319 -0.7152
   75SLPC  H17X 6785   5.658   1.686   8.275 -0.3223 -0.7510 -0.3180
   75SLPC  H17Y 6786   5.649   1.864   8.204 -0.3961 -1.7580 -1.7179
   75SLPC  C318 6787   5.700   1.831   8.413  0.5351 -0.2876  0.4401
   75SLPC  H18X 6788   5.743   1.747   8.473 -0.2511 -1.7345 -0.9384
   75SLPC  H18Y 6789   5.600   1.864   8.446  0.4305  0.2988 -0.4449
   75SLPC  H18Z 6790   5.767   1.920   8.420  1.5357 -0.8831 -0.9676
   76SLPC     N 6791   0.320   0.290   6.043 -0.3418 -0.0658 -0.3625
   76SLPC   C13 6792   0.366   0.180   5.958  0.4799 -0.2087 -0.6097
   76SLPC  H13A 6793   0.292   0.100   5.961 -1.3996  1.4761  1.2995
   76SLPC  H13B 6794   0.379   0.219   5.858 -1.2515  0.0422 -0.7711
   76SLPC  H13C 6795   0.457   0.141   6.000 -0.1282  0.6332  1.6386
   76SLPC   C14 6796   0.275   0.232   6.180  0.6852  0.7788  0.2278
   76SLPC  H14A 6797   0.237   0.310   6.244 -0.5958 -0.4544  1.0385
   76SLPC  H14B 6798   0.198   0.156   6.176  0.8798  0.5507  0.7322
   76SLPC  H14C 6799   0.357   0.185   6.232 -1.2592 -1.4976  1.4790
   76SLPC   C15 6800   0.199   0.356   5.971 -0.9145  0.2481 -0.6772
   76SLPC  H15A 6801   0.117   0.289   5.953 -2.1227  0.8359  2.0402
   76SLPC  H15B 6802   0.160   0.435   6.034  0.4801  0.5526 -0.1632
   76SLPC  H15C 6803   0.235   0.400   5.879  0.8507  1.4257  0.5115
   76SLPC   C12 6804   0.438   0.381   6.066  0.0980  1.0732 -0.4142
   76SLPC  H12A 6805   0.429   0.447   6.151  1.9276 -0.6292  1.2033
   76SLPC  H12B 6806   0.441   0.449   5.982 -0.8491  1.5173 -0.0976
   76SLPC   C11 6807   0.581   0.316   6.080  0.4183  0.2568 -0.3034
   76SLPC  H11A 6808   0.636   0.391   6.141  1.3401  0.1477 -0.9907
   76SLPC  H11B 6809   0.632   0.330   5.983 -0.6242  0.4459 -0.8420
   76SLPC     P 6810   0.669   0.164   6.272 -0.1622  0.5743  0.2898
   76SLPC   O13 6811   0.652   0.026   6.319 -0.1469  0.1780  0.3739
   76SLPC   O14 6812   0.810   0.206   6.259  0.0185 -0.2717 -0.6471
   76SLPC   O12 6813   0.589   0.187   6.138 -0.1106  0.0345  0.2274
   76SLPC   O11 6814   0.589   0.249   6.371 -0.2434  0.2750  0.0574
   76SLPC    C1 6815   0.650   0.361   6.443 -0.2995 -0.6936 -0.0129
   76SLPC    HA 6816   0.710   0.426   6.377  0.3165  1.4364  2.4953
   76SLPC    HB 6817   0.575   0.432   6.485 -0.3548 -0.4252 -0.5586
   76SLPC    C2 6818   0.742   0.311   6.560 -0.9855  0.1598  0.3467
   76SLPC    HS 6819   0.830   0.262   6.514  0.6628  3.1398  0.0464
   76SLPC   O21 6820   0.665   0.226   6.648  0.9111  0.3863 -0.6566
   76SLPC   C21 6821   0.740   0.128   6.702 -0.1332 -0.7605  0.9637
   76SLPC   O22 6822   0.849   0.091   6.664  0.6250 -0.4347  0.6674
   76SLPC   C22 6823   0.673   0.066   6.821  0.2150  0.1840 -0.1858
   76SLPC   H2R 6824   0.637   0.143   6.892  3.2323  2.2196 -0.6512
   76SLPC   H2S 6825   0.591   0.001   6.785 -0.1704 -0.2576  1.4312
   76SLPC    C3 6826   0.810   0.432   6.637  0.1648  0.5923  0.0841
   76SLPC    HX 6827   0.721   0.482   6.681  1.0468 -0.8235  3.9360
   76SLPC    HY 6828   0.845   0.510   6.567  1.6546  1.0782  1.3096
   76SLPC   O31 6829   0.912   0.388   6.730 -0.2264  0.0870 -0.6272
   76SLPC   C31 6830   1.041   0.382   6.688  0.3407  0.4760  0.5784
   76SLPC   O32 6831   1.083   0.400   6.576  0.9911  0.4203  0.1093
   76SLPC   C32 6832   1.129   0.340   6.800 -0.1745 -0.1232 -0.2812
   76SLPC   H2X 6833   1.218   0.407   6.800 -0.1803 -0.1170 -0.4104
   76SLPC   H2Y 6834   1.165   0.238   6.775 -0.8568 -0.4691  0.1132
   76SLPC   C23 6835   0.770  -0.023   6.905  0.6993 -0.0398 -0.0773
   76SLPC   H3R 6836   0.871   0.018   6.924  0.4290  0.5631  0.0669
   76SLPC   H3S 6837   0.780  -0.112   6.839  0.3779 -0.0807 -0.0725
   76SLPC   C24 6838   0.700  -0.062   7.038 -0.2493 -0.4552 -0.1621
   76SLPC   H4R 6839   0.590  -0.068   7.023 -0.2198  0.8397 -1.0583
   76SLPC   H4S 6840   0.718   0.018   7.114  0.0628 -0.0772 -0.6334
   76SLPC   C25 6841   0.763  -0.194   7.099 -0.1864 -0.2773 -0.6420
   76SLPC   H5R 6842   0.816  -0.243   7.015  4.4404  1.3316  1.0208
   76SLPC   H5S 6843   0.686  -0.267   7.133  0.7906 -0.7670  0.5512
   76SLPC   C26 6844   0.863  -0.162   7.206  0.1158  0.3904 -0.8643
   76SLPC   H6R 6845   0.826  -0.080   7.271 -1.4740  0.8763 -2.3116
   76SLPC   H6S 6846   0.955  -0.119   7.162  0.3027 -0.6698 -1.5449
   76SLPC   C27 6847   0.910  -0.277   7.297 -0.2479 -0.2369 -0.1844
   76SLPC   H7R 6848   0.974  -0.232   7.376 -0.1810  2.3738 -1.6111
   76SLPC   H7S 6849   0.978  -0.340   7.236  0.9398 -0.7067  1.5556
   76SLPC   C28 6850   0.806  -0.370   7.360  0.1162  0.0734  0.2138
   76SLPC   H8R 6851   0.741  -0.397   7.274 -1.4790  2.0138  0.7487
   76SLPC   H8S 6852   0.864  -0.459   7.393  1.2591  0.7630  0.1221
   76SLPC   C29 6853   0.731  -0.296   7.467  0.2094  0.0121 -0.9379
   76SLPC   H9R 6854   0.707  -0.192   7.442  0.0025  0.4215  0.8442
   76SLPC  C210 6855   0.716  -0.342   7.593  0.7009  0.4882 -0.0561
   76SLPC  H10R 6856   0.654  -0.291   7.668  1.2558 -0.4290  1.0641
   76SLPC  C211 6857   0.765  -0.477   7.644  0.2407 -0.0107  0.2448
   76SLPC  H11R 6858   0.779  -0.544   7.557  0.5742 -0.5920  0.7341
   76SLPC  H11S 6859   0.695  -0.532   7.710 -1.2043 -0.1579 -1.3547
   76SLPC  C212 6860   0.895  -0.456   7.722  0.0681 -0.2467  0.1298
   76SLPC  H12R 6861   0.966  -0.386   7.675  2.5576 -1.3388  2.0107
   76SLPC  C213 6862   0.940  -0.497   7.844 -0.1378 -0.6065  0.3683
   76SLPC  H13R 6863   1.046  -0.477   7.866  0.1674 -1.3215 -0.3921
   76SLPC  C214 6864   0.877  -0.575   7.947  0.0481  0.7520  0.2216
   76SLPC  H14R 6865   0.940  -0.663   7.972  0.0845  0.6168 -0.3224
   76SLPC  H14S 6866   0.780  -0.616   7.913 -0.2133  3.3627 -2.5841
   76SLPC  C215 6867   0.845  -0.507   8.078  0.3953  0.6365 -0.2292
   76SLPC  H15R 6868   0.798  -0.408   8.064  1.3079  1.5335  2.4093
   76SLPC  H15S 6869   0.941  -0.496   8.133  0.4881 -1.6966  0.2169
   76SLPC  C216 6870   0.742  -0.584   8.166  0.5529 -0.2414 -0.3585
   76SLPC  H16R 6871   0.703  -0.675   8.116 -1.6058  1.2067 -1.4838
   76SLPC  H16S 6872   0.665  -0.507   8.188  2.0329  1.1185  0.2579
   76SLPC  C217 6873   0.796  -0.629   8.299  1.1441 -0.8956  0.0645
   76SLPC  H17R 6874   0.827  -0.538   8.354 -3.4034  1.2912 -0.5592
   76SLPC  H17S 6875   0.895  -0.677   8.281  0.6748 -1.6215 -0.6599
   76SLPC  C218 6876   0.698  -0.709   8.379  0.6738  0.0640 -0.6419
   76SLPC  H18R 6877   0.747  -0.746   8.472  0.8628 -0.5247 -0.9728
   76SLPC  H18S 6878   0.654  -0.790   8.316 -1.3851  0.9138 -0.3913
   76SLPC  H18T 6879   0.615  -0.645   8.417  1.8864  0.8232  0.8410
   76SLPC   C33 6880   1.057   0.362   6.936 -0.6806  0.1522 -0.4719
   76SLPC   H3X 6881   0.975   0.289   6.949  1.5922 -2.2450  1.6036
   76SLPC   H3Y 6882   1.012   0.463   6.941 -0.4998  0.1737  1.5358
   76SLPC   C34 6883   1.148   0.341   7.059  0.1721 -0.3729  0.0756
   76SLPC   H4X 6884   1.088   0.374   7.146  1.6482 -2.1699  1.8975
   76SLPC   H4Y 6885   1.240   0.403   7.051 -0.8521  1.0011 -2.2742
   76SLPC   C35 6886   1.192   0.197   7.069 -0.8690  0.9264 -0.4231
   76SLPC   H5X 6887   1.263   0.184   6.985  0.5418 -1.5010  1.0342
   76SLPC   H5Y 6888   1.104   0.129   7.067 -0.4649  0.2428  1.9043
   76SLPC   C36 6889   1.269   0.164   7.205  0.1222  0.7668 -0.3621
   76SLPC   H6X 6890   1.369   0.211   7.207  0.5757 -0.1954  0.9715
   76SLPC   H6Y 6891   1.291   0.055   7.203 -1.0876  0.4618  1.1752
   76SLPC   C37 6892   1.197   0.196   7.334 -0.5616  0.4434 -0.2892
   76SLPC   H7X 6893   1.113   0.124   7.351  0.8433 -1.5581 -1.4173
   76SLPC   H7Y 6894   1.163   0.302   7.342 -1.2490  0.1313  1.6858
   76SLPC   C38 6895   1.291   0.165   7.457 -0.0879 -0.9687  1.2827
   76SLPC   H8X 6896   1.298   0.054   7.456 -0.6078 -1.0041  0.3983
   76SLPC   H8Y 6897   1.237   0.207   7.545 -0.6602  2.3032 -0.4605
   76SLPC   C39 6898   1.425   0.230   7.444  0.1934 -0.1061  0.5823
   76SLPC   H9X 6899   1.412   0.336   7.416 -0.5333 -0.5465 -0.8496
   76SLPC   H9Y 6900   1.487   0.184   7.364 -0.0774  1.5141 -0.6119
   76SLPC  C310 6901   1.502   0.238   7.569 -0.3605 -0.5975 -0.1268
   76SLPC  H10X 6902   1.443   0.305   7.635  0.2329 -0.7796  0.6034
   76SLPC  H10Y 6903   1.595   0.287   7.532 -1.3163 -1.3413 -3.9076
   76SLPC  C311 6904   1.520   0.099   7.632 -0.8919  0.4658 -0.0849
   76SLPC  H11X 6905   1.555   0.023   7.559 -0.9820 -0.2301  0.5911
   76SLPC  H11Y 6906   1.422   0.060   7.667  0.3232 -0.9253  1.9524
   76SLPC  C312 6907   1.614   0.115   7.757  0.4723  0.4133 -0.3827
   76SLPC  H12X 6908   1.717   0.150   7.735  1.4210 -1.7205  0.3663
   76SLPC  H12Y 6909   1.634   0.013   7.796  3.3758  1.5045  1.3429
   76SLPC  C313 6910   1.541   0.188   7.877  0.2427  0.1019 -0.1968
   76SLPC  H13X 6911   1.432   0.166   7.878  0.6980 -2.6676  2.7466
   76SLPC  H13Y 6912   1.554   0.297   7.856 -1.3139  0.0319 -1.7062
   76SLPC  C314 6913   1.596   0.140   8.014 -0.7787  0.1758 -0.0397
   76SLPC  H14X 6914   1.696   0.179   8.040  0.0066 -1.8306  0.1112
   76SLPC  H14Y 6915   1.601   0.029   8.011  0.4221  0.2117  0.2379
   76SLPC  C315 6916   1.505   0.174   8.135 -0.3870  0.4029 -0.4330
   76SLPC  H15X 6917   1.407   0.122   8.129  0.2926 -0.9876  0.0862
   76SLPC  H15Y 6918   1.502   0.285   8.135 -0.4866  0.4150 -1.6734
   76SLPC  C316 6919   1.569   0.125   8.258 -0.8662 -0.0505 -0.3828
   76SLPC  H16X 6920   1.661   0.185   8.271  0.2709 -1.4878 -1.5197
   76SLPC  H16Y 6921   1.608   0.022   8.243 -0.0015 -0.0419  1.5943
   76SLPC  C317 6922   1.471   0.142   8.373 -0.1429 -0.3339  0.1710
   76SLPC  H17X 6923   1.479   0.049   8.434  0.0963 -0.4583 -0.0481
   76SLPC  H17Y 6924   1.367   0.145   8.335  1.0278  2.5135 -3.3264
   76SLPC  C318 6925   1.491   0.270   8.449  0.1010 -0.4050  0.8432
   76SLPC  H18X 6926   1.455   0.358   8.391 -1.2952 -0.0238  2.1968
   76SLPC  H18Y 6927   1.593   0.295   8.483  0.6509 -0.9948 -0.3269
   76SLPC  H18Z 6928   1.426   0.261   8.539 -0.9964  1.0499  0.2309
   77SLPC     N 6929   1.712   1.474   5.905  0.3150 -1.1210  0.3161
   77SLPC   C13 6930   1.854   1.433   5.927  0.3917  1.0813  0.0344
   77SLPC  H13A 6931   1.849   1.338   5.978  0.3177  1.1886  0.2301
   77SLPC  H13B 6932   1.923   1.415   5.845  1.0655 -1.9640  1.1157
   77SLPC  H13C 6933   1.898   1.503   5.997 -1.5040  1.3046  1.0690
   77SLPC   C14 6934   1.659   1.396   5.794 -0.4841 -0.2563  1.0451
   77SLPC  H14A 6935   1.706   1.422   5.700 -2.5256 -1.0139 -0.2438
   77SLPC  H14B 6936   1.653   1.289   5.811  2.7740 -0.8354 -0.6719
   77SLPC  H14C 6937   1.558   1.429   5.778  0.5452  2.1377 -1.3470
   77SLPC   C15 6938   1.702   1.622   5.863  0.0194 -0.1790 -0.4869
   77SLPC  H15A 6939   1.742   1.631   5.763 -3.2494 -0.7809 -1.9769
   77SLPC  H15B 6940   1.599   1.648   5.845 -0.1807 -1.7138 -1.8093
   77SLPC  H15C 6941   1.750   1.693   5.929  1.8569 -0.7761 -1.1222
   77SLPC   C12 6942   1.635   1.457   6.037 -0.0456 -0.1708  0.7681
   77SLPC  H12A 6943   1.633   1.349   6.049  1.2146 -0.1135  1.7203
   77SLPC  H12B 6944   1.536   1.495   6.018  0.0149  1.2074  2.8455
   77SLPC   C11 6945   1.692   1.525   6.172  0.4518 -0.1973  0.5512
   77SLPC  H11A 6946   1.620   1.517   6.255  2.0510  0.0501  2.0097
   77SLPC  H11B 6947   1.716   1.632   6.151  0.0772 -0.5785 -2.3546
   77SLPC     P 6948   1.816   1.321   6.264 -0.5100 -0.0107  0.0918
   77SLPC   O13 6949   1.724   1.251   6.171 -0.2317  0.2766 -0.5998
   77SLPC   O14 6950   1.956   1.283   6.255 -0.4906 -0.3333  0.0885
   77SLPC   O12 6951   1.815   1.469   6.221 -0.2699 -0.0804 -0.2148
   77SLPC   O11 6952   1.757   1.315   6.412 -0.4038 -0.5415  0.8894
   77SLPC    C1 6953   1.784   1.403   6.525 -0.0725 -0.2314  0.0502
   77SLPC    HA 6954   1.790   1.506   6.483 -0.1894 -0.7551 -1.2985
   77SLPC    HB 6955   1.701   1.401   6.599 -1.4426 -0.6186 -1.4519
   77SLPC    C2 6956   1.919   1.365   6.599  0.0218 -0.4110 -0.0139
   77SLPC    HS 6957   1.993   1.368   6.516 -0.4116  3.7067 -0.4436
   77SLPC   O21 6958   1.900   1.244   6.671 -0.5071  0.1084 -0.6606
   77SLPC   C21 6959   2.010   1.178   6.698 -0.0441  0.1967 -0.1115
   77SLPC   O22 6960   2.117   1.208   6.647 -0.2612 -0.4949  0.1386
   77SLPC   C22 6961   1.984   1.074   6.805 -0.6569  0.4529 -0.3953
   77SLPC   H2R 6962   1.878   1.041   6.801 -0.4499 -0.6942  1.9307
   77SLPC   H2S 6963   2.061   0.996   6.787  0.1840  1.0404  0.5498
   77SLPC    C3 6964   1.961   1.483   6.696  0.2828  0.4976 -0.6553
   77SLPC    HX 6965   1.960   1.585   6.650  1.8749 -0.1398 -2.2269
   77SLPC    HY 6966   2.068   1.459   6.715  0.6198  0.0306 -2.8714
   77SLPC   O31 6967   1.873   1.478   6.810  0.3483 -0.1799  0.4631
   77SLPC   C31 6968   1.911   1.569   6.903 -0.8420 -0.6144  0.1016
   77SLPC   O32 6969   2.018   1.629   6.900 -0.1565  0.2714 -0.5294
   77SLPC   C32 6970   1.808   1.580   7.014 -0.3693  0.7430  0.5951
   77SLPC   H2X 6971   1.751   1.486   7.032  1.1999 -0.2850  0.4144
   77SLPC   H2Y 6972   1.737   1.650   6.965  0.8062  0.3117 -1.8383
   77SLPC   C23 6973   2.017   1.132   6.948  0.6761  0.0657  0.1482
   77SLPC   H3R 6974   1.952   1.220   6.966  0.0746 -0.6519  1.6963
   77SLPC   H3S 6975   2.122   1.165   6.938  0.9130 -0.9958 -1.2670
   77SLPC   C24 6976   2.005   1.026   7.053  0.0081 -0.0145  0.1409
   77SLPC   H4R 6977   2.068   0.937   7.033 -0.7029 -0.6614  0.7200
   77SLPC   H4S 6978   1.905   0.979   7.066  0.3383 -0.2476  2.2772
   77SLPC   C25 6979   2.053   1.085   7.190  0.5699  0.4107  0.1762
   77SLPC   H5R 6980   1.991   1.172   7.221  0.2492 -0.8658  3.5364
   77SLPC   H5S 6981   2.160   1.113   7.184  0.7377 -0.1498  0.4407
   77SLPC   C26 6982   2.031   0.985   7.306 -0.1804  0.5556 -0.0586
   77SLPC   H6R 6983   2.102   0.903   7.286  1.0693  0.7988  2.9962
   77SLPC   H6S 6984   1.926   0.947   7.303  0.8541 -2.7544 -4.0338
   77SLPC   C27 6985   2.068   1.043   7.439  0.2110  0.6116  0.3549
   77SLPC   H7R 6986   2.018   1.140   7.457 -0.7190 -0.2434  2.8588
   77SLPC   H7S 6987   2.175   1.073   7.435 -0.1667  2.0654  0.7665
   77SLPC   C28 6988   2.054   0.953   7.561 -0.8205 -0.1939 -0.1513
   77SLPC   H8R 6989   2.116   0.862   7.544  1.1220  1.0025  0.1834
   77SLPC   H8S 6990   1.949   0.919   7.575 -0.2550 -1.2787  1.8410
   77SLPC   C29 6991   2.121   1.028   7.676 -0.3715 -0.1995  0.6965
   77SLPC   H9R 6992   2.168   1.126   7.662 -0.7883  0.3177  2.6790
   77SLPC  C210 6993   2.112   0.988   7.806 -0.1808  0.2958 -0.2699
   77SLPC  H10R 6994   2.158   1.048   7.886  0.5083 -0.0652 -0.3912
   77SLPC  C211 6995   2.052   0.860   7.858  0.2991 -0.2339 -0.0063
   77SLPC  H11R 6996   1.986   0.817   7.781 -2.3090 -2.4946  3.2223
   77SLPC  H11S 6997   1.972   0.872   7.934  0.5012 -1.4387  0.4221
   77SLPC  C212 6998   2.147   0.754   7.908 -0.1699 -0.6142  0.3325
   77SLPC  H12R 6999   2.170   0.673   7.837 -2.9323 -1.4265  0.2376
   77SLPC  C213 7000   2.203   0.747   8.031  0.1859 -0.1172 -0.0713
   77SLPC  H13R 7001   2.272   0.664   8.049 -1.3215 -1.6319 -0.9722
   77SLPC  C214 7002   2.190   0.852   8.142  0.6311  1.0033 -0.3785
   77SLPC  H14R 7003   2.123   0.935   8.112  0.0135  0.5610 -0.2314
   77SLPC  H14S 7004   2.283   0.913   8.147  1.3837  0.2222 -3.2638
   77SLPC  C215 7005   2.159   0.796   8.282  0.2070 -0.2857  0.0778
   77SLPC  H15R 7006   2.061   0.747   8.264 -1.1907  3.1156 -2.7097
   77SLPC  H15S 7007   2.140   0.876   8.357 -1.4198 -1.6031  1.1247
   77SLPC  C216 7008   2.270   0.708   8.347 -0.0977 -0.4105 -0.0811
   77SLPC  H16R 7009   2.360   0.771   8.328  0.9775 -1.5491  1.0343
   77SLPC  H16S 7010   2.284   0.606   8.305  1.1564 -1.6793  3.1106
   77SLPC  C217 7011   2.241   0.680   8.497 -0.0604 -0.1593 -0.1997
   77SLPC  H17R 7012   2.157   0.607   8.499 -0.4096  0.2493  1.2858
   77SLPC  H17S 7013   2.216   0.769   8.559 -1.4729 -0.5852 -0.1210
   77SLPC  C218 7014   2.354   0.605   8.563 -0.0750  0.0201 -0.8255
   77SLPC  H18R 7015   2.357   0.502   8.522 -0.0340  0.0225 -0.8272
   77SLPC  H18S 7016   2.323   0.592   8.669 -0.8405 -0.6928 -1.1297
   77SLPC  H18T 7017   2.454   0.654   8.556  0.6055 -0.8421  1.6908
   77SLPC   C33 7018   1.867   1.628   7.145 -0.8291  0.1914  0.2193
   77SLPC   H3X 7019   1.778   1.662   7.203 -0.3024 -1.1639  1.8775
   77SLPC   H3Y 7020   1.941   1.710   7.136  0.9077 -1.4066 -0.7116
   77SLPC   C34 7021   1.931   1.509   7.228  0.4351  0.3624  0.5879
   77SLPC   H4X 7022   2.041   1.516   7.212  0.2875 -0.5485 -1.1357
   77SLPC   H4Y 7023   1.897   1.414   7.180  0.4337  0.0397  1.2189
   77SLPC   C35 7024   1.884   1.513   7.370  0.0734 -0.3910  0.1569
   77SLPC   H5X 7025   1.882   1.614   7.417  1.1535  0.7580 -2.1549
   77SLPC   H5Y 7026   1.957   1.450   7.426  2.5013  2.0510 -0.0771
   77SLPC   C36 7027   1.746   1.455   7.395  0.4759  0.2334  0.5997
   77SLPC   H6X 7028   1.727   1.360   7.339 -1.2848  0.9589 -0.1017
   77SLPC   H6Y 7029   1.676   1.530   7.353  1.4724  0.1973 -1.2286
   77SLPC   C37 7030   1.717   1.421   7.542 -0.6017  0.0589 -0.3190
   77SLPC   H7X 7031   1.606   1.420   7.552 -0.5731 -1.8798  0.1617
   77SLPC   H7Y 7032   1.753   1.507   7.602  0.1612 -0.8198  0.5059
   77SLPC   C38 7033   1.777   1.291   7.585 -0.2155  0.0805  0.3067
   77SLPC   H8X 7034   1.887   1.305   7.586 -0.1715  0.0475 -1.3583
   77SLPC   H8Y 7035   1.759   1.226   7.497 -0.4380  0.6977 -0.1105
   77SLPC   C39 7036   1.725   1.242   7.722  0.2931 -0.3531 -0.5999
   77SLPC   H9X 7037   1.792   1.154   7.732  3.2048  1.8042 -0.0188
   77SLPC   H9Y 7038   1.617   1.215   7.712  0.9063 -2.8163 -1.1064
   77SLPC  C310 7039   1.739   1.341   7.842  0.3875  0.4927  0.5246
   77SLPC  H10X 7040   1.698   1.441   7.817  2.4258  1.5916  1.3064
   77SLPC  H10Y 7041   1.848   1.348   7.866  1.0227 -0.5755 -1.8150
   77SLPC  C311 7042   1.656   1.292   7.959  0.5803 -0.2295 -0.8612
   77SLPC  H11X 7043   1.685   1.189   7.988  2.8176  0.8067  0.9498
   77SLPC  H11Y 7044   1.549   1.306   7.934 -0.3251 -1.4115  1.9191
   77SLPC  C312 7045   1.684   1.367   8.092 -0.3031 -0.2094 -0.3925
   77SLPC  H12X 7046   1.792   1.369   8.115 -0.0612  0.3188 -1.4993
   77SLPC  H12Y 7047   1.632   1.319   8.178  0.7448  0.6032  0.7141
   77SLPC  C313 7048   1.633   1.508   8.080 -0.0879 -0.6843  0.2370
   77SLPC  H13X 7049   1.535   1.529   8.033  0.5483  2.5887  0.1188
   77SLPC  H13Y 7050   1.707   1.561   8.016 -2.0388  1.2684 -0.5343
   77SLPC  C314 7051   1.626   1.586   8.217 -0.3059 -0.9009 -0.5582
   77SLPC  H14X 7052   1.604   1.690   8.185  4.3361  0.6968  0.6122
   77SLPC  H14Y 7053   1.726   1.599   8.265 -0.9403  4.5215 -0.1628
   77SLPC  C315 7054   1.511   1.529   8.297 -0.2228 -0.2438  0.0648
   77SLPC  H15X 7055   1.521   1.418   8.305 -1.3928 -0.4727 -1.2082
   77SLPC  H15Y 7056   1.415   1.537   8.242 -1.0261  0.7538  1.5421
   77SLPC  C316 7057   1.499   1.592   8.437  0.0599  0.5818 -0.6268
   77SLPC  H16X 7058   1.606   1.603   8.464  0.6177  1.2575 -2.8541
   77SLPC  H16Y 7059   1.455   1.512   8.501 -1.0606  1.8654  0.2434
   77SLPC  C317 7060   1.408   1.707   8.436 -0.1840 -0.5641 -0.4789
   77SLPC  H17X 7061   1.325   1.670   8.372 -0.0405  0.8888 -1.5290
   77SLPC  H17Y 7062   1.458   1.788   8.381 -0.4669 -0.2044 -0.2183
   77SLPC  C318 7063   1.366   1.758   8.582 -0.0515  0.4297  0.0424
   77SLPC  H18X 7064   1.308   1.853   8.579  0.3654  0.6560 -1.6229
   77SLPC  H18Y 7065   1.453   1.764   8.651 -0.2546 -2.3227  0.6924
   77SLPC  H18Z 7066   1.292   1.680   8.613 -0.7890  1.0318 -0.1758
   78SLPC     N 7067   6.087   0.588   5.901 -0.5785 -0.2514  1.2262
   78SLPC   C13 7068   6.064   0.469   5.812 -0.5197 -0.6189 -0.4382
   78SLPC  H13A 7069   5.967   0.476   5.764 -0.6073  0.3127 -0.1536
   78SLPC  H13B 7070   6.146   0.476   5.742  2.0854 -0.7334  2.4024
   78SLPC  H13C 7071   6.065   0.377   5.868  1.0543  0.1886  0.9545
   78SLPC   C14 7072   6.048   0.717   5.841 -0.1194 -0.0673 -0.4295
   78SLPC  H14A 7073   6.083   0.793   5.910  0.7617  0.5497 -1.5194
   78SLPC  H14B 7074   6.100   0.734   5.748 -0.4535  1.0243 -0.4267
   78SLPC  H14C 7075   5.944   0.725   5.817 -0.3149  1.5135  0.7993
   78SLPC   C15 7076   6.238   0.591   5.916 -1.5921 -0.6018 -0.1500
   78SLPC  H15A 7077   6.278   0.674   5.972  0.5568 -0.7265 -1.3870
   78SLPC  H15B 7078   6.263   0.495   5.958 -0.7437 -1.3040 -2.1091
   78SLPC  H15C 7079   6.291   0.591   5.821 -0.3401  0.1056  0.5230
   78SLPC   C12 7080   6.015   0.567   6.032  0.0007 -0.4936 -0.5861
   78SLPC  H12A 7081   5.909   0.587   6.021  0.2622  1.2474 -0.2587
   78SLPC  H12B 7082   6.050   0.640   6.104 -1.3952 -1.6063  1.3224
   78SLPC   C11 7083   6.039   0.430   6.100  0.2107 -0.1085 -0.0231
   78SLPC  H11A 7084   5.970   0.352   6.062 -0.2086 -0.1753  0.8503
   78SLPC  H11B 7085   5.997   0.450   6.202 -2.1975 -1.7359 -0.5964
   78SLPC     P 7086   6.225   0.262   6.202  0.0692  0.5412  0.1698
   78SLPC   O13 7087   6.285   0.169   6.105 -0.3461 -0.0532 -0.0663
   78SLPC   O14 7088   6.313   0.311   6.314  0.2294 -0.0373  0.0054
   78SLPC   O12 7089   6.177   0.388   6.118 -0.3462  0.0042  0.4256
   78SLPC   O11 7090   6.086   0.209   6.266 -0.3432  0.2409 -0.3883
   78SLPC    C1 7091   6.067   0.075   6.329  0.7968 -0.2375  0.3560
   78SLPC    HA 7092   6.138   0.004   6.281 -0.8725 -0.2468 -2.3319
   78SLPC    HB 7093   6.083   0.071   6.439 -0.7264 -0.1819  0.6027
   78SLPC    C2 7094   5.923   0.019   6.306 -0.5653  0.2700 -0.2680
   78SLPC    HS 7095   5.910   0.009   6.196  1.3305  0.8183 -0.5888
   78SLPC   O21 7096   5.821   0.104   6.350 -0.8465  0.1106 -0.0869
   78SLPC   C21 7097   5.700   0.069   6.349  0.7525 -0.1464  0.2400
   78SLPC   O22 7098   5.651  -0.008   6.270 -0.6615  0.2029 -1.0027
   78SLPC   C22 7099   5.624   0.129   6.464  0.3210  0.1630 -0.2763
   78SLPC   H2R 7100   5.617   0.238   6.448 -1.3703  0.2752  0.9677
   78SLPC   H2S 7101   5.522   0.086   6.461  0.2420 -0.0699  2.5943
   78SLPC    C3 7102   5.917  -0.127   6.366  0.3509 -0.1493 -0.2784
   78SLPC    HX 7103   6.002  -0.178   6.315 -0.2369 -0.4650 -0.9604
   78SLPC    HY 7104   5.823  -0.174   6.330 -0.6143  1.6481 -0.2415
   78SLPC   O31 7105   5.929  -0.129   6.504 -0.1871 -0.4084 -0.2519
   78SLPC   C31 7106   5.997  -0.234   6.553  0.4700 -0.4701 -0.0376
   78SLPC   O32 7107   6.016  -0.343   6.498 -1.1139  0.7008  0.0050
   78SLPC   C32 7108   6.052  -0.205   6.696  0.1286 -0.3764  0.7550
   78SLPC   H2X 7109   6.127  -0.123   6.694  0.9018 -1.0576 -1.8791
   78SLPC   H2Y 7110   6.103  -0.297   6.730  1.6764 -0.6001 -1.9063
   78SLPC   C23 7111   5.682   0.086   6.606  0.3323  0.1087  0.6646
   78SLPC   H3R 7112   5.783   0.132   6.611  1.3520 -1.4499 -2.4582
   78SLPC   H3S 7113   5.691  -0.024   6.618  0.0705  0.0568  0.4140
   78SLPC   C24 7114   5.580   0.127   6.706  0.0494  0.1252  0.2295
   78SLPC   H4R 7115   5.479   0.085   6.687  0.4084 -1.1324  0.9515
   78SLPC   H4S 7116   5.572   0.238   6.700 -0.2818  0.2779  2.4048
   78SLPC   C25 7117   5.618   0.083   6.842 -0.1156  0.3994  0.3719
   78SLPC   H5R 7118   5.721   0.123   6.853 -0.0692  0.9373 -1.5752
   78SLPC   H5S 7119   5.620  -0.027   6.859 -4.3499  0.2674  1.0892
   78SLPC   C26 7120   5.540   0.141   6.961  0.3129 -0.3622  0.1088
   78SLPC   H6R 7121   5.430   0.130   6.949  0.1518  0.8344  0.4057
   78SLPC   H6S 7122   5.564   0.249   6.959 -1.5574  0.0890 -0.5118
   78SLPC   C27 7123   5.575   0.081   7.095 -0.3181  0.2274 -0.0238
   78SLPC   H7R 7124   5.684   0.061   7.099 -0.6332 -1.4234  3.1089
   78SLPC   H7S 7125   5.521  -0.014   7.115  0.3350 -0.2232 -0.3619
   78SLPC   C28 7126   5.549   0.174   7.212  0.2413 -0.0548 -0.1692
   78SLPC   H8R 7127   5.591   0.276   7.200 -1.1955  0.7158  0.9905
   78SLPC   H8S 7128   5.598   0.128   7.301 -3.2780 -0.1240  1.9508
   78SLPC   C29 7129   5.399   0.199   7.235  0.5423  0.0845 -0.4960
   78SLPC   H9R 7130   5.334   0.216   7.148  1.2425 -1.1648 -1.3007
   78SLPC  C210 7131   5.335   0.209   7.356  0.4379  0.0769 -0.3676
   78SLPC  H10R 7132   5.226   0.221   7.361  0.4933  0.1170  0.9822
   78SLPC  C211 7133   5.399   0.203   7.493  0.6183  0.3862  0.1421
   78SLPC  H11R 7134   5.504   0.237   7.482  1.2840 -1.2512  1.0557
   78SLPC  H11S 7135   5.420   0.098   7.523  0.9473 -0.2771 -2.2332
   78SLPC  C212 7136   5.331   0.286   7.606  0.6677  0.5772  0.0423
   78SLPC  H12R 7137   5.322   0.393   7.586  0.1616  0.5422  0.0656
   78SLPC  C213 7138   5.295   0.235   7.729 -0.0580 -0.3468  0.2856
   78SLPC  H13R 7139   5.249   0.293   7.810  2.7960  0.9697  1.0865
   78SLPC  C214 7140   5.319   0.091   7.749  0.6109  0.3262  0.2494
   78SLPC  H14R 7141   5.277   0.019   7.675  0.9276 -0.3623  0.7221
   78SLPC  H14S 7142   5.262   0.062   7.839  2.3087 -2.1822  0.6340
   78SLPC  C215 7143   5.465   0.042   7.782  0.6279  0.3921  0.7762
   78SLPC  H15R 7144   5.479   0.047   7.893  1.6310  1.2664  0.6204
   78SLPC  H15S 7145   5.542   0.104   7.733 -0.1089  2.2707  1.8641
   78SLPC  C216 7146   5.489  -0.102   7.740 -0.6139  0.8789  0.5464
   78SLPC  H16R 7147   5.450  -0.129   7.640  0.8456  3.4165 -0.7962
   78SLPC  H16S 7148   5.452  -0.179   7.812 -0.8111  0.1712 -0.3010
   78SLPC  C217 7149   5.644  -0.135   7.733  0.0570 -0.3504  0.2947
   78SLPC  H17R 7150   5.689  -0.037   7.706 -1.3860  0.1924 -0.2514
   78SLPC  H17S 7151   5.670  -0.206   7.652 -0.7086 -0.3512  0.0367
   78SLPC  C218 7152   5.706  -0.183   7.871  0.2695  0.0638  0.2911
   78SLPC  H18R 7153   5.797  -0.231   7.828 -0.3341  0.3532 -1.3891
   78SLPC  H18S 7154   5.646  -0.262   7.920  1.4578 -2.3738 -1.9192
   78SLPC  H18T 7155   5.722  -0.102   7.945  0.8038  0.1980  0.0408
   78SLPC   C33 7156   5.941  -0.165   6.796  0.5160  0.0720 -0.6880
   78SLPC   H3X 7157   5.871  -0.251   6.792  1.4365 -0.7752  0.7075
   78SLPC   H3Y 7158   5.885  -0.075   6.764  0.9226  0.9275  0.9038
   78SLPC   C34 7159   5.998  -0.156   6.935 -0.6420 -0.3833  0.5514
   78SLPC   H4X 7160   6.050  -0.058   6.940  0.8926 -1.1144 -0.1235
   78SLPC   H4Y 7161   6.072  -0.238   6.952  1.3354  1.6167  2.3284
   78SLPC   C35 7162   5.889  -0.171   7.042  0.1994 -0.1705 -0.2948
   78SLPC   H5X 7163   5.859  -0.277   7.045 -0.6598  0.0704 -0.2465
   78SLPC   H5Y 7164   5.799  -0.108   7.025  0.9570  0.8086 -0.7950
   78SLPC   C36 7165   5.939  -0.130   7.185 -0.2872  0.2201  0.1330
   78SLPC   H6X 7166   5.979  -0.027   7.185  1.0878 -0.2632 -1.9962
   78SLPC   H6Y 7167   6.030  -0.192   7.200  0.7856  2.0440  1.5613
   78SLPC   C37 7168   5.842  -0.160   7.303 -0.9838 -0.0740  0.3720
   78SLPC   H7X 7169   5.801  -0.262   7.283  1.9242 -1.7886  2.3510
   78SLPC   H7Y 7170   5.755  -0.091   7.305  0.0402  1.2404  0.3928
   78SLPC   C38 7171   5.908  -0.186   7.440  0.2717 -0.5525 -0.3281
   78SLPC   H8X 7172   5.991  -0.260   7.434  0.9790  0.3032 -1.5267
   78SLPC   H8Y 7173   5.822  -0.228   7.496 -1.8946  0.3409 -2.7599
   78SLPC   C39 7174   5.944  -0.050   7.502 -0.5283 -0.4668 -0.9709
   78SLPC   H9X 7175   5.853   0.013   7.513 -0.4405 -0.7167  2.2267
   78SLPC   H9Y 7176   6.024  -0.001   7.443  0.7570 -2.1237 -0.6716
   78SLPC  C310 7177   6.013  -0.070   7.636  0.4533 -0.3005  0.2728
   78SLPC  H10X 7178   6.099  -0.140   7.625  0.9517  0.3760 -0.1854
   78SLPC  H10Y 7179   5.948  -0.101   7.720  0.1003  1.1860  0.5662
   78SLPC  C311 7180   6.086   0.064   7.688 -0.4276  0.2564 -0.2086
   78SLPC  H11X 7181   6.104   0.120   7.594 -0.1523  0.4737 -0.0266
   78SLPC  H11Y 7182   6.179   0.032   7.741 -0.0829  2.0520  0.3228
   78SLPC  C312 7183   6.002   0.146   7.789  0.5036 -0.1536  0.5121
   78SLPC  H12X 7184   5.902   0.157   7.743 -0.3151 -0.9399  2.0465
   78SLPC  H12Y 7185   6.045   0.248   7.785 -0.5102  0.3515  1.9501
   78SLPC  C313 7186   6.004   0.095   7.929  0.7510 -0.1856 -0.1050
   78SLPC  H13X 7187   6.106   0.066   7.963  0.5448 -1.9094 -0.8484
   78SLPC  H13Y 7188   5.943   0.002   7.928 -0.7237  0.7440 -1.8637
   78SLPC  C314 7189   5.937   0.185   8.037 -0.3060  0.1837  0.0049
   78SLPC  H14X 7190   6.000   0.277   8.038 -1.0029  0.6999 -1.1052
   78SLPC  H14Y 7191   5.962   0.129   8.130 -0.8380 -0.6543 -0.3494
   78SLPC  C315 7192   5.784   0.213   8.010  0.3646 -0.5020 -0.4655
   78SLPC  H15X 7193   5.728   0.118   7.997 -1.3496  0.3983 -0.0156
   78SLPC  H15Y 7194   5.773   0.276   7.919 -0.2680  2.0886  1.2804
   78SLPC  C316 7195   5.712   0.274   8.129 -0.8342  0.6263 -0.1595
   78SLPC  H16X 7196   5.744   0.374   8.166  1.2770 -1.0043  2.9377
   78SLPC  H16Y 7197   5.725   0.216   8.224 -2.8445  0.1119 -0.1459
   78SLPC  C317 7198   5.559   0.273   8.122  0.0966 -1.1510 -0.8433
   78SLPC  H17X 7199   5.496   0.318   8.202 -0.2554  0.6673 -2.0711
   78SLPC  H17Y 7200   5.535   0.166   8.139 -0.7303 -0.5583  2.3710
   78SLPC  C318 7201   5.500   0.314   7.993  0.2337  0.0744 -0.5289
   78SLPC  H18X 7202   5.533   0.242   7.915 -0.3999 -1.1167  0.2706
   78SLPC  H18Y 7203   5.543   0.409   7.953 -0.7439  0.4907 -0.6274
   78SLPC  H18Z 7204   5.389   0.317   8.001  0.3063 -0.9431  1.3523
   79SLPC     N 7205   3.900   3.060   6.052 -0.1634 -0.0352 -0.4172
   79SLPC   C13 7206   3.880   2.979   5.928  0.3651 -0.0433 -0.3822
   79SLPC  H13A 7207   3.968   2.924   5.898  0.2112 -0.7002  0.3284
   79SLPC  H13B 7208   3.804   2.906   5.951  0.7720  0.1241  1.6661
   79SLPC  H13C 7209   3.842   3.032   5.842  1.6236  0.4367 -0.6522
   79SLPC   C14 7210   4.011   3.161   6.026 -0.3135  0.1338  0.5921
   79SLPC  H14A 7211   3.986   3.226   5.944  1.9278  0.8979  0.4612
   79SLPC  H14B 7212   4.023   3.236   6.103  0.5642  1.2292 -0.5631
   79SLPC  H14C 7213   4.105   3.110   6.007 -0.1542  0.0748  1.4828
   79SLPC   C15 7214   3.945   2.973   6.162 -0.4074  0.3744 -0.3240
   79SLPC  H15A 7215   3.856   2.932   6.209  0.6422 -0.9660  0.5447
   79SLPC  H15B 7216   4.009   2.898   6.121  0.0570  1.7468 -2.2437
   79SLPC  H15C 7217   3.985   3.031   6.245  0.3536  0.4270 -0.7256
   79SLPC   C12 7218   3.771   3.144   6.079  0.7250  0.2996  0.0970
   79SLPC  H12A 7219   3.760   3.199   5.986  0.9347  2.4697  1.2937
   79SLPC  H12B 7220   3.800   3.216   6.154  2.6422  0.5288 -0.7997
   79SLPC   C11 7221   3.636   3.073   6.113  0.0596  0.3386  0.8481
   79SLPC  H11A 7222   3.599   3.014   6.026  0.9076  1.5195 -0.3713
   79SLPC  H11B 7223   3.558   3.152   6.121 -1.0496 -0.6209 -0.2000
   79SLPC     P 7224   3.602   3.064   6.368 -0.2498  0.4889 -0.1430
   79SLPC   O13 7225   3.657   3.202   6.387  0.2181 -0.2057  0.4367
   79SLPC   O14 7226   3.456   3.050   6.384  1.0548 -0.1743 -0.6345
   79SLPC   O12 7227   3.649   3.010   6.235  0.4827  0.9622  0.2773
   79SLPC   O11 7228   3.685   2.973   6.472  0.4677  0.6301 -0.0845
   79SLPC    C1 7229   3.693   2.999   6.609  0.3244 -0.6866 -0.2746
   79SLPC    HA 7230   3.794   2.980   6.651  1.0122  0.5600 -1.3015
   79SLPC    HB 7231   3.663   3.104   6.631  3.3843  0.2788 -0.1403
   79SLPC    C2 7232   3.600   2.900   6.686  0.2122  0.1812 -0.2022
   79SLPC    HS 7233   3.639   2.799   6.661  1.0501  0.7043 -1.0700
   79SLPC   O21 7234   3.461   2.925   6.647 -0.4267 -0.4805  0.3062
   79SLPC   C21 7235   3.389   2.813   6.636 -0.3272 -0.3951 -0.0517
   79SLPC   O22 7236   3.434   2.704   6.657  0.4296 -0.0955  0.1399
   79SLPC   C22 7237   3.255   2.851   6.580 -0.1704 -0.0175 -0.2550
   79SLPC   H2R 7238   3.219   2.936   6.642 -0.3574  0.3511 -0.8600
   79SLPC   H2S 7239   3.277   2.869   6.473 -3.3016  2.0757 -0.6816
   79SLPC    C3 7240   3.610   2.923   6.835 -0.3537 -0.4263 -0.6956
   79SLPC    HX 7241   3.565   3.020   6.863 -1.0148 -1.3199  1.5412
   79SLPC    HY 7242   3.718   2.928   6.861 -0.8737 -0.3979  1.7194
   79SLPC   O31 7243   3.572   2.800   6.907  0.2141  0.1762 -0.5944
   79SLPC   C31 7244   3.467   2.830   6.990 -0.4174  0.2085  0.0252
   79SLPC   O32 7245   3.406   2.935   6.985 -0.4436  0.0975  0.2674
   79SLPC   C32 7246   3.435   2.701   7.067 -0.2613 -0.2523 -0.5563
   79SLPC   H2X 7247   3.516   2.632   7.097  0.4598  0.3232 -1.1490
   79SLPC   H2Y 7248   3.380   2.644   6.990  2.3055 -0.1491 -2.5832
   79SLPC   C23 7249   3.150   2.737   6.601 -0.1438  0.0477  0.1383
   79SLPC   H3R 7250   3.197   2.646   6.560 -0.7069 -0.3951  0.4589
   79SLPC   H3S 7251   3.054   2.755   6.546 -0.9485  2.6488  2.1346
   79SLPC   C24 7252   3.124   2.707   6.748  0.1831 -0.2956  0.4369
   79SLPC   H4R 7253   3.207   2.644   6.786 -1.2877 -2.3469  0.4750
   79SLPC   H4S 7254   3.036   2.639   6.758 -0.5920  0.3613 -1.5034
   79SLPC   C25 7255   3.104   2.829   6.840 -0.1461 -0.8822  0.4677
   79SLPC   H5R 7256   3.024   2.893   6.797  0.8535  1.3497  1.7571
   79SLPC   H5S 7257   3.201   2.882   6.852 -1.3892  1.6919 -0.1731
   79SLPC   C26 7258   3.036   2.805   6.974  0.5149 -0.3166  0.2998
   79SLPC   H6R 7259   3.085   2.727   7.035 -2.1562 -1.6390  0.8905
   79SLPC   H6S 7260   2.930   2.771   6.963 -0.9425  4.0402 -1.3399
   79SLPC   C27 7261   3.026   2.932   7.062  0.5614  0.4028  0.3723
   79SLPC   H7R 7262   2.960   3.007   7.015 -0.3613 -0.1055  0.8338
   79SLPC   H7S 7263   3.123   2.983   7.080 -0.3282  2.2769  0.0860
   79SLPC   C28 7264   2.975   2.908   7.203 -0.3395  0.1385 -0.8975
   79SLPC   H8R 7265   2.965   3.006   7.254 -0.6383  0.1941 -1.0639
   79SLPC   H8S 7266   3.056   2.846   7.249 -2.1012  0.2343  2.7105
   79SLPC   C29 7267   2.846   2.835   7.216 -0.2601  0.1586 -0.2380
   79SLPC   H9R 7268   2.776   2.874   7.140 -0.7661  1.4532  0.8539
   79SLPC  C210 7269   2.805   2.736   7.297 -0.4760 -1.0257  0.2496
   79SLPC  H10R 7270   2.708   2.686   7.287 -0.8586 -0.6141  1.6745
   79SLPC  C211 7271   2.901   2.680   7.400  0.1131  0.4525  0.6335
   79SLPC  H11R 7272   2.831   2.634   7.474 -1.1965  0.5150 -0.5241
   79SLPC  H11S 7273   2.940   2.767   7.457 -0.6973  1.0687  0.2737
   79SLPC  C212 7274   3.015   2.590   7.351 -0.4401  0.0304 -0.4681
   79SLPC  H12R 7275   3.063   2.608   7.254 -0.1964  0.6282 -0.2456
   79SLPC  C213 7276   3.070   2.493   7.413 -0.2042  0.3927  0.0170
   79SLPC  H13R 7277   3.158   2.445   7.368 -0.7611  1.4192 -2.3173
   79SLPC  C214 7278   3.038   2.441   7.551  0.5337  0.7976 -0.0570
   79SLPC  H14R 7279   3.136   2.417   7.599 -0.4087 -1.0257  1.0737
   79SLPC  H14S 7280   2.992   2.341   7.535  2.7638 -0.4943  1.0399
   79SLPC  C215 7281   2.957   2.520   7.658  0.4628 -0.8446 -0.1533
   79SLPC  H15R 7282   2.847   2.523   7.645 -0.0801  1.3686  3.3939
   79SLPC  H15S 7283   2.995   2.625   7.660 -0.5905 -0.4567  0.6423
   79SLPC  C216 7284   2.987   2.463   7.800  0.0477  0.4232  0.3211
   79SLPC  H16R 7285   2.927   2.521   7.873  1.1922  1.1510  0.7180
   79SLPC  H16S 7286   3.093   2.491   7.819  0.4671  0.1949 -1.4838
   79SLPC  C217 7287   2.954   2.313   7.809  0.5498 -0.6846  0.9537
   79SLPC  H17R 7288   3.048   2.258   7.786 -0.2167 -1.0557 -1.6403
   79SLPC  H17S 7289   2.864   2.291   7.748  0.1161 -0.0651  1.3609
   79SLPC  C218 7290   2.919   2.270   7.952  0.1223 -0.0389 -0.5322
   79SLPC  H18R 7291   2.908   2.161   7.973  2.5232 -0.2516 -0.1039
   79SLPC  H18S 7292   2.823   2.316   7.982  0.5016  0.2612  0.2534
   79SLPC  H18T 7293   2.990   2.311   8.027 -1.2068 -1.2644  1.4845
   79SLPC   C33 7294   3.348   2.735   7.190  0.3097 -0.5441 -0.5874
   79SLPC   H3X 7295   3.295   2.643   7.226 -1.3168  0.5402 -0.1040
   79SLPC   H3Y 7296   3.281   2.818   7.158  1.6849  0.4191 -1.0332
   79SLPC   C34 7297   3.431   2.768   7.317 -0.9844  0.3059  0.1554
   79SLPC   H4X 7298   3.507   2.845   7.293 -0.3438  0.0407  1.2273
   79SLPC   H4Y 7299   3.480   2.673   7.349  0.3697  0.4544 -1.3559
   79SLPC   C35 7300   3.340   2.826   7.435 -0.5446  0.5360 -0.7041
   79SLPC   H5X 7301   3.254   2.759   7.459  1.3622 -2.9861 -2.7401
   79SLPC   H5Y 7302   3.301   2.926   7.409 -3.3483 -0.2745 -0.0079
   79SLPC   C36 7303   3.432   2.842   7.561  0.1274  0.1254 -0.1474
   79SLPC   H6X 7304   3.494   2.931   7.541 -0.8249  0.4989 -1.5973
   79SLPC   H6Y 7305   3.487   2.748   7.583 -3.5835 -2.0677  0.8138
   79SLPC   C37 7306   3.347   2.870   7.699  0.5592  0.8566  0.1612
   79SLPC   H7X 7307   3.244   2.903   7.673  0.6442  1.1907  0.2484
   79SLPC   H7Y 7308   3.394   2.957   7.749 -0.9659  1.4424  0.5981
   79SLPC   C38 7309   3.350   2.745   7.791  0.0676  0.1151 -0.8829
   79SLPC   H8X 7310   3.458   2.719   7.800  0.3604  1.2745 -0.8592
   79SLPC   H8Y 7311   3.291   2.659   7.752 -2.2638  1.8225 -1.2950
   79SLPC   C39 7312   3.303   2.773   7.936  0.2429  1.0169 -0.4321
   79SLPC   H9X 7313   3.243   2.866   7.930  0.0778  0.8290 -2.5292
   79SLPC   H9Y 7314   3.393   2.780   8.001 -0.6091 -0.7706  1.0215
   79SLPC  C310 7315   3.209   2.662   7.990 -0.3455 -0.5734  0.0711
   79SLPC  H10X 7316   3.254   2.561   7.981 -1.8596 -1.4509  1.8350
   79SLPC  H10Y 7317   3.111   2.669   7.937 -0.5448 -3.7006 -0.1789
   79SLPC  C311 7318   3.172   2.682   8.139  0.8519 -0.0606  0.0828
   79SLPC  H11X 7319   3.116   2.775   8.161 -0.4861 -0.2494 -2.1334
   79SLPC  H11Y 7320   3.265   2.682   8.200  0.8142  0.9679  0.1505
   79SLPC  C312 7321   3.094   2.561   8.186 -0.1619  0.0400  0.2063
   79SLPC  H12X 7322   3.131   2.466   8.144  1.0900 -0.3418  2.0592
   79SLPC  H12Y 7323   2.990   2.566   8.149  0.4721  0.9545 -1.5875
   79SLPC  C313 7324   3.108   2.536   8.338  0.4052 -0.0423 -0.1661
   79SLPC  H13X 7325   3.047   2.615   8.387 -1.5736 -0.7668 -1.3309
   79SLPC  H13Y 7326   3.213   2.546   8.373 -0.5201  1.7884  2.4522
   79SLPC  C314 7327   3.040   2.405   8.378 -0.7766 -0.3824  0.6674
   79SLPC  H14X 7328   3.103   2.327   8.332  2.1260  0.5248  2.8332
   79SLPC  H14Y 7329   2.937   2.393   8.338 -0.2154  1.0643 -1.3759
   79SLPC  C315 7330   3.047   2.374   8.526 -0.0441  0.7116 -0.1656
   79SLPC  H15X 7331   3.152   2.389   8.562  0.8052 -2.6547 -0.8787
   79SLPC  H15Y 7332   3.023   2.268   8.548 -0.4620  1.2756  2.5261
   79SLPC  C316 7333   2.951   2.456   8.604  0.9223  0.0535 -0.1239
   79SLPC  H16X 7334   2.876   2.497   8.533  1.5310 -1.2592 -1.5867
   79SLPC  H16Y 7335   3.007   2.545   8.638 -1.1550  2.2179 -1.9748
   79SLPC  C317 7336   2.876   2.377   8.706 -0.9105  0.0619 -0.1245
   79SLPC  H17X 7337   2.943   2.332   8.782 -0.0472 -0.4186 -1.1448
   79SLPC  H17Y 7338   2.831   2.289   8.657  1.1613 -0.5933 -0.9828
   79SLPC  C318 7339   2.792   2.470   8.794 -0.2966  0.9602 -0.8236
   79SLPC  H18X 7340   2.756   2.421   8.887  0.4539  1.7376 -0.1061
   79SLPC  H18Y 7341   2.700   2.506   8.742 -1.2081  0.6751  0.5422
   79SLPC  H18Z 7342   2.855   2.556   8.826  1.0891  0.0921 -1.1442
   80SLPC     N 7343   3.974   1.556   5.928  0.3189 -0.4714 -1.2259
   80SLPC   C13 7344   4.036   1.462   5.833  0.1805 -0.3952  0.1747
   80SLPC  H13A 7345   3.983   1.452   5.739  2.0819 -2.1057 -0.7777
   80SLPC  H13B 7346   4.139   1.480   5.806  1.2224 -1.0839  3.3348
   80SLPC  H13C 7347   4.041   1.361   5.871 -1.5604 -0.8325 -0.6113
   80SLPC   C14 7348   3.829   1.513   5.953 -0.1741  0.3969 -1.2290
   80SLPC  H14A 7349   3.778   1.517   5.858 -0.0751 -0.9465 -1.3480
   80SLPC  H14B 7350   3.827   1.414   5.995 -0.1491  0.9948  0.2415
   80SLPC  H14C 7351   3.777   1.569   6.030  2.5066 -2.1563  2.8037
   80SLPC   C15 7352   3.973   1.691   5.874  0.1685 -0.4904 -0.0568
   80SLPC  H15A 7353   3.934   1.765   5.943 -1.0037 -1.4236  0.3309
   80SLPC  H15B 7354   4.073   1.726   5.858  0.3206 -0.8547  0.0873
   80SLPC  H15C 7355   3.922   1.696   5.779  0.5719  1.1916 -0.2271
   80SLPC   C12 7356   4.050   1.549   6.057  0.2991  0.2428 -0.2678
   80SLPC  H12A 7357   4.026   1.636   6.116 -1.0625  0.7170 -1.4770
   80SLPC  H12B 7358   4.153   1.551   6.022  0.0886 -1.7547 -1.1614
   80SLPC   C11 7359   4.044   1.436   6.155  0.2767 -0.0474 -0.3754
   80SLPC  H11A 7360   3.940   1.413   6.186  0.4005 -0.6570 -0.3891
   80SLPC  H11B 7361   4.099   1.472   6.245 -1.0911  3.7334 -0.8722
   80SLPC     P 7362   4.249   1.285   6.110  0.1920 -0.3894  0.4265
   80SLPC   O13 7363   4.283   1.189   6.000  0.2415  0.0624  0.2888
   80SLPC   O14 7364   4.306   1.422   6.124 -0.4355  0.0698 -0.1839
   80SLPC   O12 7365   4.092   1.314   6.093 -0.0302  0.1816 -0.0412
   80SLPC   O11 7366   4.266   1.215   6.251 -0.6971  0.4698 -0.1266
   80SLPC    C1 7367   4.168   1.132   6.309 -0.0967 -0.4318 -0.9678
   80SLPC    HA 7368   4.068   1.179   6.316 -0.0003 -0.3212 -0.3265
   80SLPC    HB 7369   4.153   1.034   6.257 -4.3954 -1.5298  1.8580
   80SLPC    C2 7370   4.207   1.101   6.454 -0.6026  0.0675 -0.0298
   80SLPC    HS 7371   4.277   1.015   6.446 -1.3248 -0.4929 -0.3856
   80SLPC   O21 7372   4.100   1.065   6.541 -0.1664  0.4791 -0.3940
   80SLPC   C21 7373   4.017   0.961   6.500  1.1558  0.7655 -0.2650
   80SLPC   O22 7374   4.051   0.901   6.397  0.6961  0.5218  0.1247
   80SLPC   C22 7375   3.915   0.932   6.615 -0.3910 -0.1085 -0.3773
   80SLPC   H2R 7376   3.871   1.033   6.634  0.3305  0.4720 -1.6900
   80SLPC   H2S 7377   3.832   0.863   6.589 -0.8802  0.4039 -0.2043
   80SLPC    C3 7378   4.296   1.217   6.513  0.4500 -0.3643 -0.5860
   80SLPC    HX 7379   4.242   1.313   6.500 -1.2759 -1.3606 -1.1826
   80SLPC    HY 7380   4.387   1.225   6.451  0.8803 -2.3215 -0.2751
   80SLPC   O31 7381   4.336   1.185   6.645 -0.3615 -0.2118 -0.3934
   80SLPC   C31 7382   4.257   1.238   6.741 -0.5284 -0.4822 -0.5617
   80SLPC   O32 7383   4.167   1.313   6.721  0.5943 -0.0816  0.1345
   80SLPC   C32 7384   4.305   1.185   6.879  0.4461 -0.3463 -0.0896
   80SLPC   H2X 7385   4.386   1.244   6.927  0.5285  1.4864 -2.2821
   80SLPC   H2Y 7386   4.327   1.076   6.878 -2.4763 -1.0353  1.0907
   80SLPC   C23 7387   3.994   0.885   6.742 -0.0638  0.3917  0.6087
   80SLPC   H3R 7388   4.081   0.952   6.756 -0.4265  0.4753  2.6384
   80SLPC   H3S 7389   4.043   0.787   6.719  0.4037  0.3424  1.7608
   80SLPC   C24 7390   3.910   0.879   6.869 -0.1817  0.1775 -0.0199
   80SLPC   H4R 7391   3.821   0.813   6.857 -1.3219  1.5486  0.5498
   80SLPC   H4S 7392   3.879   0.984   6.889  0.6771  0.4895 -0.2808
   80SLPC   C25 7393   3.986   0.816   6.988  0.6738 -0.0244  0.0205
   80SLPC   H5R 7394   4.072   0.882   7.012  0.2545  0.8063 -0.6902
   80SLPC   H5S 7395   4.038   0.725   6.953  0.7935  0.0308  0.0554
   80SLPC   C26 7396   3.894   0.804   7.115 -1.0595  0.4913  0.4122
   80SLPC   H6R 7397   3.811   0.733   7.094 -1.1805  0.7688 -0.0688
   80SLPC   H6S 7398   3.854   0.905   7.138 -0.6968  0.5162  0.9551
   80SLPC   C27 7399   3.977   0.742   7.238  0.4680 -0.5491 -0.3084
   80SLPC   H7R 7400   4.059   0.812   7.264  0.5864 -1.3243  1.5744
   80SLPC   H7S 7401   4.023   0.655   7.187  1.6433 -0.1200 -0.0353
   80SLPC   C28 7402   3.894   0.711   7.366  0.2653 -0.3247  0.3898
   80SLPC   H8R 7403   3.947   0.665   7.452 -1.7932 -0.3544  1.7016
   80SLPC   H8S 7404   3.825   0.626   7.346 -0.6625  0.5837 -0.4086
   80SLPC   C29 7405   3.809   0.824   7.416 -0.4419  0.6456 -0.1956
   80SLPC   H9R 7406   3.735   0.849   7.339  0.0907 -1.0791 -1.3228
   80SLPC  C210 7407   3.820   0.888   7.534  0.2475 -0.1927  0.6961
   80SLPC  H10R 7408   3.751   0.972   7.553  0.2949 -0.1505  0.6847
   80SLPC  C211 7409   3.920   0.864   7.643  0.5512 -1.2030  0.5124
   80SLPC  H11R 7410   3.908   0.956   7.704 -1.4535 -0.8362 -0.3819
   80SLPC  H11S 7411   4.019   0.871   7.593  0.8790 -0.3103  1.2527
   80SLPC  C212 7412   3.887   0.746   7.727 -0.4273  0.5792 -0.0704
   80SLPC  H12R 7413   3.836   0.662   7.679 -0.4702  0.4920  0.1260
   80SLPC  C213 7414   3.906   0.738   7.863 -0.6902 -0.0401  0.7585
   80SLPC  H13R 7415   3.869   0.647   7.911  0.8685 -0.7980  0.5607
   80SLPC  C214 7416   3.962   0.841   7.961 -0.3037 -0.0702 -0.5874
   80SLPC  H14R 7417   3.879   0.885   8.019  1.0352  1.7719  0.0117
   80SLPC  H14S 7418   4.008   0.922   7.900 -0.3942  1.7322  1.6174
   80SLPC  C215 7419   4.072   0.801   8.067  0.0350 -0.1213  0.2795
   80SLPC  H15R 7420   4.164   0.774   8.010  0.7616  0.0512  1.3377
   80SLPC  H15S 7421   4.041   0.706   8.115 -0.5246 -1.3386 -2.3105
   80SLPC  C216 7422   4.095   0.905   8.182  0.1604 -0.3818  0.6157
   80SLPC  H16R 7423   4.104   1.004   8.131  0.4783 -1.3274 -1.2477
   80SLPC  H16S 7424   4.189   0.894   8.240  0.3708  0.9901  0.5860
   80SLPC  C217 7425   3.978   0.888   8.283 -0.1628  0.8540  0.1200
   80SLPC  H17R 7426   3.954   0.781   8.299 -0.2507  0.8024 -0.3497
   80SLPC  H17S 7427   3.884   0.929   8.239 -1.3125 -0.3180  1.3759
   80SLPC  C218 7428   4.021   0.955   8.412 -0.0195  0.0304 -0.0173
   80SLPC  H18R 7429   3.949   0.926   8.492 -0.9109 -2.6214 -1.6548
   80SLPC  H18S 7430   4.034   1.064   8.391  0.2911  0.3569  1.6661
   80SLPC  H18T 7431   4.117   0.910   8.445 -1.9323 -2.8472  2.1183
   80SLPC   C33 7432   4.186   1.179   6.983 -0.0043  0.1977 -0.3466
   80SLPC   H3X 7433   4.101   1.124   6.936 -1.0149  1.2770  0.1601
   80SLPC   H3Y 7434   4.157   1.284   7.002  2.2529  0.7316  0.4259
   80SLPC   C34 7435   4.225   1.112   7.116 -0.1662 -0.2657 -0.1631
   80SLPC   H4X 7436   4.299   1.033   7.090 -0.4027 -0.7523  0.5907
   80SLPC   H4Y 7437   4.128   1.065   7.145 -0.0417 -0.9352 -0.7928
   80SLPC   C35 7438   4.263   1.218   7.223  0.0041 -0.2094  0.0950
   80SLPC   H5X 7439   4.177   1.289   7.224 -2.0791 -2.5686 -0.2364
   80SLPC   H5Y 7440   4.359   1.271   7.208  0.0212 -0.7341 -1.8318
   80SLPC   C36 7441   4.274   1.161   7.364  0.2105 -0.5263 -0.1497
   80SLPC   H6X 7442   4.361   1.092   7.361  1.7502  1.3666 -1.0251
   80SLPC   H6Y 7443   4.179   1.109   7.388 -0.1595 -1.0996 -2.5537
   80SLPC   C37 7444   4.314   1.251   7.476  0.9549  0.2095 -0.1159
   80SLPC   H7X 7445   4.237   1.330   7.463  0.2306 -0.1485  1.6465
   80SLPC   H7Y 7446   4.415   1.295   7.466  0.7664  0.4589 -0.9840
   80SLPC   C38 7447   4.293   1.180   7.609 -0.2156 -0.1238  0.4685
   80SLPC   H8X 7448   4.389   1.128   7.630  0.2799  0.2423 -0.7968
   80SLPC   H8Y 7449   4.210   1.105   7.611 -0.8108  0.4346 -1.2992
   80SLPC   C39 7450   4.271   1.284   7.717 -0.0204  0.2669 -0.1767
   80SLPC   H9X 7451   4.178   1.340   7.695  1.1276  1.2152 -3.1005
   80SLPC   H9Y 7452   4.343   1.368   7.728  0.6678 -0.6596  4.5697
   80SLPC  C310 7453   4.264   1.233   7.862  0.1116 -0.6382  0.0548
   80SLPC  H10X 7454   4.363   1.212   7.909 -1.1312  2.2830  4.6111
   80SLPC  H10Y 7455   4.192   1.148   7.856 -2.4996  1.5464 -3.4130
   80SLPC  C311 7456   4.202   1.333   7.963 -0.2875 -0.2002  0.8526
   80SLPC  H11X 7457   4.111   1.366   7.910  0.8913  1.9358  0.0061
   80SLPC  H11Y 7458   4.269   1.421   7.979  0.9657 -1.2102  1.3429
   80SLPC  C312 7459   4.168   1.293   8.103 -0.5606  0.0969 -0.3897
   80SLPC  H12X 7460   4.261   1.250   8.146 -1.2686 -1.3201 -0.2395
   80SLPC  H12Y 7461   4.084   1.222   8.115 -1.1106  0.5700 -1.3010
   80SLPC  C313 7462   4.121   1.414   8.186  0.1215  0.5922 -0.0119
   80SLPC  H13X 7463   4.060   1.472   8.114 -1.3253 -1.4560 -0.5434
   80SLPC  H13Y 7464   4.211   1.475   8.208 -1.1884  2.3060  0.8771
   80SLPC  C314 7465   4.041   1.380   8.312 -0.3602 -0.1273  0.5989
   80SLPC  H14X 7466   3.954   1.314   8.292  0.8933 -1.4176 -0.8221
   80SLPC  H14Y 7467   4.005   1.478   8.350 -1.7412 -0.2525 -0.3293
   80SLPC  C315 7468   4.138   1.319   8.426 -0.0891 -0.3087  0.3930
   80SLPC  H15X 7469   4.218   1.397   8.425 -0.5196  0.1936 -2.0563
   80SLPC  H15Y 7470   4.175   1.220   8.393 -0.7326 -0.3081 -0.3417
   80SLPC  C316 7471   4.084   1.316   8.562 -0.4122  0.6314  0.0021
   80SLPC  H16X 7472   3.988   1.266   8.588  0.6555 -1.3982  0.2281
   80SLPC  H16Y 7473   4.066   1.418   8.601  0.1808  0.5136  0.6144
   80SLPC  C317 7474   4.177   1.253   8.669  0.7754  0.5827  1.1247
   80SLPC  H17X 7475   4.272   1.310   8.674  0.9272  0.4637 -0.1409
   80SLPC  H17Y 7476   4.193   1.148   8.635 -1.0902 -0.1031  2.1913
   80SLPC  C318 7477   4.110   1.257   8.805 -0.0710 -0.2352 -0.2596
   80SLPC  H18X 7478   4.160   1.193   8.880  0.6239 -0.7909 -1.1838
   80SLPC  H18Y 7479   4.001   1.237   8.797  0.3286 -1.7077 -4.0952
   80SLPC  H18Z 7480   4.126   1.358   8.849  0.7126 -1.2365  1.8959
   81SAPS     N 7481   2.679   4.004  11.053  0.6401  0.4408 -0.1818
   81SAPS   HN1 7482   2.639   4.016  10.958  1.6351  1.1229 -0.5242
   81SAPS   HN2 7483   2.765   3.946  11.045 -0.7311 -1.5980 -0.8383
   81SAPS   HN3 7484   2.611   3.974  11.126  0.2023  1.8265  0.0097
   81SAPS   C12 7485   2.737   4.148  11.091  0.2580 -0.3588 -0.4521
   81SAPS  H12A 7486   2.655   4.204  11.133 -0.6674 -1.2201 -1.0595
   81SAPS   C13 7487   2.851   4.147  11.193 -0.2436  0.2782 -0.3561
   81SAPS  O13A 7488   2.917   4.036  11.208  0.2659 -0.2898 -0.3631
   81SAPS  O13B 7489   2.899   4.253  11.242  0.1692  0.1208 -0.4240
   81SAPS   C11 7490   2.792   4.217  10.959  0.1743 -0.0371  0.0642
   81SAPS  H11A 7491   2.858   4.144  10.907  0.5311  1.6694 -1.9898
   81SAPS  H11B 7492   2.853   4.307  10.980  3.6192 -2.2059  0.2315
   81SAPS     P 7493   2.643   4.183  10.745  0.1154 -0.1618 -0.0454
   81SAPS   O13 7494   2.638   4.035  10.772 -0.7857 -0.8054 -0.2304
   81SAPS   O14 7495   2.524   4.244  10.690  0.4673  0.1327 -0.4544
   81SAPS   O12 7496   2.683   4.252  10.878  0.5239 -0.3339 -0.9610
   81SAPS   O11 7497   2.764   4.207  10.649  0.3097  0.0802  0.2830
   81SAPS    C1 7498   2.777   4.339  10.596  0.8412  0.1155 -0.2054
   81SAPS    HA 7499   2.696   4.406  10.632 -0.3896 -2.5895  2.5509
   81SAPS    HB 7500   2.874   4.385  10.625  0.2698 -0.0157  2.1750
   81SAPS    C2 7501   2.771   4.340  10.438  0.9586 -0.8154 -0.4229
   81SAPS    HS 7502   2.669   4.299  10.425  1.1475 -1.2038 -0.7010
   81SAPS   O21 7503   2.867   4.246  10.401 -0.1523  0.1247 -0.1028
   81SAPS   C21 7504   2.845   4.173  10.291 -0.3370  0.1004 -0.4400
   81SAPS   O22 7505   2.745   4.176  10.221  0.3165 -0.1802  0.4750
   81SAPS   C22 7506   2.977   4.101  10.262  0.5278 -0.4568  0.3245
   81SAPS   H2R 7507   3.059   4.156  10.313  1.3157  0.0973 -1.4349
   81SAPS   H2S 7508   2.963   3.997  10.297 -3.0465 -0.4447 -0.6778
   81SAPS    C3 7509   2.774   4.475  10.367 -0.2228  0.2876  0.1161
   81SAPS    HX 7510   2.879   4.510  10.372 -0.6016  1.3340  1.4273
   81SAPS    HY 7511   2.730   4.552  10.435  0.3783  1.5702 -0.9025
   81SAPS   O31 7512   2.708   4.490  10.234 -0.6358 -0.1116 -0.3287
   81SAPS   C31 7513   2.783   4.468  10.129 -0.5111  0.2309  0.0826
   81SAPS   O32 7514   2.906   4.442  10.130  0.8106 -0.2624 -0.0169
   81SAPS   C32 7515   2.688   4.457  10.006 -0.1389 -0.0313  0.1749
   81SAPS   H2X 7516   2.616   4.541  10.005 -0.6047 -0.4269 -0.6877
   81SAPS   H2Y 7517   2.620   4.369  10.015 -0.0101 -0.3680 -1.7679
   81SAPS   C23 7518   3.013   4.100  10.109  0.5248  0.0346  0.1240
   81SAPS   H3R 7519   3.004   4.206  10.078  0.0830 -0.7150 -2.6161
   81SAPS   H3S 7520   2.937   4.039  10.056 -0.1158  0.0091  1.0569
   81SAPS   C24 7521   3.152   4.049  10.080  0.1986  0.0225  0.1308
   81SAPS   H4R 7522   3.223   4.085  10.158  1.1027 -3.0135  0.8222
   81SAPS   H4S 7523   3.185   4.087   9.981  0.2581  0.9899  0.5036
   81SAPS   C25 7524   3.154   3.898  10.098  0.4508  0.4954 -0.1798
   81SAPS   H5R 7525   3.107   3.870  10.194 -3.2366  3.1983 -1.0165
   81SAPS   C26 7526   3.208   3.810  10.010  0.2038 -0.4551  0.9347
   81SAPS   H6R 7527   3.202   3.703  10.032  0.6056 -0.3718  1.4756
   81SAPS   C27 7528   3.268   3.842   9.872 -0.2792  0.3057 -0.2760
   81SAPS   H7R 7529   3.334   3.761   9.834  1.3072  0.7522  1.3937
   81SAPS   H7S 7530   3.340   3.924   9.888  0.4825 -0.4633  0.3711
   81SAPS   C28 7531   3.166   3.873   9.772 -0.4753  0.0693 -0.2202
   81SAPS   H8R 7532   3.065   3.860   9.814  0.3867 -0.5920  1.7322
   81SAPS   C29 7533   3.196   3.898   9.643  0.4929  0.2023  0.2144
   81SAPS   H9R 7534   3.107   3.923   9.584 -0.0957 -0.2535  0.8805
   81SAPS  C210 7535   3.330   3.901   9.564  0.2594  0.0710  0.1661
   81SAPS  H10R 7536   3.414   3.908   9.636 -0.1832  1.8789  0.5754
   81SAPS  H10S 7537   3.317   3.998   9.510  0.2439  0.1464  0.3034
   81SAPS  C211 7538   3.335   3.785   9.472  0.0711 -0.5512 -0.0559
   81SAPS  H11R 7539   3.304   3.695   9.526 -2.1422  0.3288  0.2389
   81SAPS  C212 7540   3.385   3.789   9.347  0.2254 -0.5892 -0.4154
   81SAPS  H12R 7541   3.404   3.698   9.289  1.6768  0.1135 -1.1009
   81SAPS  C213 7542   3.438   3.914   9.277  0.1738  0.8027  1.1352
   81SAPS  H13R 7543   3.547   3.903   9.264  0.3892  0.2954  3.0698
   81SAPS  H13S 7544   3.423   3.996   9.350 -0.5326  0.8129  0.9907
   81SAPS  C214 7545   3.374   3.938   9.137  0.1595  0.0299 -0.3795
   81SAPS  H14R 7546   3.269   3.908   9.123 -0.6178  2.9063 -1.3230
   81SAPS  C215 7547   3.436   4.004   9.035 -0.3010  0.5314  0.2646
   81SAPS  H15R 7548   3.381   4.000   8.940 -2.9550  0.5966  1.7118
   81SAPS  C216 7549   3.581   4.056   9.031  0.1042 -0.1674 -0.4632
   81SAPS  H16R 7550   3.649   3.985   9.083  0.0181 -1.1872 -1.6897
   81SAPS  H16S 7551   3.578   4.148   9.092 -2.3151 -1.4026  1.4848
   81SAPS  C217 7552   3.629   4.104   8.892 -0.5697 -0.0286 -0.4562
   81SAPS  H17R 7553   3.723   4.162   8.908 -1.2080  1.7429 -2.6142
   81SAPS  H17S 7554   3.559   4.178   8.849 -1.5838 -0.9668 -0.4733
   81SAPS  C218 7555   3.655   3.983   8.797 -0.2678 -0.6745 -0.6139
   81SAPS  H18R 7556   3.566   3.915   8.795 -0.1897 -0.7621 -1.5623
   81SAPS  H18S 7557   3.749   3.934   8.830  0.6110 -0.0348 -2.0852
   81SAPS  C219 7558   3.674   4.035   8.650  0.1354 -0.5153  0.0580
   81SAPS  H19R 7559   3.775   4.081   8.645  0.7023 -1.7420 -0.1801
   81SAPS  H19S 7560   3.593   4.104   8.619 -1.2845 -1.9999  0.2972
   81SAPS  C220 7561   3.667   3.921   8.547 -0.0998  0.2609 -0.4638
   81SAPS  H20R 7562   3.681   3.977   8.452  0.2620  1.3924  0.2423
   81SAPS  H20S 7563   3.565   3.877   8.552 -0.5813  1.4482  0.7865
   81SAPS  H20T 7564   3.747   3.845   8.554 -0.7008 -0.2572  1.2162
   81SAPS   C33 7565   2.774   4.439   9.886 -0.3876 -0.5115  0.6663
   81SAPS   H3X 7566   2.807   4.333   9.897  2.4663  0.3621  1.4629
   81SAPS   H3Y 7567   2.851   4.516   9.864 -1.5992  0.2100 -1.2701
   81SAPS   C34 7568   2.692   4.441   9.751 -0.3248  0.4800  0.0673
   81SAPS   H4X 7569   2.620   4.357   9.761  1.0831 -0.8447 -0.5833
   81SAPS   H4Y 7570   2.763   4.431   9.666  0.3413  0.1764  0.6531
   81SAPS   C35 7571   2.620   4.577   9.721 -0.5027  0.1963 -0.0554
   81SAPS   H5X 7572   2.693   4.655   9.688 -1.6630  1.1857 -0.3458
   81SAPS   H5Y 7573   2.556   4.615   9.803  0.2947  2.3521 -0.3690
   81SAPS   C36 7574   2.522   4.571   9.605 -0.4253  0.0382  0.2189
   81SAPS   H6X 7575   2.482   4.675   9.603  1.2576  0.7364  0.8403
   81SAPS   H6Y 7576   2.439   4.499   9.620 -2.1870  1.5726 -1.5362
   81SAPS   C37 7577   2.589   4.543   9.470 -0.7943  0.2664  0.2797
   81SAPS   H7X 7578   2.601   4.432   9.465 -1.3550 -0.0249  3.4078
   81SAPS   H7Y 7579   2.690   4.590   9.473 -1.0366  0.7749  3.3099
   81SAPS   C38 7580   2.509   4.590   9.344 -0.3302  1.1379 -0.3851
   81SAPS   H8X 7581   2.452   4.682   9.368 -3.0563 -0.2005 -1.3551
   81SAPS   H8Y 7582   2.429   4.522   9.309 -1.3279  2.6840 -1.2533
   81SAPS   C39 7583   2.597   4.608   9.213  0.7550  1.1813  0.3441
   81SAPS   H9X 7584   2.683   4.538   9.211 -0.5651 -0.5028 -0.9282
   81SAPS   H9Y 7585   2.649   4.706   9.211  0.8857  1.1225  0.8266
   81SAPS  C310 7586   2.528   4.570   9.078 -0.1062  0.4709  0.4657
   81SAPS  H10X 7587   2.445   4.642   9.059 -1.6563 -1.5402 -0.7484
   81SAPS  H10Y 7588   2.486   4.468   9.091  0.0308 -0.1257 -2.9431
   81SAPS  C311 7589   2.625   4.582   8.960  0.5406 -0.0023 -0.0754
   81SAPS  H11X 7590   2.704   4.510   8.991 -1.9444 -2.4287  1.0446
   81SAPS  H11Y 7591   2.668   4.683   8.945 -0.3910  0.3190 -0.6498
   81SAPS  C312 7592   2.563   4.541   8.827 -0.2921  0.0129  0.1477
   81SAPS  H12X 7593   2.507   4.447   8.844  0.5312 -1.0331 -2.4705
   81SAPS  H12Y 7594   2.645   4.522   8.755  0.3227 -1.4856  1.1890
   81SAPS  C313 7595   2.471   4.647   8.757 -0.1220  0.6922 -0.0874
   81SAPS  H13X 7596   2.534   4.737   8.742 -0.6069  0.9174 -0.8450
   81SAPS  H13Y 7597   2.378   4.668   8.813  0.3919  0.6753  0.7869
   81SAPS  C314 7598   2.442   4.599   8.613  0.2494 -0.2665 -0.0427
   81SAPS  H14X 7599   2.401   4.496   8.620  1.6983 -1.0562 -2.1930
   81SAPS  H14Y 7600   2.541   4.583   8.566 -0.2142 -0.4097 -0.9846
   81SAPS  C315 7601   2.351   4.693   8.533 -0.4770 -0.2277  0.0186
   81SAPS  H15X 7602   2.389   4.796   8.551 -0.1624 -0.4876  0.8719
   81SAPS  H15Y 7603   2.245   4.708   8.565 -0.7277  0.4517 -1.0653
   81SAPS  C316 7604   2.345   4.664   8.382  0.9576  0.5557 -0.4075
   81SAPS  H16X 7605   2.311   4.558   8.382 -0.1076  0.8726 -1.7024
   81SAPS  H16Y 7606   2.445   4.680   8.336  0.5391 -0.4646 -1.7264
   81SAPS  C317 7607   2.228   4.745   8.321 -0.7148  0.1836  0.0710
   81SAPS  H17X 7608   2.134   4.716   8.372 -0.6202 -0.3086 -0.0183
   81SAPS  H17Y 7609   2.222   4.732   8.210 -1.2997  0.7694  0.0292
   81SAPS  C318 7610   2.240   4.902   8.346 -1.0180  0.0277  0.4131
   81SAPS  H18X 7611   2.343   4.931   8.313 -0.5362 -0.5637  1.3565
   81SAPS  H18Y 7612   2.226   4.953   8.444  2.8085 -0.5891  1.4505
   81SAPS  H18Z 7613   2.172   4.952   8.273 -0.8978 -0.6285 -0.1588
   82SAPS     N 7614   1.400   2.819  10.868  0.1381  0.2147  0.4299
   82SAPS   HN1 7615   1.424   2.802  10.968  0.7635 -0.8049  0.1176
   82SAPS   HN2 7616   1.297   2.833  10.862  0.1533  0.9947  1.6371
   82SAPS   HN3 7617   1.429   2.731  10.821 -0.4253 -0.5352  1.4626
   82SAPS   C12 7618   1.467   2.940  10.827  0.2136  0.1311  0.5816
   82SAPS  H12A 7619   1.436   3.018  10.895 -0.2923  0.0073  0.4923
   82SAPS   C13 7620   1.622   2.932  10.839  0.5424 -0.6415  0.0223
   82SAPS  O13A 7621   1.679   2.832  10.889  0.8450 -0.7730 -0.8428
   82SAPS  O13B 7622   1.691   3.038  10.815  0.1885 -0.8525 -0.0768
   82SAPS   C11 7623   1.427   2.976  10.679  0.1844  0.4430 -0.0791
   82SAPS  H11A 7624   1.419   2.885  10.615 -2.4795  0.7099 -0.2503
   82SAPS  H11B 7625   1.507   3.041  10.637  1.7115 -0.1807  1.7251
   82SAPS     P 7626   1.203   3.072  10.574 -0.1954  0.2441 -0.3687
   82SAPS   O13 7627   1.124   2.953  10.553  0.2443  0.4781 -0.3377
   82SAPS   O14 7628   1.122   3.188  10.622  0.0107  0.3065 -0.0598
   82SAPS   O12 7629   1.308   3.046  10.691 -0.2022 -0.0068 -0.4441
   82SAPS   O11 7630   1.288   3.119  10.444  0.7087 -0.2517 -0.3242
   82SAPS    C1 7631   1.324   3.256  10.424  0.1826  0.3832  0.2321
   82SAPS    HA 7632   1.233   3.316  10.406  1.1828  0.7236 -5.2972
   82SAPS    HB 7633   1.367   3.294  10.520  1.7875 -1.2951  0.2454
   82SAPS    C2 7634   1.433   3.270  10.316  0.2414 -0.7035 -0.3344
   82SAPS    HS 7635   1.449   3.376  10.287  1.1947 -0.3618  1.3538
   82SAPS   O21 7636   1.391   3.195  10.199 -0.1521 -0.6223  0.0230
   82SAPS   C21 7637   1.288   3.242  10.135  0.1449 -0.3751  0.4850
   82SAPS   O22 7638   1.239   3.353  10.132  0.3072  0.2465 -0.5445
   82SAPS   C22 7639   1.248   3.144  10.022 -0.6079  0.2771  0.1852
   82SAPS   H2R 7640   1.281   3.184   9.924  0.4645  0.4828  0.6185
   82SAPS   H2S 7641   1.318   3.058  10.022  1.5997  1.9652 -1.0505
   82SAPS    C3 7642   1.569   3.223  10.376  0.4109  0.7022 -0.4343
   82SAPS    HX 7643   1.547   3.122  10.417 -1.3186  1.6869  1.2276
   82SAPS    HY 7644   1.600   3.282  10.465  0.3887 -1.3477  1.0011
   82SAPS   O31 7645   1.675   3.218  10.281 -0.6698 -0.1883 -0.4267
   82SAPS   C31 7646   1.730   3.330  10.245 -0.6687  0.0469 -0.1760
   82SAPS   O32 7647   1.688   3.439  10.282  0.2520  0.1894 -0.1372
   82SAPS   C32 7648   1.859   3.302  10.164  0.0064  0.3690  0.4078
   82SAPS   H2X 7649   1.916   3.223  10.217  1.0312  0.2169 -0.8790
   82SAPS   H2Y 7650   1.910   3.400  10.155 -0.1446  0.3702 -0.5434
   82SAPS   C23 7651   1.100   3.082  10.030 -0.7601  0.4760  0.2174
   82SAPS   H3R 7652   1.022   3.155  10.060  1.3907  2.8811  0.2643
   82SAPS   H3S 7653   1.094   3.009  10.114  2.3625  0.1103  0.2465
   82SAPS   C24 7654   1.055   3.025   9.891 -0.2526 -0.1475  0.6647
   82SAPS   H4R 7655   0.965   2.962   9.908 -1.6689  1.7505  0.5669
   82SAPS   H4S 7656   1.130   2.952   9.856  0.8358  1.3817 -0.3013
   82SAPS   C25 7657   1.026   3.130   9.777  0.3049  0.0920  0.5331
   82SAPS   H5R 7658   0.944   3.202   9.792  0.3367  0.6380 -1.5314
   82SAPS   C26 7659   1.099   3.161   9.664 -0.3657  0.0072 -0.2607
   82SAPS   H6R 7660   1.075   3.248   9.601  1.4907  1.2671  0.6728
   82SAPS   C27 7661   1.218   3.084   9.609  0.2302 -0.3265  0.1685
   82SAPS   H7R 7662   1.179   3.018   9.529  0.6030  1.9600 -2.0318
   82SAPS   H7S 7663   1.262   3.029   9.694  0.4429 -2.4165 -1.2199
   82SAPS   C28 7664   1.316   3.180   9.545 -0.0047  0.9825 -0.3979
   82SAPS   H8R 7665   1.350   3.248   9.623 -0.6182 -0.3668  1.0997
   82SAPS   C29 7666   1.347   3.193   9.411  0.0367  0.0256  0.2873
   82SAPS   H9R 7667   1.382   3.295   9.387  1.1827  0.5111  3.5965
   82SAPS  C210 7668   1.283   3.122   9.287 -0.0311 -0.2008 -0.4046
   82SAPS  H10R 7669   1.288   3.202   9.210 -0.3508 -0.3520 -0.5852
   82SAPS  H10S 7670   1.175   3.098   9.299 -0.5407  2.0485  0.0589
   82SAPS  C211 7671   1.349   2.993   9.253 -0.2711  0.1229 -0.1473
   82SAPS  H11R 7672   1.369   2.922   9.335 -1.8822 -1.0572 -0.7176
   82SAPS  C212 7673   1.371   2.957   9.122 -0.7115 -0.3763 -0.3757
   82SAPS  H12R 7674   1.412   2.858   9.096 -0.8429 -0.0957 -1.7023
   82SAPS  C213 7675   1.334   3.044   9.006 -0.3369 -0.3493  0.0154
   82SAPS  H13R 7676   1.408   3.029   8.924  0.1504 -1.2853  0.6032
   82SAPS  H13S 7677   1.365   3.150   9.019  0.4870 -0.5403 -0.3117
   82SAPS  C214 7678   1.201   3.028   8.942  0.2871  0.5306 -0.9941
   82SAPS  H14R 7679   1.163   2.925   8.946 -3.4201  1.7732  0.3196
   82SAPS  C215 7680   1.121   3.133   8.897 -0.9335 -0.5675  0.0332
   82SAPS  H15R 7681   1.024   3.104   8.854 -0.4140 -3.1537  0.4768
   82SAPS  C216 7682   1.150   3.281   8.888 -0.8386  0.3027  0.0595
   82SAPS  H16R 7683   1.125   3.303   8.782 -0.3946  1.9891  0.2821
   82SAPS  H16S 7684   1.260   3.282   8.901 -0.9558 -1.3193  1.5711
   82SAPS  C217 7685   1.075   3.376   8.986 -0.5018  0.6292  0.1346
   82SAPS  H17R 7686   1.091   3.483   8.960  0.2856  0.0845 -1.8040
   82SAPS  H17S 7687   1.105   3.373   9.092  0.4019  1.9617 -0.0541
   82SAPS  C218 7688   0.921   3.352   8.990 -1.0018  0.8104  0.2921
   82SAPS  H18R 7689   0.880   3.414   9.072 -0.3803 -2.0277  2.9521
   82SAPS  H18S 7690   0.898   3.244   9.006 -0.6077  0.4223 -1.5306
   82SAPS  C219 7691   0.852   3.372   8.854 -0.5110 -0.5401  0.4044
   82SAPS  H19R 7692   0.870   3.290   8.782 -2.0735 -0.6853  0.1603
   82SAPS  H19S 7693   0.902   3.461   8.809 -2.3011  0.2559 -0.0997
   82SAPS  C220 7694   0.705   3.405   8.867  0.2940  0.2180 -0.6058
   82SAPS  H20R 7695   0.662   3.314   8.915  1.7034  0.7220  1.7558
   82SAPS  H20S 7696   0.659   3.434   8.770 -1.7725  0.6873  0.4690
   82SAPS  H20T 7697   0.698   3.495   8.931  1.6068 -0.1568  0.1051
   82SAPS   C33 7698   1.823   3.244  10.020 -0.0075  0.0020  0.6772
   82SAPS   H3X 7699   1.761   3.154  10.037 -2.1858  1.4365  0.6645
   82SAPS   H3Y 7700   1.914   3.219   9.962  0.6024  0.8808  1.2298
   82SAPS   C34 7701   1.738   3.350   9.935 -0.8527 -0.1584 -0.7434
   82SAPS   H4X 7702   1.799   3.440   9.957 -1.4516 -0.0723  0.6373
   82SAPS   H4Y 7703   1.632   3.348   9.965 -0.8254 -2.0530 -0.6995
   82SAPS   C35 7704   1.744   3.331   9.787 -0.2586  0.0850 -0.4024
   82SAPS   H5X 7705   1.736   3.223   9.762  1.2376 -0.2028  0.2792
   82SAPS   H5Y 7706   1.846   3.360   9.754 -0.1760 -0.8640 -1.0422
   82SAPS   C36 7707   1.646   3.424   9.721  0.5155 -0.3230  0.2193
   82SAPS   H6X 7708   1.671   3.527   9.755 -1.1606  0.9995 -2.2280
   82SAPS   H6Y 7709   1.544   3.400   9.757  0.4924 -0.6766 -0.0833
   82SAPS   C37 7710   1.658   3.425   9.568  0.0941  0.0966  0.5482
   82SAPS   H7X 7711   1.585   3.502   9.535 -1.1327 -0.5796  1.5836
   82SAPS   H7Y 7712   1.626   3.328   9.524  0.0847  0.0522  0.6521
   82SAPS   C38 7713   1.789   3.465   9.504 -0.4039 -0.8485  1.0077
   82SAPS   H8X 7714   1.872   3.395   9.526  1.5137 -0.0183 -2.8372
   82SAPS   H8Y 7715   1.815   3.570   9.532  0.4025 -0.3487 -1.3920
   82SAPS   C39 7716   1.786   3.470   9.343 -0.3572  0.5341 -0.0335
   82SAPS   H9X 7717   1.894   3.466   9.318  0.0555  0.0460  1.6947
   82SAPS   H9Y 7718   1.746   3.568   9.308 -0.5983  0.3734 -0.2178
   82SAPS  C310 7719   1.711   3.358   9.287 -0.6517 -0.1748 -0.2022
   82SAPS  H10X 7720   1.607   3.361   9.327 -0.5865 -0.7011  0.0087
   82SAPS  H10Y 7721   1.760   3.262   9.311 -1.6997 -0.7862 -0.4249
   82SAPS  C311 7722   1.687   3.366   9.134  0.7814  0.8907  0.2723
   82SAPS  H11X 7723   1.642   3.458   9.090 -2.8725 -0.2263  1.2562
   82SAPS  H11Y 7724   1.615   3.283   9.115  1.0521  0.9624 -1.1686
   82SAPS  C312 7725   1.813   3.346   9.043  0.3884  0.7135 -0.0920
   82SAPS  H12X 7726   1.855   3.246   9.071 -1.0247 -0.3024 -1.4215
   82SAPS  H12Y 7727   1.895   3.418   9.065 -0.0647  1.5154 -0.9941
   82SAPS  C313 7728   1.793   3.350   8.894 -0.9681  0.3636  0.2706
   82SAPS  H13X 7729   1.895   3.370   8.853 -1.6697  0.7620 -1.3555
   82SAPS  H13Y 7730   1.726   3.434   8.864 -0.2050  0.8810 -0.0207
   82SAPS  C314 7731   1.723   3.229   8.836 -0.4291  1.2998 -0.4137
   82SAPS  H14X 7732   1.629   3.213   8.893 -0.0381  3.0528  0.8261
   82SAPS  H14Y 7733   1.794   3.145   8.849 -0.5386  1.4086  1.0374
   82SAPS  C315 7734   1.678   3.244   8.694 -0.6081  0.3511  0.4171
   82SAPS  H15X 7735   1.769   3.262   8.634 -1.8631 -0.2095 -1.7836
   82SAPS  H15Y 7736   1.610   3.331   8.679  2.2395  2.8905  1.3007
   82SAPS  C316 7737   1.616   3.113   8.654  0.4490 -0.3389  0.3315
   82SAPS  H16X 7738   1.535   3.105   8.729  1.4733  2.6018  1.8960
   82SAPS  H16Y 7739   1.678   3.021   8.659  0.5759 -0.2369  0.6504
   82SAPS  C317 7740   1.570   3.125   8.509 -0.3820 -0.2540 -0.1629
   82SAPS  H17X 7741   1.655   3.125   8.437 -0.7145  2.0766 -0.6207
   82SAPS  H17Y 7742   1.516   3.219   8.485  1.5566  0.3469 -2.6544
   82SAPS  C318 7743   1.478   3.004   8.491 -0.1242  0.1398 -0.1148
   82SAPS  H18X 7744   1.536   2.913   8.518  2.5906  2.4796  2.8283
   82SAPS  H18Y 7745   1.441   3.001   8.386  0.3998  0.9454 -0.3293
   82SAPS  H18Z 7746   1.389   3.013   8.556 -0.7144 -2.2986 -0.4902
   83SAPS     N 7747   2.821   3.591  11.152 -0.5931 -0.2040 -0.3459
   83SAPS   HN1 7748   2.766   3.517  11.104  0.8633 -0.8145 -1.1391
   83SAPS   HN2 7749   2.777   3.622  11.241  1.4237  2.0776 -0.0214
   83SAPS   HN3 7750   2.826   3.676  11.091  0.7787  0.2494  0.3405
   83SAPS   C12 7751   2.949   3.535  11.195 -0.3000  0.0824 -0.4145
   83SAPS  H12A 7752   3.007   3.611  11.245 -1.7741  1.5439 -0.8238
   83SAPS   C13 7753   2.938   3.421  11.306  0.0419  0.1803  0.4130
   83SAPS  O13A 7754   2.829   3.373  11.342 -0.3471 -0.0705 -0.5961
   83SAPS  O13B 7755   3.052   3.382  11.355 -0.3228 -0.0164 -0.0047
   83SAPS   C11 7756   3.019   3.477  11.068 -0.3328 -0.1237  0.5500
   83SAPS  H11A 7757   3.127   3.457  11.087 -0.5090 -1.0004  0.6913
   83SAPS  H11B 7758   3.016   3.550  10.985 -1.3829  0.0131  0.6988
   83SAPS     P 7759   2.866   3.354  10.886  0.2828  0.0244  0.0136
   83SAPS   O13 7760   2.905   3.239  10.808  0.1872  0.1822 -0.5179
   83SAPS   O14 7761   2.719   3.355  10.928 -0.5882 -0.3135 -0.1927
   83SAPS   O12 7762   2.949   3.358  11.026  0.0859 -0.3266 -0.0666
   83SAPS   O11 7763   2.901   3.486  10.807  0.1906  0.8459 -0.2213
   83SAPS    C1 7764   2.807   3.568  10.734  0.3659  0.2031 -0.0367
   83SAPS    HA 7765   2.719   3.601  10.794 -1.2632 -0.8775 -1.6935
   83SAPS    HB 7766   2.860   3.662  10.707 -0.3000  0.9007  0.9958
   83SAPS    C2 7767   2.760   3.508  10.599 -0.2802 -0.3191  0.4978
   83SAPS    HS 7768   2.730   3.403  10.618  1.3905 -1.2296 -1.5339
   83SAPS   O21 7769   2.879   3.512  10.514  0.0390 -0.6482  0.1327
   83SAPS   C21 7770   2.919   3.414  10.452 -0.3088 -0.0450  0.1953
   83SAPS   O22 7771   2.869   3.301  10.457  0.2998  0.1991 -0.5833
   83SAPS   C22 7772   3.059   3.443  10.383  0.2928  0.1380 -0.2785
   83SAPS   H2R 7773   3.134   3.478  10.457  0.8622  2.4558 -1.8401
   83SAPS   H2S 7774   3.100   3.346  10.348 -0.1521  0.2421 -1.1173
   83SAPS    C3 7775   2.645   3.599  10.536 -0.6295  0.7892  0.7136
   83SAPS    HX 7776   2.694   3.696  10.513  2.0107 -0.6034  0.1857
   83SAPS    HY 7777   2.565   3.609  10.613  0.4457 -0.9145  2.1175
   83SAPS   O31 7778   2.586   3.541  10.418  0.1000 -0.1567  0.4866
   83SAPS   C31 7779   2.501   3.441  10.439  0.1770  0.1568 -0.5019
   83SAPS   O32 7780   2.478   3.386  10.551  0.1968  0.8733  0.2053
   83SAPS   C32 7781   2.457   3.387  10.302  0.0657  0.1801 -0.0471
   83SAPS   H2X 7782   2.403   3.471  10.253  0.4723 -0.2815 -1.3354
   83SAPS   H2Y 7783   2.395   3.296  10.316 -0.8477  0.6802 -0.7408
   83SAPS   C23 7784   3.055   3.536  10.269 -0.4323  0.0370  0.5595
   83SAPS   H3R 7785   3.159   3.537  10.231 -1.0230  1.0539 -1.1821
   83SAPS   H3S 7786   3.031   3.639  10.304 -0.0699  0.6443 -0.9077
   83SAPS   C24 7787   2.946   3.517  10.169  0.4222  0.3735  0.2129
   83SAPS   H4R 7788   2.969   3.602  10.102 -0.7506 -0.0124 -0.7216
   83SAPS   H4S 7789   2.846   3.541  10.210  0.2783 -0.8477  0.6319
   83SAPS   C25 7790   2.946   3.379  10.101 -0.1756 -0.1551 -0.7254
   83SAPS   H5R 7791   2.874   3.305  10.140  1.7934 -2.1479 -0.7102
   83SAPS   C26 7792   3.018   3.346   9.989  0.4309  0.2876 -0.4658
   83SAPS   H6R 7793   3.021   3.243   9.950  0.5478  0.9658 -2.3637
   83SAPS   C27 7794   3.114   3.427   9.909  0.8005 -0.4771 -0.4394
   83SAPS   H7R 7795   3.176   3.358   9.847  0.8849  0.3900 -1.3323
   83SAPS   H7S 7796   3.182   3.484   9.977  1.3498  3.3720 -3.8446
   83SAPS   C28 7797   3.047   3.534   9.828  0.2908  0.3360 -0.2863
   83SAPS   H8R 7798   2.977   3.594   9.889  1.2302 -0.2158  1.4035
   83SAPS   C29 7799   3.050   3.543   9.692 -0.1673 -0.2591  0.1892
   83SAPS   H9R 7800   3.010   3.629   9.637  0.5477  0.3019  0.5239
   83SAPS  C210 7801   3.133   3.455   9.592  0.3389  0.7684 -0.0414
   83SAPS  H10R 7802   3.192   3.369   9.630 -1.6871 -1.2468 -1.2487
   83SAPS  H10S 7803   3.194   3.529   9.536 -0.9169  1.1636 -0.9205
   83SAPS  C211 7804   3.028   3.398   9.499  0.2040 -0.3889 -0.6443
   83SAPS  H11R 7805   2.949   3.342   9.550  0.1335  0.3348  0.0456
   83SAPS  C212 7806   3.034   3.399   9.366 -0.4420 -0.4302 -0.6063
   83SAPS  H12R 7807   2.953   3.345   9.316  0.0984 -1.9974  0.1652
   83SAPS  C213 7808   3.129   3.459   9.268  0.2422  0.4203 -0.5922
   83SAPS  H13R 7809   3.232   3.437   9.303  0.5455  1.7318 -0.6123
   83SAPS  H13S 7810   3.113   3.569   9.278 -0.6423  0.3085 -0.7043
   83SAPS  C214 7811   3.118   3.433   9.122  0.2004  0.7850 -0.1512
   83SAPS  H14R 7812   3.017   3.409   9.084  1.0511 -1.4697 -1.2055
   83SAPS  C215 7813   3.211   3.431   9.025 -0.1940 -0.3270  0.6651
   83SAPS  H15R 7814   3.185   3.401   8.923  0.4839  1.4869 -0.0842
   83SAPS  C216 7815   3.358   3.459   9.047  1.0575  0.1823 -0.4521
   83SAPS  H16R 7816   3.414   3.381   8.992 -1.1242 -2.4557  0.8331
   83SAPS  H16S 7817   3.387   3.436   9.152 -2.0902  0.6008  0.6423
   83SAPS  C217 7818   3.404   3.602   9.004  0.1554  0.5036 -0.4367
   83SAPS  H17R 7819   3.368   3.672   9.083  0.4749  1.3721 -1.0405
   83SAPS  H17S 7820   3.357   3.634   8.909 -0.5791 -3.1711 -1.4499
   83SAPS  C218 7821   3.551   3.629   8.975 -0.0618  0.6064  0.2860
   83SAPS  H18R 7822   3.619   3.565   9.035 -0.2353 -0.8686 -1.0276
   83SAPS  H18S 7823   3.570   3.737   8.991 -0.6905  0.8404 -0.4889
   83SAPS  C219 7824   3.588   3.586   8.823  0.4105 -0.0565  0.4321
   83SAPS  H19R 7825   3.517   3.637   8.754 -0.7797 -1.9889  0.1660
   83SAPS  H19S 7826   3.580   3.477   8.808 -3.8228  0.1957 -0.5994
   83SAPS  C220 7827   3.733   3.606   8.784 -0.4225  0.1992 -0.4436
   83SAPS  H20R 7828   3.777   3.529   8.717  0.4182  1.5518 -1.5031
   83SAPS  H20S 7829   3.794   3.585   8.874 -0.1201 -1.0144 -0.9237
   83SAPS  H20T 7830   3.755   3.709   8.748 -1.8667  1.9407  3.1106
   83SAPS   C33 7831   2.579   3.359  10.207 -0.3037  0.4895 -0.0150
   83SAPS   H3X 7832   2.637   3.272  10.245 -0.2496  1.9245  3.6162
   83SAPS   H3Y 7833   2.644   3.448  10.201  1.9018 -1.0267  0.0694
   83SAPS   C34 7834   2.519   3.322  10.073 -0.3711 -0.3466 -0.1940
   83SAPS   H4X 7835   2.449   3.401  10.039  0.8267  0.2976 -1.2159
   83SAPS   H4Y 7836   2.467   3.225  10.091 -0.4740 -0.2389  0.0987
   83SAPS   C35 7837   2.623   3.303   9.958 -0.2746  0.4081 -0.3345
   83SAPS   H5X 7838   2.699   3.230   9.992  0.7562  2.3206  1.7135
   83SAPS   H5Y 7839   2.668   3.404   9.953 -1.8826  1.0997 -2.1891
   83SAPS   C36 7840   2.566   3.270   9.822 -0.3759  1.4243 -0.1260
   83SAPS   H6X 7841   2.460   3.304   9.815 -0.2636  1.4939 -1.9202
   83SAPS   H6Y 7842   2.560   3.159   9.816  3.9080  1.0879 -1.7185
   83SAPS   C37 7843   2.647   3.315   9.696 -0.1231 -0.0361 -0.7223
   83SAPS   H7X 7844   2.758   3.307   9.705  0.0406  0.6522 -1.9598
   83SAPS   H7Y 7845   2.614   3.420   9.684 -0.0092 -0.1232 -1.8856
   83SAPS   C38 7846   2.611   3.245   9.561 -0.4753 -0.2523  0.4009
   83SAPS   H8X 7847   2.502   3.261   9.545 -0.5424  0.2935  1.3145
   83SAPS   H8Y 7848   2.631   3.136   9.568 -1.7459 -0.4434  1.6236
   83SAPS   C39 7849   2.691   3.287   9.440 -0.4660 -0.1296 -0.8288
   83SAPS   H9X 7850   2.798   3.262   9.453 -0.8340 -1.2724  0.1995
   83SAPS   H9Y 7851   2.676   3.397   9.434  0.9857  0.0725 -1.2875
   83SAPS  C310 7852   2.643   3.204   9.323  0.3861  1.0118 -1.1959
   83SAPS  H10X 7853   2.532   3.199   9.321  0.4578 -0.6400 -1.8448
   83SAPS  H10Y 7854   2.682   3.102   9.342 -0.5439  0.7943 -0.3383
   83SAPS  C311 7855   2.681   3.262   9.190 -0.4765  0.2957  0.6106
   83SAPS  H11X 7856   2.790   3.273   9.175 -0.6022  0.0924 -0.5872
   83SAPS  H11Y 7857   2.643   3.366   9.186  1.1713  0.9492  1.2282
   83SAPS  C312 7858   2.623   3.188   9.075  0.4292 -0.2633 -0.1763
   83SAPS  H12X 7859   2.513   3.189   9.087  0.5702 -0.6436  1.4214
   83SAPS  H12Y 7860   2.657   3.082   9.077  0.1974 -0.3383  2.2771
   83SAPS  C313 7861   2.650   3.255   8.948 -0.3024  0.6708 -0.4444
   83SAPS  H13X 7862   2.759   3.278   8.950  0.0710 -0.9798 -0.0120
   83SAPS  H13Y 7863   2.584   3.344   8.946  0.4294  1.2383  0.4597
   83SAPS  C314 7864   2.603   3.167   8.829 -0.4999  0.0521 -0.0522
   83SAPS  H14X 7865   2.492   3.174   8.841 -0.3926 -0.0227  1.0006
   83SAPS  H14Y 7866   2.628   3.061   8.851 -2.3806 -0.2148  1.0918
   83SAPS  C315 7867   2.646   3.224   8.694  0.3329  0.3299 -0.4021
   83SAPS  H15X 7868   2.631   3.334   8.703  0.5340  0.2569  1.0930
   83SAPS  H15Y 7869   2.572   3.184   8.621  0.5402  0.7420 -0.8452
   83SAPS  C316 7870   2.793   3.186   8.656 -0.2684 -0.5405 -0.3113
   83SAPS  H16X 7871   2.804   3.079   8.687 -0.0751 -0.2665  0.5872
   83SAPS  H16Y 7872   2.843   3.245   8.736 -1.1144  0.0073 -0.1724
   83SAPS  C317 7873   2.844   3.222   8.515  0.1743 -0.0091 -0.0939
   83SAPS  H17X 7874   2.830   3.331   8.499  0.9647 -0.2110 -2.7217
   83SAPS  H17Y 7875   2.779   3.163   8.446 -0.2399 -1.6210  1.6126
   83SAPS  C318 7876   2.985   3.180   8.491  0.6807 -0.2629  0.1696
   83SAPS  H18X 7877   2.997   3.069   8.491 -0.9896 -0.4960 -1.5769
   83SAPS  H18Y 7878   3.042   3.225   8.575 -1.6463 -0.3875  1.8861
   83SAPS  H18Z 7879   3.032   3.221   8.399 -0.0987 -0.9926 -0.5754
   84SAPS     N 7880   5.860   3.793  11.000 -0.5804  0.1905 -0.3857
   84SAPS   HN1 7881   5.881   3.789  11.102  0.6312 -1.3074 -0.6548
   84SAPS   HN2 7882   5.760   3.777  10.976 -0.7144 -0.2858  0.4529
   84SAPS   HN3 7883   5.908   3.705  10.972 -0.8257  0.5371 -1.9734
   84SAPS   C12 7884   5.917   3.908  10.934  0.6436 -0.4495  0.2087
   84SAPS  H12A 7885   5.869   3.988  10.988  0.4900  0.4494 -1.2176
   84SAPS   C13 7886   6.067   3.925  10.922  0.6866  0.7014 -0.5916
   84SAPS  O13A 7887   6.134   3.839  10.985  0.0893 -0.5356 -0.1914
   84SAPS  O13B 7888   6.107   4.038  10.893 -0.0374  0.3832 -0.0163
   84SAPS   C11 7889   5.863   3.919  10.793  0.3235 -0.6045  0.0929
   84SAPS  H11A 7890   5.867   3.826  10.732 -1.7337  0.1756 -1.3471
   84SAPS  H11B 7891   5.921   3.994  10.735 -0.6239 -0.8022 -1.1495
   84SAPS     P 7892   5.654   4.062  10.711  0.1733 -0.3441  0.3822
   84SAPS   O13 7893   5.510   4.050  10.743  0.3250  0.2711 -0.5367
   84SAPS   O14 7894   5.714   4.195  10.731  0.0240  0.6788  0.1539
   84SAPS   O12 7895   5.727   3.956  10.796  0.6980  0.8734 -0.3037
   84SAPS   O11 7896   5.673   4.007  10.566  0.1847  0.1538  0.4026
   84SAPS    C1 7897   5.639   3.877  10.519  0.6287  0.0637 -0.2564
   84SAPS    HA 7898   5.711   3.846  10.441  1.9712 -0.2843  1.0695
   84SAPS    HB 7899   5.662   3.805  10.601 -0.3017 -1.3195 -1.1702
   84SAPS    C2 7900   5.494   3.885  10.463 -0.2817  0.0316  0.0827
   84SAPS    HS 7901   5.419   3.888  10.544  0.6273  1.3682  0.9097
   84SAPS   O21 7902   5.477   3.767  10.378  0.3006  0.0942 -0.1636
   84SAPS   C21 7903   5.431   3.660  10.433 -0.2492  0.5169 -0.6988
   84SAPS   O22 7904   5.397   3.647  10.548  0.5855 -0.5201  0.1276
   84SAPS   C22 7905   5.435   3.548  10.321  0.2375  0.9052  0.1104
   84SAPS   H2R 7906   5.440   3.581  10.215  0.5859 -2.8727 -1.2050
   84SAPS   H2S 7907   5.530   3.495  10.344  0.6854  1.9516  0.7577
   84SAPS    C3 7908   5.484   4.010  10.372  0.2072  0.0432  0.2557
   84SAPS    HX 7909   5.559   4.003  10.291 -0.5474 -0.9131 -0.3744
   84SAPS    HY 7910   5.488   4.108  10.424 -1.9461  0.5894 -0.5148
   84SAPS   O31 7911   5.349   4.004  10.317 -0.7340  0.5425  0.7522
   84SAPS   C31 7912   5.334   3.974  10.191  0.0132  0.4414 -0.5280
   84SAPS   O32 7913   5.426   3.948  10.111  0.1894 -0.1589  0.0033
   84SAPS   C32 7914   5.180   3.971  10.164 -1.1845  0.2960  0.4964
   84SAPS   H2X 7915   5.139   4.069  10.197  1.3518  1.5358  0.1929
   84SAPS   H2Y 7916   5.137   3.895  10.232 -0.9831 -1.3944 -1.2071
   84SAPS   C23 7917   5.317   3.452  10.328  0.3657  0.4898  0.3049
   84SAPS   H3R 7918   5.321   3.397  10.424 -0.4150 -0.1096  0.0071
   84SAPS   H3S 7919   5.327   3.379  10.244  0.0700 -0.8570  1.4048
   84SAPS   C24 7920   5.175   3.512  10.344 -0.2336  0.7231 -0.9131
   84SAPS   H4R 7921   5.175   3.574  10.436 -2.1759 -1.6643  0.8692
   84SAPS   H4S 7922   5.106   3.427  10.364 -1.5276  1.8868 -0.2572
   84SAPS   C25 7923   5.138   3.589  10.221  0.2076 -0.1057 -0.1742
   84SAPS   H5R 7924   5.215   3.638  10.158 -0.7583  0.8532 -0.6300
   84SAPS   C26 7925   5.015   3.594  10.180  0.3057 -0.0700  0.2904
   84SAPS   H6R 7926   4.989   3.649  10.089 -0.4011  0.0337  0.5503
   84SAPS   C27 7927   4.902   3.525  10.245  1.1423  0.2737  0.4477
   84SAPS   H7R 7928   4.805   3.575  10.221  1.3908  0.2036 -0.7890
   84SAPS   H7S 7929   4.897   3.550  10.353  1.1992 -0.4437  0.6210
   84SAPS   C28 7930   4.875   3.378  10.231  0.1810 -0.2334  0.1402
   84SAPS   H8R 7931   4.864   3.328  10.328  0.2731  0.1923  0.3717
   84SAPS   C29 7932   4.852   3.315  10.114 -0.9822 -0.2506 -0.1255
   84SAPS   H9R 7933   4.819   3.211  10.116 -0.4707 -0.4147  1.1204
   84SAPS  C210 7934   4.850   3.377   9.977 -0.8459  0.1857  0.0394
   84SAPS  H10R 7935   4.833   3.487   9.981  1.2367  0.5464 -0.0132
   84SAPS  H10S 7936   4.761   3.341   9.922 -1.9617 -0.2896  2.0586
   84SAPS  C211 7937   4.982   3.357   9.903 -0.4992  0.1761  0.1191
   84SAPS  H11R 7938   5.069   3.332   9.965 -1.7628 -1.8061  1.2185
   84SAPS  C212 7939   4.999   3.340   9.772  0.0010  0.1082 -0.3526
   84SAPS  H12R 7940   5.097   3.307   9.736 -1.0500 -1.4918 -1.8991
   84SAPS  C213 7941   4.890   3.338   9.666 -0.6437 -0.6515 -0.1321
   84SAPS  H13R 7942   4.789   3.332   9.711 -0.1181 -0.6085  1.0945
   84SAPS  H13S 7943   4.900   3.240   9.613  0.6650 -0.6585  0.0920
   84SAPS  C214 7944   4.887   3.447   9.563  0.5280 -0.2873  0.2345
   84SAPS  H14R 7945   4.810   3.524   9.577  1.4659  0.6765  0.1602
   84SAPS  C215 7946   4.960   3.455   9.448  0.6233  0.3287  0.3730
   84SAPS  H15R 7947   4.942   3.539   9.379  2.8023  0.2892 -0.3067
   84SAPS  C216 7948   5.059   3.351   9.400 -0.0628 -0.2328  0.0611
   84SAPS  H16R 7949   5.125   3.312   9.480  2.3080  1.7373 -0.7844
   84SAPS  H16S 7950   5.127   3.409   9.334  0.0371 -0.9996 -0.5181
   84SAPS  C217 7951   5.001   3.241   9.311  0.0103  0.1460 -0.0615
   84SAPS  H17R 7952   4.928   3.177   9.365  0.3169 -1.4096 -1.4260
   84SAPS  H17S 7953   5.091   3.181   9.286  1.2241  1.6672  0.5173
   84SAPS  C218 7954   4.928   3.298   9.187 -0.5943 -0.6328 -0.3585
   84SAPS  H18R 7955   4.988   3.379   9.140 -1.0487 -0.5906 -0.8720
   84SAPS  H18S 7956   4.834   3.343   9.226  0.7108  1.1118  0.9198
   84SAPS  C219 7957   4.901   3.200   9.077 -0.2907 -1.0210  0.1493
   84SAPS  H19R 7958   4.838   3.118   9.117  0.3417 -1.8742 -0.5575
   84SAPS  H19S 7959   4.993   3.142   9.053 -1.9969 -2.4145 -3.8660
   84SAPS  C220 7960   4.854   3.253   8.940 -0.5607  0.3473  0.2114
   84SAPS  H20R 7961   4.922   3.339   8.924  0.5897  0.0785  3.0503
   84SAPS  H20S 7962   4.747   3.283   8.931 -0.0188  1.7948 -2.2956
   84SAPS  H20T 7963   4.862   3.177   8.860 -1.5006 -0.2214  0.6317
   84SAPS   C33 7964   5.146   3.939  10.020 -0.6396 -0.0298  0.1763
   84SAPS   H3X 7965   5.042   3.900  10.022 -0.9773  0.8430 -0.0761
   84SAPS   H3Y 7966   5.221   3.863   9.987  0.6783  1.3302 -0.0519
   84SAPS   C34 7967   5.129   4.064   9.933  0.3576 -0.3892  0.2909
   84SAPS   H4X 7968   5.219   4.125   9.954 -0.6146  1.6190 -1.0573
   84SAPS   H4Y 7969   5.046   4.125   9.974  0.4343 -0.1665  0.1115
   84SAPS   C35 7970   5.106   4.032   9.783 -0.8534 -0.3918 -0.8213
   84SAPS   H5X 7971   5.066   4.122   9.733 -1.5478 -0.9076 -1.2114
   84SAPS   H5Y 7972   5.014   3.970   9.783  0.0036 -1.7279 -0.5512
   84SAPS   C36 7973   5.222   3.959   9.712 -0.8338 -0.6807  0.0331
   84SAPS   H6X 7974   5.247   3.873   9.777 -1.4178 -0.6281  0.3354
   84SAPS   H6Y 7975   5.315   4.018   9.721 -0.3933 -0.7683 -2.9642
   84SAPS   C37 7976   5.180   3.930   9.568 -0.0924 -0.3554 -0.0337
   84SAPS   H7X 7977   5.091   3.862   9.571  0.6960 -1.3884  0.4842
   84SAPS   H7Y 7978   5.266   3.881   9.519  0.5525  1.2568 -0.5566
   84SAPS   C38 7979   5.148   4.057   9.484 -0.3095 -0.3707  0.2066
   84SAPS   H8X 7980   5.229   4.133   9.488 -1.3476  0.9018 -1.5325
   84SAPS   H8Y 7981   5.052   4.088   9.530 -0.9616 -3.8915  1.5648
   84SAPS   C39 7982   5.130   4.033   9.332  0.7777 -0.3680 -0.6754
   84SAPS   H9X 7983   5.225   4.027   9.274 -1.3296  1.3495 -4.6340
   84SAPS   H9Y 7984   5.057   4.104   9.288 -2.0528 -2.9772 -0.5366
   84SAPS  C310 7985   5.050   3.901   9.300  0.8142  0.3072 -0.5424
   84SAPS  H10X 7986   4.961   3.886   9.366  0.0258  0.4802 -1.5385
   84SAPS  H10Y 7987   5.113   3.813   9.324 -1.9309 -1.8705 -0.7431
   84SAPS  C311 7988   5.008   3.901   9.150  0.6638 -0.6518 -0.1660
   84SAPS  H11X 7989   5.076   3.972   9.100 -1.2057  1.1295 -0.3018
   84SAPS  H11Y 7990   4.902   3.936   9.151  0.3023 -1.6992  0.3398
   84SAPS  C312 7991   5.004   3.763   9.076 -0.3780 -0.0597  0.5091
   84SAPS  H12X 7992   4.937   3.698   9.137  2.7913 -1.9658  2.2233
   84SAPS  H12Y 7993   5.102   3.711   9.075 -1.0333 -1.3690  0.7033
   84SAPS  C313 7994   4.954   3.759   8.924  0.0308  0.2928  0.1857
   84SAPS  H13X 7995   5.033   3.801   8.858 -1.5247  2.5164 -0.4027
   84SAPS  H13Y 7996   4.877   3.839   8.920  0.9010  1.3109  2.2745
   84SAPS  C314 7997   4.916   3.624   8.863 -0.6618 -0.5569 -0.0395
   84SAPS  H14X 7998   4.853   3.560   8.928 -1.9154 -0.3752 -1.0546
   84SAPS  H14Y 7999   5.013   3.573   8.840 -1.1747 -1.5030 -0.1425
   84SAPS  C315 8000   4.833   3.650   8.738 -0.6189  0.1403  0.1163
   84SAPS  H15X 8001   4.744   3.712   8.760 -0.3363  1.2505 -1.6900
   84SAPS  H15Y 8002   4.795   3.548   8.714  1.3730 -0.6138 -0.0531
   84SAPS  C316 8003   4.904   3.719   8.620 -0.4000 -0.3524  0.7380
   84SAPS  H16X 8004   4.925   3.822   8.657  0.5631 -0.9819  2.0134
   84SAPS  H16Y 8005   4.831   3.733   8.537 -0.3658  0.6389  0.8588
   84SAPS  C317 8006   5.040   3.661   8.561 -0.1055  0.5708 -0.9770
   84SAPS  H17X 8007   5.020   3.552   8.552 -0.9571  0.0873  4.0670
   84SAPS  H17Y 8008   5.114   3.679   8.642 -3.6838 -0.1981  2.7743
   84SAPS  C318 8009   5.104   3.735   8.434  0.6302 -0.2782 -0.9623
   84SAPS  H18X 8010   5.025   3.757   8.359 -0.3703  3.6395  0.9378
   84SAPS  H18Y 8011   5.165   3.655   8.386 -0.2197 -1.6836  0.2072
   84SAPS  H18Z 8012   5.159   3.828   8.463 -0.4031 -0.0729  0.4633
   85SAPS     N 8013   2.335   5.358  10.942  0.6646 -0.0554 -0.0147
   85SAPS   HN1 8014   2.391   5.378  10.856  1.7692  1.7066  1.0566
   85SAPS   HN2 8015   2.403   5.297  10.991  1.4685 -0.7269 -1.8857
   85SAPS   HN3 8016   2.256   5.295  10.918  2.4003 -2.4216  0.1513
   85SAPS   C12 8017   2.307   5.482  11.012 -0.4191  0.1697  0.5281
   85SAPS  H12A 8018   2.217   5.525  10.969 -0.1294 -1.4915 -1.8959
   85SAPS   C13 8019   2.271   5.463  11.160 -0.2361  0.6963  0.6658
   85SAPS  O13A 8020   2.276   5.350  11.206  0.3527  0.5974 -0.0854
   85SAPS  O13B 8021   2.253   5.561  11.231  0.3073  0.1700 -0.9813
   85SAPS   C11 8022   2.416   5.586  10.984 -0.4803 -0.6466 -0.4501
   85SAPS  H11A 8023   2.511   5.543  11.022  0.0824  0.8678 -0.0527
   85SAPS  H11B 8024   2.394   5.674  11.049 -1.7267 -1.7626  0.6964
   85SAPS     P 8025   2.329   5.741  10.795  0.1294 -0.3401 -0.3616
   85SAPS   O13 8026   2.280   5.825  10.906 -0.0439 -0.4000  0.8895
   85SAPS   O14 8027   2.401   5.803  10.681  0.2788  0.2104 -0.0903
   85SAPS   O12 8028   2.432   5.629  10.846  0.2410  0.0934  0.1961
   85SAPS   O11 8029   2.201   5.655  10.749 -0.1402 -0.2709 -0.0990
   85SAPS    C1 8030   2.213   5.558  10.646 -0.6783 -0.3416  0.1537
   85SAPS    HA 8031   2.310   5.505  10.636 -0.9978 -0.9329  0.1474
   85SAPS    HB 8032   2.136   5.480  10.664 -1.5222  0.6089  0.7896
   85SAPS    C2 8033   2.186   5.636  10.510  0.2509 -0.0260 -0.5265
   85SAPS    HS 8034   2.273   5.698  10.482  1.5569 -1.8787 -0.7550
   85SAPS   O21 8035   2.062   5.703  10.536  0.4352 -0.6352  0.6508
   85SAPS   C21 8036   2.054   5.813  10.455 -0.8872  0.6138  0.8532
   85SAPS   O22 8037   2.131   5.838  10.364 -0.1885 -0.2039  0.2937
   85SAPS   C22 8038   1.938   5.900  10.486 -0.1202 -0.3272  0.3523
   85SAPS   H2R 8039   1.932   5.906  10.596  0.9644 -2.6466  0.5910
   85SAPS   H2S 8040   1.954   6.006  10.456 -2.4648  0.3065  1.1210
   85SAPS    C3 8041   2.158   5.535  10.390  0.5948  0.1957 -0.3990
   85SAPS    HX 8042   2.112   5.588  10.304 -1.1095  1.2917  1.1150
   85SAPS    HY 8043   2.075   5.482  10.442 -0.0962  1.5917 -0.0586
   85SAPS   O31 8044   2.260   5.434  10.363 -0.1296  0.3249 -0.2522
   85SAPS   C31 8045   2.362   5.490  10.285 -0.6493  0.7989 -0.1098
   85SAPS   O32 8046   2.357   5.606  10.248  0.0231  0.0842 -0.6946
   85SAPS   C32 8047   2.457   5.377  10.240  0.3151 -0.3787 -0.5799
   85SAPS   H2X 8048   2.406   5.279  10.248  0.9483 -0.5480  2.4523
   85SAPS   H2Y 8049   2.529   5.378  10.325  0.0860 -0.7429 -0.3822
   85SAPS   C23 8050   1.805   5.846  10.438 -0.1859  0.5346 -0.3183
   85SAPS   H3R 8051   1.721   5.909  10.474  0.9970  2.1590 -0.2687
   85SAPS   H3S 8052   1.794   5.744  10.481  1.0045  0.0306 -1.1448
   85SAPS   C24 8053   1.812   5.858  10.288 -0.1283  0.3694  0.1818
   85SAPS   H4R 8054   1.859   5.952  10.254 -0.0009  0.4561  0.5870
   85SAPS   H4S 8055   1.710   5.860  10.244  0.5735  0.2320 -1.5352
   85SAPS   C25 8056   1.870   5.733  10.228  0.2024  0.1834  0.8007
   85SAPS   H5R 8057   1.852   5.643  10.289  2.3703 -1.1160 -0.3552
   85SAPS   C26 8058   1.937   5.723  10.114 -0.3756 -0.6422  0.3090
   85SAPS   H6R 8059   1.961   5.619  10.087 -0.9281 -0.8236  0.5079
   85SAPS   C27 8060   1.975   5.832  10.013  0.1333  0.0685 -1.1821
   85SAPS   H7R 8061   1.971   5.927  10.070 -0.5223 -0.7330  0.1539
   85SAPS   H7S 8062   1.899   5.830   9.932 -1.8713 -3.5615  0.5414
   85SAPS   C28 8063   2.116   5.816   9.960  0.2472 -0.3909 -0.1713
   85SAPS   H8R 8064   2.197   5.794  10.031  0.8936 -0.6076 -0.9532
   85SAPS   C29 8065   2.151   5.818   9.826 -0.2144 -0.2725  0.1123
   85SAPS   H9R 8066   2.257   5.811   9.797 -0.9213 -0.6379 -2.7079
   85SAPS  C210 8067   2.063   5.859   9.707 -0.1284  0.1372 -0.0541
   85SAPS  H10R 8068   2.057   5.969   9.699  1.9484  0.2247 -1.1537
   85SAPS  H10S 8069   1.957   5.829   9.716 -1.3501  2.7471 -3.4973
   85SAPS  C211 8070   2.124   5.812   9.580  0.7339 -0.2913  0.7299
   85SAPS  H11R 8071   2.167   5.711   9.589  2.3034  0.4776  2.7844
   85SAPS  C212 8072   2.152   5.887   9.475 -0.5944  0.2342 -0.0372
   85SAPS  H12R 8073   2.205   5.846   9.389 -2.4317  0.3916 -1.2967
   85SAPS  C213 8074   2.125   6.035   9.458  0.9638 -0.1922 -0.2088
   85SAPS  H13R 8075   2.019   6.048   9.488  1.2315 -0.2388  0.8193
   85SAPS  H13S 8076   2.127   6.059   9.350  0.5553 -0.3323 -0.2479
   85SAPS  C214 8077   2.216   6.128   9.535 -0.0199 -0.6258  0.1626
   85SAPS  H14R 8078   2.288   6.082   9.605  1.7498 -1.9231 -2.3187
   85SAPS  C215 8079   2.208   6.264   9.532  0.1005 -0.8863 -0.5439
   85SAPS  H15R 8080   2.277   6.329   9.588  0.7023 -0.6605 -1.5337
   85SAPS  C216 8081   2.100   6.339   9.461  0.1587  0.1055  0.3719
   85SAPS  H16R 8082   2.021   6.274   9.419  0.6275 -0.2140 -0.0236
   85SAPS  H16S 8083   2.146   6.395   9.377 -0.7659 -1.1859 -1.0381
   85SAPS  C217 8084   2.018   6.435   9.551 -0.7272  0.4172 -0.6325
   85SAPS  H17R 8085   1.996   6.385   9.648  1.0373  1.1672  0.1975
   85SAPS  H17S 8086   1.920   6.461   9.507 -1.6440  1.2199  1.7225
   85SAPS  C218 8087   2.093   6.567   9.569  0.2795  0.4628  0.4774
   85SAPS  H18R 8088   2.108   6.615   9.470 -0.3846  0.2046  0.2455
   85SAPS  H18S 8089   2.198   6.548   9.600  0.2510  1.2370  1.0767
   85SAPS  C219 8090   2.025   6.658   9.670  0.2613  0.5653  0.6719
   85SAPS  H19R 8091   1.918   6.668   9.641 -0.0992  0.5897  1.9392
   85SAPS  H19S 8092   2.064   6.759   9.693  2.0662 -0.8513  4.6657
   85SAPS  C220 8093   2.025   6.587   9.806  0.2871 -0.2875 -0.5652
   85SAPS  H20R 8094   2.122   6.553   9.847  0.2352  1.1679  0.8527
   85SAPS  H20S 8095   1.958   6.498   9.803  1.6333 -1.3819  0.4989
   85SAPS  H20T 8096   1.987   6.652   9.887 -2.8606 -2.6314  0.0332
   85SAPS   C33 8097   2.525   5.410  10.107  0.1213 -0.3227  0.0466
   85SAPS   H3X 8098   2.608   5.339  10.085  0.4089 -0.1481  0.5546
   85SAPS   H3Y 8099   2.561   5.514  10.123 -1.1685  0.1736 -0.2295
   85SAPS   C34 8100   2.420   5.399   9.996  0.3104 -1.4354  0.0101
   85SAPS   H4X 8101   2.322   5.446  10.018  0.0360 -1.3705 -1.2640
   85SAPS   H4Y 8102   2.393   5.291   9.988 -0.2979 -1.2280 -0.9874
   85SAPS   C35 8103   2.469   5.434   9.857 -0.0216 -0.5275 -0.5446
   85SAPS   H5X 8104   2.392   5.407   9.781 -1.6261  3.7405 -0.6732
   85SAPS   H5Y 8105   2.569   5.387   9.840 -0.4192 -1.9338  0.8190
   85SAPS   C36 8106   2.488   5.586   9.842  1.2659 -0.8288  0.2542
   85SAPS   H6X 8107   2.557   5.622   9.921  1.7967 -1.6046  0.1521
   85SAPS   H6Y 8108   2.395   5.642   9.864  0.1998 -2.3764 -0.1110
   85SAPS   C37 8109   2.540   5.611   9.705  0.6411  0.0022 -0.4647
   85SAPS   H7X 8110   2.463   5.576   9.633 -1.0898 -1.1884  1.8279
   85SAPS   H7Y 8111   2.625   5.546   9.676 -0.8700 -1.6019 -1.4894
   85SAPS   C38 8112   2.575   5.758   9.674 -0.3800  0.4628 -0.0478
   85SAPS   H8X 8113   2.647   5.793   9.751  0.9955  0.2291 -1.1944
   85SAPS   H8Y 8114   2.483   5.818   9.692 -0.6581  0.4858 -1.4905
   85SAPS   C39 8115   2.637   5.770   9.538 -0.7076  0.2758  0.2733
   85SAPS   H9X 8116   2.659   5.668   9.499 -0.9045  0.9240 -1.6194
   85SAPS   H9Y 8117   2.732   5.822   9.559  0.3720 -1.7855  0.8324
   85SAPS  C310 8118   2.559   5.845   9.429  0.2721 -0.1927  0.1854
   85SAPS  H10X 8119   2.561   5.953   9.457 -1.4138 -0.1118  0.0814
   85SAPS  H10Y 8120   2.458   5.800   9.441  0.0388 -0.8309 -3.1716
   85SAPS  C311 8121   2.593   5.818   9.286  0.2237 -0.4721 -0.4964
   85SAPS  H11X 8122   2.604   5.710   9.261 -2.2636 -0.9357  0.1690
   85SAPS  H11Y 8123   2.684   5.869   9.247 -0.8140  0.8748 -1.2461
   85SAPS  C312 8124   2.474   5.886   9.205 -1.4432  0.2123  0.3855
   85SAPS  H12X 8125   2.376   5.852   9.244 -1.0929 -1.2323  0.0804
   85SAPS  H12Y 8126   2.481   5.860   9.097  3.7413 -2.2107  0.9698
   85SAPS  C313 8127   2.474   6.041   9.209 -1.2563  0.3417  0.0529
   85SAPS  H13X 8128   2.573   6.088   9.187 -1.3680  0.9992  0.9030
   85SAPS  H13Y 8129   2.440   6.066   9.312  1.6350 -3.4207  2.1686
   85SAPS  C314 8130   2.380   6.109   9.113 -0.1556  0.6425 -0.5478
   85SAPS  H14X 8131   2.277   6.074   9.133 -0.9326  1.3984 -2.9682
   85SAPS  H14Y 8132   2.405   6.084   9.008 -3.4617 -2.6621 -0.7474
   85SAPS  C315 8133   2.385   6.261   9.135  0.2631  0.5189  0.8312
   85SAPS  H15X 8134   2.488   6.303   9.125 -0.0283  1.1208  0.3024
   85SAPS  H15Y 8135   2.351   6.276   9.240 -2.3119  0.1202  0.1152
   85SAPS  C316 8136   2.290   6.337   9.038 -0.4311  0.0440 -0.0347
   85SAPS  H16X 8137   2.188   6.299   9.059  0.0511 -0.4026  1.7484
   85SAPS  H16Y 8138   2.322   6.318   8.934  2.7328  2.4243  0.3448
   85SAPS  C317 8139   2.298   6.492   9.040 -0.4598 -0.2682  0.1423
   85SAPS  H17X 8140   2.403   6.522   9.015 -0.1514 -1.5239 -0.1485
   85SAPS  H17Y 8141   2.279   6.524   9.144  0.1236  1.8946 -0.3493
   85SAPS  C318 8142   2.185   6.554   8.957  0.1967  0.0269 -0.1857
   85SAPS  H18X 8143   2.091   6.551   9.016  0.2334  2.4098  0.0856
   85SAPS  H18Y 8144   2.173   6.495   8.864 -0.2581 -1.9729  1.0660
   85SAPS  H18Z 8145   2.215   6.658   8.931  1.1690 -0.2429 -0.1878
   86SAPS     N 8146   4.578   6.133  11.006 -0.5926 -0.0186 -0.3239
   86SAPS   HN1 8147   4.678   6.138  10.976 -0.2982  1.4307  0.8201
   86SAPS   HN2 8148   4.519   6.155  10.923  0.4423  0.1025 -1.0545
   86SAPS   HN3 8149   4.579   6.202  11.083  1.6793 -1.0417  0.6647
   86SAPS   C12 8150   4.554   6.000  11.065 -0.3125  0.0034  0.2428
   86SAPS  H12A 8151   4.604   5.930  10.999  1.4738  0.5338  0.9667
   86SAPS   C13 8152   4.626   5.983  11.203  0.6276  0.0298 -0.0899
   86SAPS  O13A 8153   4.680   6.077  11.264  0.5233 -0.6083  0.0836
   86SAPS  O13B 8154   4.616   5.870  11.254 -0.0746 -0.6126  0.4315
   86SAPS   C11 8155   4.401   5.984  11.090 -0.5590 -0.4934  0.2331
   86SAPS  H11A 8156   4.389   6.062  11.168 -0.1867 -1.1840  1.0082
   86SAPS  H11B 8157   4.367   5.881  11.116  0.2193 -0.7359  0.3199
   86SAPS     P 8158   4.255   5.923  10.878  0.0839  0.6101  0.5977
   86SAPS   O13 8159   4.212   5.800  10.953 -0.0533 -0.2935  0.5168
   86SAPS   O14 8160   4.138   5.992  10.813  0.1218 -0.0131 -0.7964
   86SAPS   O12 8161   4.333   6.028  10.974  0.1589  0.3034  0.3837
   86SAPS   O11 8162   4.361   5.877  10.767 -0.1989  0.6742 -0.3011
   86SAPS    C1 8163   4.451   5.961  10.694 -0.8589  0.0746  0.0371
   86SAPS    HA 8164   4.497   6.047  10.748 -0.3157  1.0565 -1.8908
   86SAPS    HB 8165   4.533   5.898  10.653 -1.4121 -0.2072 -0.6482
   86SAPS    C2 8166   4.373   6.033  10.574  0.1364  0.7762 -0.4666
   86SAPS    HS 8167   4.301   6.103  10.622 -1.8322 -0.5902 -1.3117
   86SAPS   O21 8168   4.304   5.928  10.503  0.2724 -0.0517  0.6079
   86SAPS   C21 8169   4.185   5.957  10.464 -0.1944 -0.1113  0.2386
   86SAPS   O22 8170   4.131   6.066  10.481 -0.4682 -0.0700  0.1983
   86SAPS   C22 8171   4.123   5.830  10.406  0.2098  0.3646  0.1443
   86SAPS   H2R 8172   4.138   5.754  10.485  0.1632 -1.0563 -1.1834
   86SAPS   H2S 8173   4.018   5.861  10.388  0.1203 -0.0185  0.0083
   86SAPS    C3 8174   4.478   6.106  10.489 -0.0581 -0.3471  0.4833
   86SAPS    HX 8175   4.537   6.028  10.435 -1.3205 -2.6239  2.1883
   86SAPS    HY 8176   4.553   6.159  10.551  1.6875 -1.0422 -0.9368
   86SAPS   O31 8177   4.417   6.199  10.390  0.1853 -0.1850 -0.4475
   86SAPS   C31 8178   4.384   6.318  10.415  0.3842  0.0741 -0.7705
   86SAPS   O32 8179   4.395   6.371  10.525  0.2975 -0.4252  0.2981
   86SAPS   C32 8180   4.345   6.389  10.287 -0.0050  0.2840  0.3159
   86SAPS   H2X 8181   4.343   6.313  10.206  0.8198  0.0996  0.4499
   86SAPS   H2Y 8182   4.415   6.473  10.266  2.1865 -1.3968  0.4210
   86SAPS   C23 8183   4.188   5.777  10.273 -0.0307  0.1578 -0.5694
   86SAPS   H3R 8184   4.298   5.787  10.285  0.3546 -3.4176 -0.0652
   86SAPS   H3S 8185   4.169   5.852  10.194  0.7659  1.2609  0.2503
   86SAPS   C24 8186   4.140   5.640  10.218 -0.0159  0.6507  0.0172
   86SAPS   H4R 8187   4.181   5.557  10.279  1.4723  0.0133 -1.7480
   86SAPS   H4S 8188   4.181   5.626  10.116 -0.5486  0.1323 -0.1335
   86SAPS   C25 8189   3.989   5.627  10.210 -0.6428  0.1613 -0.2010
   86SAPS   H5R 8190   3.934   5.641  10.304 -0.0429  0.4405  0.1128
   86SAPS   C26 8191   3.917   5.615  10.099  0.3568 -0.0218  0.4469
   86SAPS   H6R 8192   3.807   5.612  10.099  0.3447 -1.0393 -1.7077
   86SAPS   C27 8193   3.965   5.603   9.958  0.2530 -0.0307 -0.3813
   86SAPS   H7R 8194   3.879   5.577   9.892  0.1478 -2.0015  0.4845
   86SAPS   H7S 8195   4.030   5.513   9.950 -1.0588 -1.2221  1.5939
   86SAPS   C28 8196   4.019   5.730   9.902  0.9428 -0.4389 -1.2630
   86SAPS   H8R 8197   4.057   5.801   9.976 -0.1755  1.0409 -2.0498
   86SAPS   C29 8198   4.030   5.770   9.774  0.3075 -0.4062  0.3301
   86SAPS   H9R 8199   4.069   5.871   9.758  0.6904 -0.5276  0.4718
   86SAPS  C210 8200   3.988   5.691   9.650 -0.0290 -0.1610  0.0334
   86SAPS  H10R 8201   3.968   5.755   9.561 -2.2932 -0.9194 -0.0748
   86SAPS  H10S 8202   3.891   5.636   9.659 -0.9480  1.6874  2.4477
   86SAPS  C211 8203   4.096   5.590   9.617 -0.3680 -0.1597 -0.7929
   86SAPS  H11R 8204   4.149   5.544   9.702 -1.8880 -2.5712 -1.0367
   86SAPS  C212 8205   4.133   5.544   9.498  0.8118 -0.2479 -0.2334
   86SAPS  H12R 8206   4.213   5.468   9.497  0.1855 -0.9063 -0.5799
   86SAPS  C213 8207   4.079   5.594   9.364 -0.3934 -0.2706 -0.8135
   86SAPS  H13R 8208   4.156   5.660   9.319  1.3409 -1.8028 -0.2015
   86SAPS  H13S 8209   3.997   5.669   9.371  0.4715  0.5708  1.4478
   86SAPS  C214 8210   4.023   5.489   9.275 -0.2694  0.4575  0.2889
   86SAPS  H14R 8211   3.963   5.408   9.319  1.4982  0.2506  2.4818
   86SAPS  C215 8212   4.034   5.492   9.141 -0.8490 -0.5352 -0.1991
   86SAPS  H15R 8213   3.989   5.410   9.082  4.0224 -1.2819 -3.4874
   86SAPS  C216 8214   4.111   5.598   9.061 -0.0968 -0.3498  0.0945
   86SAPS  H16R 8215   4.212   5.619   9.104  0.2628 -0.0534 -0.8696
   86SAPS  H16S 8216   4.054   5.693   9.052 -2.1091 -1.5185 -0.1045
   86SAPS  C217 8217   4.140   5.555   8.918  0.5317 -0.2504 -0.1359
   86SAPS  H17R 8218   4.047   5.514   8.873 -0.0780 -1.7345  2.2853
   86SAPS  H17S 8219   4.210   5.468   8.917  1.2968  0.3587 -0.5680
   86SAPS  C218 8220   4.208   5.674   8.848  0.1596 -0.0987  0.5091
   86SAPS  H18R 8221   4.288   5.712   8.914 -0.0346  0.7285  0.2826
   86SAPS  H18S 8222   4.134   5.755   8.829  1.8183  1.5622  0.9120
   86SAPS  C219 8223   4.282   5.649   8.711  0.3483 -0.2088 -0.1720
   86SAPS  H19R 8224   4.359   5.572   8.729  0.9968  0.1412 -1.3860
   86SAPS  H19S 8225   4.343   5.740   8.693  0.0195  0.1680  0.5579
   86SAPS  C220 8226   4.193   5.613   8.594 -0.0983  0.3510  0.6069
   86SAPS  H20R 8227   4.119   5.535   8.622  0.2405 -0.4278 -0.6201
   86SAPS  H20S 8228   4.249   5.577   8.506 -0.7349  0.5081  0.1298
   86SAPS  H20T 8229   4.121   5.693   8.567 -1.1290 -0.9697 -0.6880
   86SAPS   C33 8230   4.200   6.439  10.290 -0.1581  0.3174 -0.4102
   86SAPS   H3X 8231   4.202   6.528  10.356  0.6644  0.0325 -0.0338
   86SAPS   H3Y 8232   4.140   6.364  10.346 -1.3145 -0.9654 -3.1610
   86SAPS   C34 8233   4.141   6.464  10.151 -0.1907  0.7330 -0.2061
   86SAPS   H4X 8234   4.211   6.522  10.088 -1.5236  1.8977 -0.6604
   86SAPS   H4Y 8235   4.040   6.510  10.152 -0.0500  1.0503  0.6802
   86SAPS   C35 8236   4.099   6.321  10.090  0.4493 -0.2540 -0.1577
   86SAPS   H5X 8237   4.045   6.272  10.174 -0.7689 -0.0336 -0.7902
   86SAPS   H5Y 8238   4.198   6.273  10.076  0.6376 -0.1624  0.7497
   86SAPS   C36 8239   4.031   6.343   9.952  0.5203 -0.3208  0.3730
   86SAPS   H6X 8240   4.103   6.412   9.903  1.6666 -0.9189  1.1667
   86SAPS   H6Y 8241   3.938   6.403   9.958  1.5320  1.4473 -0.8020
   86SAPS   C37 8242   4.025   6.216   9.875  0.8298  0.6477  0.0522
   86SAPS   H7X 8243   3.975   6.126   9.918 -1.6146  0.4959 -2.7762
   86SAPS   H7Y 8244   4.132   6.187   9.868  1.1086  1.7109 -0.3523
   86SAPS   C38 8245   3.968   6.230   9.729  0.3268 -0.7820  0.7364
   86SAPS   H8X 8246   3.992   6.335   9.703  4.2110 -1.4569  1.0552
   86SAPS   H8Y 8247   3.857   6.224   9.736  0.0899  1.2729 -0.5431
   86SAPS   C39 8248   4.023   6.143   9.620 -0.0246  0.0076 -1.5229
   86SAPS   H9X 8249   4.038   6.049   9.678 -3.1352  0.0676 -0.3965
   86SAPS   H9Y 8250   4.117   6.180   9.575  0.6137  1.0581  0.5506
   86SAPS  C310 8251   3.926   6.095   9.511  0.3086 -0.3386  0.6134
   86SAPS  H10X 8252   3.824   6.080   9.553 -0.0446 -0.4451 -0.2500
   86SAPS  H10Y 8253   3.961   5.997   9.474 -0.1567  0.2821 -1.6217
   86SAPS  C311 8254   3.905   6.196   9.400 -0.7321  0.6094 -0.0960
   86SAPS  H11X 8255   4.004   6.207   9.350  1.3987 -1.8597  3.1765
   86SAPS  H11Y 8256   3.887   6.299   9.437 -0.6466  0.4076  0.5233
   86SAPS  C312 8257   3.803   6.146   9.300  0.1199  0.1956  0.1037
   86SAPS  H12X 8258   3.709   6.200   9.321 -0.1554  0.6994 -2.2155
   86SAPS  H12Y 8259   3.782   6.037   9.289 -1.3458  0.5789 -1.1027
   86SAPS  C313 8260   3.846   6.178   9.159 -0.2655 -0.1157 -0.9268
   86SAPS  H13X 8261   3.893   6.278   9.166 -0.7830  0.0321  1.5018
   86SAPS  H13Y 8262   3.751   6.185   9.103 -1.8061  1.4478  1.7037
   86SAPS  C314 8263   3.950   6.079   9.103  0.4379 -0.4184 -0.1472
   86SAPS  H14X 8264   3.920   5.972   9.106 -0.1226 -0.2536  0.0599
   86SAPS  H14Y 8265   4.043   6.098   9.161 -0.3492  0.1681  0.9365
   86SAPS  C315 8266   3.977   6.108   8.958 -0.1334 -0.4685  0.6943
   86SAPS  H15X 8267   3.888   6.078   8.899 -0.4622 -0.0622  0.9757
   86SAPS  H15Y 8268   4.069   6.053   8.930  1.4937  2.5729 -0.2981
   86SAPS  C316 8269   4.018   6.256   8.923 -0.0874 -0.4925 -0.0099
   86SAPS  H16X 8270   4.109   6.289   8.978  0.8532 -0.6704 -1.4005
   86SAPS  H16Y 8271   3.931   6.313   8.960  1.2658 -0.8097  4.2246
   86SAPS  C317 8272   4.052   6.271   8.773 -0.6188 -0.2302 -0.3304
   86SAPS  H17X 8273   4.072   6.378   8.751  0.6985 -0.6749 -1.3878
   86SAPS  H17Y 8274   3.963   6.235   8.717  0.8838 -2.0637 -1.6866
   86SAPS  C318 8275   4.172   6.186   8.727  0.1390  0.2640  0.6024
   86SAPS  H18X 8276   4.262   6.207   8.789 -1.8497  0.1824  3.7356
   86SAPS  H18Y 8277   4.203   6.209   8.622  1.4915 -0.5283  0.8035
   86SAPS  H18Z 8278   4.152   6.077   8.727  0.4014  0.1819  2.4524
   87SAPS     N 8279   5.042   0.065  10.848  0.5323 -0.7927 -0.3327
   87SAPS   HN1 8280   4.983   0.000  10.791 -0.0384  0.8576 -1.7079
   87SAPS   HN2 8281   5.134   0.067  10.801 -0.0737  1.9529 -1.6163
   87SAPS   HN3 8282   5.061   0.025  10.942  1.1043 -2.3239 -1.0589
   87SAPS   C12 8283   4.986   0.207  10.869  0.1886 -0.2748 -0.3142
   87SAPS  H12A 8284   4.880   0.194  10.882  0.4978 -3.4632 -0.2255
   87SAPS   C13 8285   5.035   0.280  11.001 -0.0711 -0.8909  0.0918
   87SAPS  O13A 8286   5.117   0.216  11.077 -0.0879  0.0811 -0.4782
   87SAPS  O13B 8287   4.977   0.391  11.036 -0.6169 -0.3806 -0.0611
   87SAPS   C11 8288   5.007   0.285  10.735 -0.8783  0.5388  0.3176
   87SAPS  H11A 8289   4.987   0.394  10.748  3.7498  1.8592 -1.6504
   87SAPS  H11B 8290   4.936   0.245  10.659 -0.2700  0.8641 -0.4303
   87SAPS     P 8291   5.215   0.385  10.620  0.5705 -0.2606  0.3527
   87SAPS   O13 8292   5.226   0.504  10.715  0.1902  0.2388  0.3428
   87SAPS   O14 8293   5.336   0.338  10.555 -0.1724  0.0134  0.3515
   87SAPS   O12 8294   5.142   0.258  10.690  0.0994  0.3821 -0.3788
   87SAPS   O11 8295   5.122   0.419  10.493 -0.1592 -0.5061 -0.5255
   87SAPS    C1 8296   5.092   0.309  10.399  0.1398 -0.0681  0.2829
   87SAPS    HA 8297   5.084   0.209  10.448 -2.8293  0.6161  1.4285
   87SAPS    HB 8298   4.992   0.334  10.360 -0.3867  1.7648  2.5490
   87SAPS    C2 8299   5.187   0.299  10.274 -0.5573 -0.3154  0.3651
   87SAPS    HS 8300   5.283   0.340  10.312 -1.5462  3.2845 -0.6454
   87SAPS   O21 8301   5.122   0.390  10.181 -0.1549 -0.0871 -0.6815
   87SAPS   C21 8302   5.213   0.431  10.091 -0.1885 -0.4072 -0.0023
   87SAPS   O22 8303   5.335   0.411  10.093  0.2132 -0.4388  0.3818
   87SAPS   C22 8304   5.143   0.508   9.979  0.0215  0.3855 -0.0544
   87SAPS   H2R 8305   5.080   0.432   9.929  0.7094 -0.7947  0.8205
   87SAPS   H2S 8306   5.085   0.582  10.037 -0.7228  1.0409 -1.5692
   87SAPS    C3 8307   5.206   0.153  10.214  0.1257 -0.1118 -0.0040
   87SAPS    HX 8308   5.238   0.087  10.297 -2.6221  0.0406  1.2960
   87SAPS    HY 8309   5.284   0.160  10.135 -0.7600 -2.7465 -1.2083
   87SAPS   O31 8310   5.089   0.098  10.173  0.0067  0.1239  0.0514
   87SAPS   C31 8311   5.075   0.111  10.041 -0.4146  0.0922 -0.8623
   87SAPS   O32 8312   5.141   0.170   9.963 -0.1403  0.1927  0.3303
   87SAPS   C32 8313   4.962   0.023   9.996 -0.4389  0.0247 -0.2534
   87SAPS   H2X 8314   4.872   0.050  10.055  0.2590 -0.4183  1.0500
   87SAPS   H2Y 8315   4.983  -0.085  10.010  0.3147  0.0698 -0.9151
   87SAPS   C23 8316   5.233   0.576   9.878  0.3611  0.6825  0.5090
   87SAPS   H3R 8317   5.304   0.641   9.933  3.7315 -1.9470 -0.3625
   87SAPS   H3S 8318   5.167   0.642   9.820 -1.0590 -1.4750 -0.4525
   87SAPS   C24 8319   5.311   0.478   9.791  0.1572 -0.0780 -0.0891
   87SAPS   H4R 8320   5.377   0.413   9.852  1.7988  0.2424 -1.4449
   87SAPS   H4S 8321   5.371   0.552   9.733 -2.9500  1.2992 -1.8059
   87SAPS   C25 8322   5.222   0.391   9.696 -0.3221  0.0512  0.0011
   87SAPS   H5R 8323   5.160   0.315   9.745 -0.2743 -0.8967 -1.3366
   87SAPS   C26 8324   5.212   0.403   9.563  0.4533 -0.6007 -0.0760
   87SAPS   H6R 8325   5.137   0.341   9.512  0.8609 -1.2551  0.0957
   87SAPS   C27 8326   5.283   0.510   9.476 -0.5126  0.4116 -0.4208
   87SAPS   H7R 8327   5.339   0.590   9.529 -0.2821  0.9391 -1.4301
   87SAPS   H7S 8328   5.210   0.566   9.413 -1.7323  0.7716  1.2192
   87SAPS   C28 8329   5.376   0.428   9.393  0.5491  0.1587  0.0414
   87SAPS   H8R 8330   5.446   0.365   9.450 -0.2101  0.2767  1.1105
   87SAPS   C29 8331   5.384   0.435   9.256  0.3151 -0.0371 -0.3943
   87SAPS   H9R 8332   5.437   0.355   9.202  0.3301 -0.4304  0.1869
   87SAPS  C210 8333   5.302   0.516   9.157 -0.6534 -0.2452  0.3553
   87SAPS  H10R 8334   5.217   0.572   9.201  0.7662  3.3131 -1.0190
   87SAPS  H10S 8335   5.255   0.458   9.076 -1.1166  1.3658 -0.5808
   87SAPS  C211 8336   5.397   0.606   9.091  0.3782 -0.2122  0.6919
   87SAPS  H11R 8337   5.431   0.688   9.157  0.6157  0.1179  0.1678
   87SAPS  C212 8338   5.436   0.616   8.957  0.7955 -0.2406  0.4115
   87SAPS  H12R 8339   5.511   0.692   8.935  0.5989  0.1314  1.0026
   87SAPS  C213 8340   5.386   0.529   8.846 -0.0086 -0.2119  0.5618
   87SAPS  H13R 8341   5.355   0.594   8.762  0.2127 -0.9581 -0.1026
   87SAPS  H13S 8342   5.300   0.480   8.896  0.2934  1.5199  2.9812
   87SAPS  C214 8343   5.488   0.424   8.812 -0.5707  0.3406  0.3422
   87SAPS  H14R 8344   5.522   0.361   8.895  2.1987 -0.8659 -1.5505
   87SAPS  C215 8345   5.537   0.394   8.688  0.1999 -0.1616 -0.1960
   87SAPS  H15R 8346   5.607   0.311   8.672 -0.7870 -0.8337 -1.1269
   87SAPS  C216 8347   5.499   0.462   8.559  0.0966  0.2456 -0.0202
   87SAPS  H16R 8348   5.594   0.490   8.508  1.4297 -1.1713  1.5271
   87SAPS  H16S 8349   5.442   0.556   8.571 -2.3276 -0.9677 -1.4052
   87SAPS  C217 8350   5.417   0.379   8.469  0.3475  0.4753  0.0855
   87SAPS  H17R 8351   5.454   0.278   8.439  4.8977  2.3214 -1.3777
   87SAPS  H17S 8352   5.411   0.439   8.376  0.4641 -0.4719 -0.5490
   87SAPS  C218 8353   5.279   0.356   8.533 -0.5330 -0.7136  1.0915
   87SAPS  H18R 8354   5.252   0.442   8.598 -1.6317 -0.4699  0.3355
   87SAPS  H18S 8355   5.275   0.269   8.602 -0.5150 -0.9117  0.8452
   87SAPS  C219 8356   5.165   0.336   8.430  0.6297  0.4557 -0.4634
   87SAPS  H19R 8357   5.199   0.377   8.333 -0.3068  2.5338  0.0264
   87SAPS  H19S 8358   5.075   0.393   8.460  0.7439  0.3720  0.0471
   87SAPS  C220 8359   5.127   0.189   8.424  0.0691  0.9679 -0.8965
   87SAPS  H20R 8360   5.206   0.120   8.388 -2.0900 -1.6433 -0.9616
   87SAPS  H20S 8361   5.049   0.180   8.346  1.6454 -0.5535 -2.3763
   87SAPS  H20T 8362   5.087   0.159   8.523  1.1422 -0.0994 -0.7575
   87SAPS   C33 8363   4.927   0.048   9.849 -0.2627  0.0624  0.4502
   87SAPS   H3X 8364   4.932   0.156   9.823 -0.1292  0.6190  2.6201
   87SAPS   H3Y 8365   4.831  -0.006   9.832  2.1913 -4.4096 -0.8465
   87SAPS   C34 8366   5.019  -0.016   9.752 -0.2376  0.3941  0.2913
   87SAPS   H4X 8367   5.039  -0.124   9.773 -0.9093  0.0406 -0.7939
   87SAPS   H4Y 8368   5.110   0.046   9.738  0.7863 -1.1102 -0.0216
   87SAPS   C35 8369   4.957  -0.013   9.610  0.3042  0.1929 -0.3294
   87SAPS   H5X 8370   4.856  -0.060   9.615 -0.6280  2.0596 -0.3024
   87SAPS   H5Y 8371   5.019  -0.067   9.536 -0.8308 -1.3475 -0.2040
   87SAPS   C36 8372   4.929   0.128   9.553 -0.0034  0.1516 -0.3741
   87SAPS   H6X 8373   5.025   0.179   9.574 -0.0699 -0.5337  1.8492
   87SAPS   H6Y 8374   4.850   0.177   9.613 -0.8980 -2.1126  0.4133
   87SAPS   C37 8375   4.903   0.108   9.400  1.0502  0.4955  0.1886
   87SAPS   H7X 8376   4.983   0.039   9.364  0.2600 -0.1010 -0.4578
   87SAPS   H7Y 8377   4.913   0.209   9.356 -1.5099  1.4018  1.5304
   87SAPS   C38 8378   4.768   0.040   9.362 -0.5665 -0.2247  0.0529
   87SAPS   H8X 8379   4.763  -0.048   9.430 -0.0584 -0.4001 -0.1363
   87SAPS   H8Y 8380   4.757   0.006   9.257 -1.2159 -2.8558  0.8880
   87SAPS   C39 8381   4.647   0.132   9.398  0.4682  0.2082  0.2445
   87SAPS   H9X 8382   4.655   0.152   9.507  0.8779 -0.5368  0.3554
   87SAPS   H9Y 8383   4.546   0.087   9.383 -0.2589  1.8194  0.0863
   87SAPS  C310 8384   4.643   0.267   9.317 -0.5791 -0.3749  0.2094
   87SAPS  H10X 8385   4.732   0.323   9.352  0.8685 -1.1883 -1.9322
   87SAPS  H10Y 8386   4.552   0.322   9.349 -0.5306  1.4030 -2.4346
   87SAPS  C311 8387   4.650   0.256   9.164  0.4100  0.0158  0.5149
   87SAPS  H11X 8388   4.564   0.197   9.124 -0.7646  0.7659  1.8271
   87SAPS  H11Y 8389   4.733   0.202   9.115  1.2579  0.3374  1.5677
   87SAPS  C312 8390   4.644   0.405   9.108  0.0877 -0.1525  0.3534
   87SAPS  H12X 8391   4.733   0.464   9.137  0.0769  0.3788 -0.6320
   87SAPS  H12Y 8392   4.551   0.461   9.130 -0.6472 -1.5747  1.0454
   87SAPS  C313 8393   4.640   0.413   8.950  0.2088  0.1389 -0.9398
   87SAPS  H13X 8394   4.555   0.352   8.913  0.1669 -0.2216 -0.2786
   87SAPS  H13Y 8395   4.734   0.364   8.916  0.6219  0.5131 -0.3685
   87SAPS  C314 8396   4.627   0.562   8.898 -0.0077 -0.3215  0.0844
   87SAPS  H14X 8397   4.719   0.624   8.906  0.2322 -0.6391 -0.1729
   87SAPS  H14Y 8398   4.543   0.617   8.947  0.8647  1.0171  0.1421
   87SAPS  C315 8399   4.583   0.566   8.749  0.8074 -0.2186 -0.7860
   87SAPS  H15X 8400   4.572   0.672   8.718  0.0311 -0.7602 -2.4577
   87SAPS  H15Y 8401   4.481   0.526   8.730  0.8976 -0.4890 -0.7063
   87SAPS  C316 8402   4.688   0.502   8.654  0.3066  0.3357  0.0989
   87SAPS  H16X 8403   4.697   0.394   8.678  0.9253 -0.1250 -1.9719
   87SAPS  H16Y 8404   4.786   0.549   8.679  0.8770 -1.0871  0.6351
   87SAPS  C317 8405   4.652   0.527   8.506 -0.6326  0.3312  0.6784
   87SAPS  H17X 8406   4.626   0.635   8.495 -0.6287  0.2452 -0.3364
   87SAPS  H17Y 8407   4.561   0.468   8.487 -2.0331  2.4644  0.4214
   87SAPS  C318 8408   4.756   0.484   8.396  0.6369  0.0699  0.7572
   87SAPS  H18X 8409   4.735   0.539   8.302 -0.7463 -0.3245  0.8226
   87SAPS  H18Y 8410   4.738   0.375   8.384  0.2349  0.2667 -0.5234
   87SAPS  H18Z 8411   4.864   0.495   8.420  1.1010  1.6882 -1.7034
   88SAPS     N 8412   6.299   3.351  11.090  0.0717 -0.6823 -0.7215
   88SAPS   HN1 8413   6.315   3.441  11.039  0.1415 -0.9310 -1.1452
   88SAPS   HN2 8414   6.317   3.269  11.029  2.4256 -0.1826 -0.8031
   88SAPS   HN3 8415   6.201   3.355  11.123  0.6653  1.6277  1.0535
   88SAPS   C12 8416   6.397   3.339  11.201 -0.2800  0.3305 -0.0592
   88SAPS  H12A 8417   6.378   3.427  11.260 -0.4427 -0.3341  0.9066
   88SAPS   C13 8418   6.399   3.212  11.295 -0.1993 -1.0506 -0.5130
   88SAPS  O13A 8419   6.303   3.135  11.295  0.5716  0.0492  0.2824
   88SAPS  O13B 8420   6.487   3.214  11.387 -0.6603 -0.1287  0.2532
   88SAPS   C11 8421   6.540   3.335  11.135 -0.2437 -0.4391  0.0525
   88SAPS  H11A 8422   6.535   3.246  11.068  1.1871  0.6319 -1.5652
   88SAPS  H11B 8423   6.616   3.311  11.212 -1.3886 -1.5789  0.8621
   88SAPS     P 8424   6.701   3.476  10.989 -0.5187 -0.0864 -0.4590
   88SAPS   O13 8425   6.742   3.618  11.011 -0.3845  0.1885  0.1529
   88SAPS   O14 8426   6.794   3.365  11.027  0.1362  0.4748  0.8012
   88SAPS   O12 8427   6.564   3.459  11.061  0.2747  0.2697  0.7319
   88SAPS   O11 8428   6.656   3.462  10.840  0.0326 -0.4330  0.5312
   88SAPS    C1 8429   6.736   3.402  10.734  0.5782  0.2646 -0.3135
   88SAPS    HA 8430   6.768   3.299  10.762  2.3156  1.4170  2.3320
   88SAPS    HB 8431   6.676   3.398  10.640  0.3215 -0.5187 -0.1241
   88SAPS    C2 8432   6.871   3.473  10.698  0.2011  0.2668 -0.1979
   88SAPS    HS 8433   6.938   3.464  10.786  0.8188  0.0921 -0.6769
   88SAPS   O21 8434   6.845   3.615  10.672  0.3324 -0.6238  0.2852
   88SAPS   C21 8435   6.953   3.689  10.678  0.1159 -0.6044 -0.2363
   88SAPS   O22 8436   7.063   3.654  10.706  0.5627  0.0250  0.1582
   88SAPS   C22 8437   6.901   3.826  10.638  0.2499  0.4136 -0.0755
   88SAPS   H2R 8438   6.826   3.814  10.557  1.2950 -1.3178 -0.8429
   88SAPS   H2S 8439   6.843   3.878  10.717  0.1064  2.1063 -1.2358
   88SAPS    C3 8440   6.947   3.401  10.588 -0.0825 -0.2701 -0.4657
   88SAPS    HX 8441   6.993   3.307  10.627  1.9184  0.8895  0.1251
   88SAPS    HY 8442   7.038   3.464  10.575  1.3224 -2.4208 -1.6756
   88SAPS   O31 8443   6.885   3.392  10.461  0.1981  0.6019  0.6587
   88SAPS   C31 8444   6.817   3.279  10.443  0.4233 -0.4960  0.0285
   88SAPS   O32 8445   6.815   3.186  10.518  0.0836  0.3482 -0.0065
   88SAPS   C32 8446   6.745   3.287  10.310  0.5891 -0.5521 -0.1573
   88SAPS   H2X 8447   6.817   3.312  10.229  0.1821  0.7612 -0.1453
   88SAPS   H2Y 8448   6.673   3.372  10.315 -0.6967 -1.6693  1.4130
   88SAPS   C23 8449   7.010   3.931  10.615 -0.4567 -0.5688  0.1047
   88SAPS   H3R 8450   7.078   3.956  10.699  0.6508 -2.2250 -0.2426
   88SAPS   H3S 8451   6.969   4.031  10.590 -1.1278 -0.9367 -0.2996
   88SAPS   C24 8452   7.099   3.910  10.488  0.6570  0.8537  0.2523
   88SAPS   H4R 8453   7.128   3.803  10.498 -1.1867  0.2787 -0.2150
   88SAPS   H4S 8454   7.185   3.981  10.486  1.6300 -0.2812  0.5222
   88SAPS   C25 8455   7.020   3.931  10.358  0.5056 -0.3145 -0.0153
   88SAPS   H5R 8456   7.006   4.038  10.333 -1.7965 -0.3943  0.7289
   88SAPS   C26 8457   6.964   3.842  10.270  0.0893  0.1174  0.0719
   88SAPS   H6R 8458   6.917   3.881  10.178  0.1821 -1.4747 -0.6843
   88SAPS   C27 8459   6.953   3.689  10.272 -1.2246 -0.4638  0.4082
   88SAPS   H7R 8460   7.004   3.640  10.357 -0.5285 -0.2263  0.1348
   88SAPS   H7S 8461   7.012   3.650  10.186 -1.1846  1.4836 -0.4977
   88SAPS   C28 8462   6.815   3.637  10.263 -0.2185 -1.1926  0.0945
   88SAPS   H8R 8463   6.785   3.614  10.366 -0.3879  0.8076  0.5411
   88SAPS   C29 8464   6.738   3.618  10.154  0.3081  0.4234 -0.0643
   88SAPS   H9R 8465   6.633   3.587  10.171 -0.0174  2.0860  1.2553
   88SAPS  C210 8466   6.776   3.651  10.010 -0.1901  0.3748 -0.7125
   88SAPS  H10R 8467   6.845   3.737   9.999 -1.0117  1.2007  0.3377
   88SAPS  H10S 8468   6.688   3.698   9.961  0.2398  1.1653 -0.7362
   88SAPS  C211 8469   6.837   3.538   9.933 -0.0224  0.9069  0.1048
   88SAPS  H11R 8470   6.906   3.468   9.983  0.6782  0.5832 -1.2512
   88SAPS  C212 8471   6.800   3.498   9.809 -0.5231  0.1546 -0.7784
   88SAPS  H12R 8472   6.845   3.410   9.761 -2.0612  0.1486 -2.2870
   88SAPS  C213 8473   6.701   3.559   9.715  0.4697 -0.2193  0.1572
   88SAPS  H13R 8474   6.607   3.575   9.770 -0.2858 -0.5905 -0.9819
   88SAPS  H13S 8475   6.669   3.472   9.655 -3.2915  1.0908  0.0101
   88SAPS  C214 8476   6.733   3.682   9.634  0.3325 -0.3970 -0.0920
   88SAPS  H14R 8477   6.717   3.779   9.683  0.6678  0.7407 -2.1253
   88SAPS  C215 8478   6.789   3.689   9.505  0.7095 -0.1623 -0.4579
   88SAPS  H15R 8479   6.803   3.790   9.465 -0.9324 -0.2121 -1.2360
   88SAPS  C216 8480   6.828   3.568   9.421 -0.1438 -0.1824 -0.0747
   88SAPS  H16R 8481   6.796   3.581   9.315  0.4723  2.0526 -0.0264
   88SAPS  H16S 8482   6.768   3.480   9.454  0.0588 -1.0517 -1.8539
   88SAPS  C217 8483   6.976   3.534   9.433 -0.5258  0.5192 -0.5925
   88SAPS  H17R 8484   7.025   3.532   9.533 -0.3342  1.0726 -0.6739
   88SAPS  H17S 8485   7.033   3.617   9.387  1.2787  1.0551  2.2963
   88SAPS  C218 8486   6.989   3.393   9.372 -0.2067 -0.5436  0.0937
   88SAPS  H18R 8487   6.950   3.390   9.268  0.7737 -2.6371 -0.2644
   88SAPS  H18S 8488   6.924   3.326   9.432  0.6265 -1.7030 -0.2582
   88SAPS  C219 8489   7.134   3.341   9.386  0.1570 -0.1912 -0.2284
   88SAPS  H19R 8490   7.138   3.233   9.359 -2.9130 -1.1579  2.4531
   88SAPS  H19S 8491   7.149   3.334   9.496 -1.2091 -0.6861 -0.0449
   88SAPS  C220 8492   7.236   3.422   9.299  0.4574  0.3302 -0.1909
   88SAPS  H20R 8493   7.212   3.423   9.191 -2.5696 -0.6222  0.3904
   88SAPS  H20S 8494   7.339   3.379   9.298  0.4054  0.1524  0.6928
   88SAPS  H20T 8495   7.240   3.527   9.337  1.5570  0.3293 -0.2750
   88SAPS   C33 8496   6.674   3.155  10.277  0.9218  0.3052  0.0255
   88SAPS   H3X 8497   6.587   3.141  10.344  0.4851 -0.0972 -0.6064
   88SAPS   H3Y 8498   6.734   3.062  10.281  1.5529  0.6740 -0.5737
   88SAPS   C34 8499   6.610   3.155  10.137  0.4529 -0.0323  0.0891
   88SAPS   H4X 8500   6.536   3.237  10.135 -1.4430 -1.6136  0.9645
   88SAPS   H4Y 8501   6.554   3.063  10.107  2.2859 -1.5781  1.1520
   88SAPS   C35 8502   6.726   3.174  10.030  0.2208  0.5665 -0.8221
   88SAPS   H5X 8503   6.773   3.274  10.030  2.3530 -0.3184 -3.2930
   88SAPS   H5Y 8504   6.672   3.167   9.933 -1.2179 -0.4676  0.0120
   88SAPS   C36 8505   6.826   3.055  10.038  0.0476 -0.5544 -0.9000
   88SAPS   H6X 8506   6.772   2.962  10.064 -1.0221  0.8069  2.2901
   88SAPS   H6Y 8507   6.905   3.076  10.113  0.4230  0.4054 -1.5377
   88SAPS   C37 8508   6.899   3.044   9.903  0.2628  0.4699 -0.7257
   88SAPS   H7X 8509   6.990   2.980   9.912 -0.7670 -1.2671 -1.9555
   88SAPS   H7Y 8510   6.931   3.137   9.852 -0.1292 -0.3592 -2.5466
   88SAPS   C38 8511   6.806   2.986   9.798 -0.1154  0.1755  0.2872
   88SAPS   H8X 8512   6.742   3.071   9.765 -0.8486 -0.0946  0.9748
   88SAPS   H8Y 8513   6.732   2.909   9.827 -0.7813  1.1535  1.2964
   88SAPS   C39 8514   6.893   2.942   9.679 -0.1405  0.2135 -0.0020
   88SAPS   H9X 8515   6.948   2.852   9.714 -0.8319  0.6196  2.3305
   88SAPS   H9Y 8516   6.970   3.021   9.666 -0.8206  0.9411  0.2449
   88SAPS  C310 8517   6.824   2.943   9.544  0.0127 -0.6906  0.2519
   88SAPS  H10X 8518   6.757   3.031   9.534  0.2055 -0.7618 -2.4164
   88SAPS  H10Y 8519   6.757   2.854   9.543 -1.1488  0.1718 -0.6983
   88SAPS  C311 8520   6.922   2.968   9.427  0.2383 -0.0479  0.6429
   88SAPS  H11X 8521   6.998   2.888   9.418 -0.3325 -0.6179  0.8582
   88SAPS  H11Y 8522   6.967   3.070   9.425  1.3070 -0.4021 -3.8012
   88SAPS  C312 8523   6.855   2.967   9.288 -0.2831  0.2009  0.8719
   88SAPS  H12X 8524   6.788   3.054   9.271  1.1134  0.9873 -0.8854
   88SAPS  H12Y 8525   6.790   2.878   9.279 -0.7808  0.6724 -0.4527
   88SAPS  C313 8526   6.955   2.943   9.176  0.1154 -0.6611 -0.5054
   88SAPS  H13X 8527   6.976   2.834   9.176 -1.5350 -1.0022 -0.8658
   88SAPS  H13Y 8528   7.047   3.004   9.191  0.4294 -1.0840 -0.6949
   88SAPS  C314 8529   6.916   2.970   9.033  0.4054 -0.4779 -0.1968
   88SAPS  H14X 8530   6.993   3.040   8.995  0.8949  1.7084  4.1929
   88SAPS  H14Y 8531   6.820   3.024   9.029  0.0074 -0.7736  3.0251
   88SAPS  C315 8532   6.906   2.842   8.949 -0.7199  0.4277 -0.3546
   88SAPS  H15X 8533   6.813   2.793   8.985 -0.2986 -1.2651 -1.4607
   88SAPS  H15Y 8534   6.993   2.775   8.968  0.7109  2.4560  0.5305
   88SAPS  C316 8535   6.887   2.881   8.799 -0.4524 -0.0964  0.0492
   88SAPS  H16X 8536   6.821   2.970   8.796 -0.7796 -0.3269  0.3427
   88SAPS  H16Y 8537   6.831   2.798   8.750 -0.5122 -0.2669  0.4067
   88SAPS  C317 8538   7.019   2.917   8.719  0.0226 -0.1387 -0.2316
   88SAPS  H17X 8539   7.082   2.826   8.714 -0.1638 -0.2056 -2.0693
   88SAPS  H17Y 8540   7.083   2.992   8.771  1.4058  0.2463 -2.3864
   88SAPS  C318 8541   6.999   2.962   8.577  0.8086  0.2824 -0.0647
   88SAPS  H18X 8542   6.949   3.062   8.579  1.0368  0.4470 -1.4638
   88SAPS  H18Y 8543   6.920   2.894   8.539  0.0468  0.0399  1.8357
   88SAPS  H18Z 8544   7.092   2.964   8.516  1.0503  1.1084  0.3042
   89SAPS     N 8545   1.069   0.421  10.651  0.0048 -0.1741 -0.2455
   89SAPS   HN1 8546   1.088   0.498  10.584  2.2674 -0.3449  0.0984
   89SAPS   HN2 8547   1.159   0.391  10.695  0.4269 -0.9386 -1.5594
   89SAPS   HN3 8548   1.023   0.348  10.594 -0.9429 -0.3202  0.6767
   89SAPS   C12 8549   0.983   0.453  10.768 -0.0059 -0.3886 -0.7735
   89SAPS  H12A 8550   0.915   0.369  10.773 -1.4810  0.8064  0.6052
   89SAPS   C13 8551   1.040   0.463  10.911 -0.3790  0.0408  0.2930
   89SAPS  O13A 8552   1.165   0.439  10.922  0.0690  0.0893  0.1527
   89SAPS  O13B 8553   0.969   0.487  11.008  0.0695 -0.4572 -0.9400
   89SAPS   C11 8554   0.899   0.581  10.734  0.2101 -0.5182  0.2731
   89SAPS  H11A 8555   0.962   0.672  10.725  1.4034 -1.3138  0.3398
   89SAPS  H11B 8556   0.825   0.597  10.815 -2.9021 -0.1947 -2.4277
   89SAPS     P 8557   0.743   0.685  10.557  0.2854 -0.1311 -0.0460
   89SAPS   O13 8558   0.602   0.644  10.566 -0.1132  0.0557 -0.3758
   89SAPS   O14 8559   0.788   0.812  10.616  0.0933  0.0227  0.4599
   89SAPS   O12 8560   0.830   0.559  10.611  0.5339  0.2271  0.3271
   89SAPS   O11 8561   0.772   0.686  10.407 -0.1029  0.1873 -0.0151
   89SAPS    C1 8562   0.893   0.626  10.349  0.8598  0.4130  0.1276
   89SAPS    HA 8563   0.960   0.704  10.308  1.7782 -0.1427  0.5380
   89SAPS    HB 8564   0.954   0.567  10.421  1.0065 -0.1214 -0.4213
   89SAPS    C2 8565   0.863   0.531  10.230  0.1627  0.8141 -0.4622
   89SAPS    HS 8566   0.965   0.506  10.195  1.0760  1.0593  1.8526
   89SAPS   O21 8567   0.787   0.595  10.132  0.0074 -0.4772 -0.3438
   89SAPS   C21 8568   0.848   0.684  10.060 -0.0439 -0.4867  0.5145
   89SAPS   O22 8569   0.967   0.706  10.066 -0.0720  0.2924 -0.0436
   89SAPS   C22 8570   0.756   0.734   9.947  0.9374 -0.7011  0.4803
   89SAPS   H2R 8571   0.648   0.749   9.969  0.2025  3.4241 -4.2496
   89SAPS   H2S 8572   0.798   0.834   9.925 -1.5412  0.3653  0.2941
   89SAPS    C3 8573   0.791   0.400  10.285  0.2630  0.5949 -0.0873
   89SAPS    HX 8574   0.699   0.425  10.343  1.0411  0.7343  1.1192
   89SAPS    HY 8575   0.866   0.354  10.353 -0.0760 -0.2381 -0.2651
   89SAPS   O31 8576   0.767   0.316  10.176 -0.5632 -1.2630 -0.3859
   89SAPS   C31 8577   0.648   0.307  10.132  0.0559 -0.1447 -0.0664
   89SAPS   O32 8578   0.551   0.354  10.187  0.4172  0.2528  0.7417
   89SAPS   C32 8579   0.648   0.232   9.993 -0.3279 -0.0997  0.4798
   89SAPS   H2X 8580   0.731   0.158  10.000 -1.3086 -1.4930 -1.6133
   89SAPS   H2Y 8581   0.687   0.314   9.930  2.5629 -0.9968  0.9432
   89SAPS   C23 8582   0.765   0.637   9.829 -0.6475  0.3595 -0.1335
   89SAPS   H3R 8583   0.752   0.537   9.874  1.5231  0.7976  1.6452
   89SAPS   H3S 8584   0.867   0.648   9.785  0.9387 -0.6411  3.0287
   89SAPS   C24 8585   0.660   0.666   9.727  0.5749 -0.5243  1.3464
   89SAPS   H4R 8586   0.701   0.634   9.629 -2.7772 -2.9175  0.5839
   89SAPS   H4S 8587   0.651   0.773   9.697 -1.2099 -0.8956  0.4587
   89SAPS   C25 8588   0.523   0.613   9.750 -0.3622 -0.6406  0.3538
   89SAPS   H5R 8589   0.499   0.627   9.856 -0.7580 -1.6626  0.4129
   89SAPS   C26 8590   0.452   0.526   9.669  0.2472 -0.6312 -0.5241
   89SAPS   H6R 8591   0.361   0.474   9.704  0.6529 -0.6839  0.4820
   89SAPS   C27 8592   0.496   0.487   9.534 -0.2101  0.0183  0.7556
   89SAPS   H7R 8593   0.604   0.461   9.529 -0.1975  0.3523 -2.2419
   89SAPS   H7S 8594   0.487   0.576   9.469 -0.9704 -1.3199 -1.0706
   89SAPS   C28 8595   0.399   0.393   9.461 -0.1019  0.1129 -0.0576
   89SAPS   H8R 8596   0.296   0.385   9.498  0.1311 -0.7943  0.4147
   89SAPS   C29 8597   0.428   0.315   9.355 -0.1167 -0.0689  0.2360
   89SAPS   H9R 8598   0.350   0.261   9.299  0.5601  2.3343 -3.3886
   89SAPS  C210 8599   0.559   0.305   9.285  0.0163  0.4671 -0.1112
   89SAPS  H10R 8600   0.583   0.197   9.270  0.5547  0.3967  1.1386
   89SAPS  H10S 8601   0.639   0.338   9.355  1.3357  1.4884 -2.0018
   89SAPS  C211 8602   0.570   0.395   9.171 -0.2235 -0.0823  0.6496
   89SAPS  H11R 8603   0.584   0.501   9.195  1.5511 -0.1300  0.0070
   89SAPS  C212 8604   0.555   0.361   9.043 -0.2790  0.1012  0.2902
   89SAPS  H12R 8605   0.560   0.443   8.970 -0.3595 -0.2850 -0.1559
   89SAPS  C213 8606   0.520   0.220   8.994 -0.5247 -0.2560  0.2871
   89SAPS  H13R 8607   0.418   0.225   8.951 -0.3565  1.3084  0.0241
   89SAPS  H13S 8608   0.513   0.144   9.075  0.3329  0.5026  1.1084
   89SAPS  C214 8609   0.637   0.177   8.904  0.0098 -0.0511 -0.7092
   89SAPS  H14R 8610   0.724   0.135   8.956 -0.3275 -2.0183 -1.6636
   89SAPS  C215 8611   0.639   0.182   8.766  0.4418 -0.0657  0.1433
   89SAPS  H15R 8612   0.731   0.136   8.726  1.6400  2.8438 -0.7732
   89SAPS  C216 8613   0.523   0.218   8.671  0.1746 -0.2465  0.4489
   89SAPS  H16R 8614   0.438   0.270   8.720  0.4453  1.0232 -0.3921
   89SAPS  H16S 8615   0.489   0.116   8.643  1.0891 -1.0379  2.0524
   89SAPS  C217 8616   0.567   0.267   8.533 -0.4351 -0.3759  0.9524
   89SAPS  H17R 8617   0.482   0.272   8.461  0.3831  2.3516  0.0749
   89SAPS  H17S 8618   0.643   0.197   8.492  0.7865  0.2400  2.0908
   89SAPS  C218 8619   0.634   0.408   8.522  0.1765 -0.1031  0.1344
   89SAPS  H18R 8620   0.676   0.419   8.420  1.1824 -2.7764  0.1868
   89SAPS  H18S 8621   0.714   0.412   8.599 -0.2364 -1.2515  0.6441
   89SAPS  C219 8622   0.534   0.529   8.559  0.0974  0.3769  0.4337
   89SAPS  H19R 8623   0.602   0.617   8.565  0.2227  0.4652 -1.5340
   89SAPS  H19S 8624   0.488   0.502   8.656 -1.3079 -3.9703 -1.2176
   89SAPS  C220 8625   0.426   0.549   8.453  0.7291 -0.1889  0.2666
   89SAPS  H20R 8626   0.370   0.456   8.428  1.3098 -0.1459 -1.3102
   89SAPS  H20S 8627   0.467   0.592   8.359 -0.0165  2.7759  1.1866
   89SAPS  H20T 8628   0.352   0.627   8.483  1.4107 -0.2093  2.1144
   89SAPS   C33 8629   0.517   0.178   9.928 -0.3228 -0.5408  0.3509
   89SAPS   H3X 8630   0.456   0.264   9.892  0.3025  0.5604  1.7661
   89SAPS   H3Y 8631   0.456   0.116   9.998 -0.2615 -0.9585  0.0342
   89SAPS   C34 8632   0.554   0.092   9.810  1.1089 -0.2793  1.2419
   89SAPS   H4X 8633   0.462   0.063   9.755  1.6002  0.6697 -0.1330
   89SAPS   H4Y 8634   0.592  -0.004   9.851  1.1659 -0.1883  1.4047
   89SAPS   C35 8635   0.656   0.150   9.712  0.9692  0.0529  0.1253
   89SAPS   H5X 8636   0.756   0.171   9.754  0.9782  2.3716 -0.8572
   89SAPS   H5Y 8637   0.631   0.253   9.678  1.1517  0.1278  0.2150
   89SAPS   C36 8638   0.674   0.055   9.589 -0.3970 -0.4880 -0.3794
   89SAPS   H6X 8639   0.593   0.074   9.516 -1.9762  0.6054  1.5477
   89SAPS   H6Y 8640   0.680  -0.050   9.626 -0.4019 -0.4909 -0.3886
   89SAPS   C37 8641   0.806   0.096   9.512  0.2108 -0.2841  0.3321
   89SAPS   H7X 8642   0.902   0.077   9.564  0.8220  0.4409 -0.5031
   89SAPS   H7Y 8643   0.798   0.206   9.509  1.9509  0.1115  4.2213
   89SAPS   C38 8644   0.811   0.039   9.373  0.2154  0.0059 -0.2175
   89SAPS   H8X 8645   0.720   0.056   9.312  1.6167 -1.4915 -2.9065
   89SAPS   H8Y 8646   0.815  -0.072   9.369  2.2922  0.0333  0.0920
   89SAPS   C39 8647   0.931   0.099   9.306  1.0586 -0.7001  0.2511
   89SAPS   H9X 8648   1.014   0.072   9.374  0.2768 -0.2940  1.3921
   89SAPS   H9Y 8649   0.926   0.210   9.311 -1.4000 -0.7760  1.0765
   89SAPS  C310 8650   0.968   0.046   9.162  0.0597 -0.2086 -0.0674
   89SAPS  H10X 8651   0.883   0.078   9.098  0.2481 -2.3307 -1.4678
   89SAPS  H10Y 8652   0.964  -0.065   9.162 -1.3971 -0.1730  0.0563
   89SAPS  C311 8653   1.104   0.091   9.112 -0.4799  0.3522  0.6288
   89SAPS  H11X 8654   1.176   0.074   9.195 -3.0603 -0.1656  2.8836
   89SAPS  H11Y 8655   1.102   0.200   9.089 -0.4490 -0.0902 -1.6662
   89SAPS  C312 8656   1.146   0.002   8.989 -0.5864  0.7970  0.4105
   89SAPS  H12X 8657   1.078   0.026   8.904 -2.2150  0.0077  1.4305
   89SAPS  H12Y 8658   1.132  -0.107   9.006  0.2309  0.1161 -2.5669
   89SAPS  C313 8659   1.300   0.040   8.955 -0.5026 -0.2288  0.1843
   89SAPS  H13X 8660   1.364   0.029   9.045 -1.4266  0.7287  0.9910
   89SAPS  H13Y 8661   1.317   0.147   8.930  0.9198 -0.8819 -1.9175
   89SAPS  C314 8662   1.363  -0.027   8.832  0.3844 -0.5651 -0.0450
   89SAPS  H14X 8663   1.296  -0.011   8.746  0.1352 -1.6262 -0.0554
   89SAPS  H14Y 8664   1.395  -0.130   8.861  2.6083  0.3802  1.1772
   89SAPS  C315 8665   1.499   0.039   8.804  0.0016  0.0467  0.5099
   89SAPS  H15X 8666   1.539   0.072   8.902  0.8113 -1.0947  0.5891
   89SAPS  H15Y 8667   1.484   0.120   8.730  0.5654 -1.2791 -1.1415
   89SAPS  C316 8668   1.597  -0.055   8.743 -1.0290 -0.3938  0.0568
   89SAPS  H16X 8669   1.571  -0.082   8.638  1.4475  1.4776 -1.1653
   89SAPS  H16Y 8670   1.614  -0.148   8.801 -2.4577  0.1304  1.3784
   89SAPS  C317 8671   1.731   0.021   8.729 -0.5962 -0.2236 -0.3689
   89SAPS  H17X 8672   1.788  -0.004   8.821  1.4864 -3.0490 -2.2460
   89SAPS  H17Y 8673   1.711   0.130   8.719  0.6598  0.0300 -0.2128
   89SAPS  C318 8674   1.814  -0.034   8.611 -0.3285  0.0752  0.1071
   89SAPS  H18X 8675   1.776   0.006   8.515 -1.3747 -2.1433 -0.4632
   89SAPS  H18Y 8676   1.810  -0.145   8.620 -2.2986  0.2119  1.5624
   89SAPS  H18Z 8677   1.917   0.006   8.618 -1.0866  2.2010 -0.1011
   90SAPS     N 8678   0.516   6.165  10.493 -0.0771 -0.5720 -0.2460
   90SAPS   HN1 8679   0.584   6.209  10.427  0.0772  0.1138  0.3441
   90SAPS   HN2 8680   0.493   6.070  10.458 -0.8795  0.0400 -1.4482
   90SAPS   HN3 8681   0.434   6.229  10.492  0.8351  0.8011  2.4946
   90SAPS   C12 8682   0.579   6.157  10.625 -0.8145 -0.0760  0.0698
   90SAPS  H12A 8683   0.591   6.253  10.673  2.5148 -0.2153 -0.2580
   90SAPS   C13 8684   0.498   6.072  10.723  0.0312 -0.8415  0.1820
   90SAPS  O13A 8685   0.411   5.983  10.693  0.2841 -0.4330  0.0787
   90SAPS  O13B 8686   0.526   6.085  10.846 -0.1968 -0.9119 -0.2374
   90SAPS   C11 8687   0.722   6.101  10.606 -0.0103 -0.1954  0.4730
   90SAPS  H11A 8688   0.714   6.004  10.553 -1.9721 -2.5358  4.5720
   90SAPS  H11B 8689   0.776   6.087  10.702  2.2010  0.7870 -0.5601
   90SAPS     P 8690   0.868   6.326  10.572 -0.0181  0.1100 -0.1088
   90SAPS   O13 8691   0.933   6.398  10.458  0.6446 -0.9488  0.2786
   90SAPS   O14 8692   0.779   6.407  10.648  0.1225  0.2971 -0.1711
   90SAPS   O12 8693   0.799   6.191  10.527  0.2871  0.0044 -0.1457
   90SAPS   O11 8694   0.990   6.277  10.656 -0.3527 -0.0883  1.0385
   90SAPS    C1 8695   1.060   6.153  10.630 -0.7017  0.4762  0.0736
   90SAPS    HA 8696   1.098   6.114  10.727 -0.2804  0.2975 -0.1560
   90SAPS    HB 8697   0.994   6.068  10.603 -1.3015  1.3290 -1.2838
   90SAPS    C2 8698   1.168   6.168  10.519  0.0525  0.7368  0.7724
   90SAPS    HS 8699   1.211   6.266  10.552  0.9346 -0.1129  2.2641
   90SAPS   O21 8700   1.101   6.167  10.388  0.2629 -0.1266 -0.0933
   90SAPS   C21 8701   1.146   6.263  10.316  0.0368 -0.0007  0.0142
   90SAPS   O22 8702   1.231   6.349  10.345  0.0514  0.1321  0.4632
   90SAPS   C22 8703   1.055   6.287  10.192  0.8134 -0.9521 -1.0938
   90SAPS   H2R 8704   1.011   6.194  10.151 -0.3700 -0.9492  0.0730
   90SAPS   H2S 8705   0.970   6.350  10.227  1.8799 -0.6807  1.1450
   90SAPS    C3 8706   1.270   6.055  10.523 -0.0408 -0.5548  0.6453
   90SAPS    HX 8707   1.223   5.954  10.528 -0.1995 -0.7114 -2.2100
   90SAPS    HY 8708   1.326   6.064  10.618 -1.8005 -0.5428  1.7373
   90SAPS   O31 8709   1.353   6.058  10.406  0.1809 -0.0092 -0.6785
   90SAPS   C31 8710   1.465   6.135  10.416  0.1257 -0.8966 -0.1113
   90SAPS   O32 8711   1.492   6.210  10.507 -0.7824  0.3623 -0.6268
   90SAPS   C32 8712   1.554   6.119  10.288 -0.0431 -0.4335  0.1391
   90SAPS   H2X 8713   1.489   6.149  10.204  2.8131 -0.5165 -2.2609
   90SAPS   H2Y 8714   1.566   6.008  10.286  1.4702 -0.3519  2.0343
   90SAPS   C23 8715   1.127   6.359  10.077 -0.2527  0.7649  0.7589
   90SAPS   H3R 8716   1.156   6.459  10.117  0.9257  0.8559 -0.2416
   90SAPS   H3S 8717   1.046   6.378  10.003 -0.0483 -0.5813  0.1685
   90SAPS   C24 8718   1.252   6.301   9.996  0.3210  0.0681  0.4865
   90SAPS   H4R 8719   1.346   6.313  10.054  0.2200 -0.5570  0.7839
   90SAPS   H4S 8720   1.265   6.372   9.912 -0.1896 -0.4892 -0.0764
   90SAPS   C25 8721   1.232   6.172   9.942  0.7717  0.0201  0.4151
   90SAPS   H5R 8722   1.261   6.096  10.016 -0.8676 -0.5025  0.5519
   90SAPS   C26 8723   1.198   6.134   9.816 -0.0702 -0.0705  0.1242
   90SAPS   H6R 8724   1.190   6.027   9.792  0.8875 -0.6266  2.1187
   90SAPS   C27 8725   1.161   6.219   9.694 -0.0597 -0.0924 -0.0473
   90SAPS   H7R 8726   1.107   6.312   9.721  2.4570  1.8698 -1.2455
   90SAPS   H7S 8727   1.102   6.172   9.613 -0.5241  0.4124 -0.0130
   90SAPS   C28 8728   1.292   6.262   9.630  0.2934 -0.1754  1.0505
   90SAPS   H8R 8729   1.371   6.306   9.692  1.5142 -1.0525  0.1519
   90SAPS   C29 8730   1.309   6.277   9.494  0.0068 -0.0184 -0.6483
   90SAPS   H9R 8731   1.405   6.327   9.474  0.4223  0.1291  1.4584
   90SAPS  C210 8732   1.223   6.248   9.379  0.4769  0.2040 -0.2911
   90SAPS  H10R 8733   1.116   6.242   9.406  0.7124 -1.8203  0.2887
   90SAPS  H10S 8734   1.256   6.153   9.332  0.7181 -0.1627  0.6150
   90SAPS  C211 8735   1.245   6.362   9.286 -0.0684 -0.4481  0.2547
   90SAPS  H11R 8736   1.273   6.456   9.335 -1.0069 -0.1173  0.1597
   90SAPS  C212 8737   1.246   6.356   9.151  0.4645  0.2859  0.5492
   90SAPS  H12R 8738   1.244   6.447   9.088 -0.2087  0.6013  1.0156
   90SAPS  C213 8739   1.225   6.225   9.078 -0.1783 -0.4448  0.5444
   90SAPS  H13R 8740   1.162   6.237   8.988  0.7439  2.9410  0.1816
   90SAPS  H13S 8741   1.170   6.146   9.133  0.7329 -0.9433  0.7734
   90SAPS  C214 8742   1.359   6.173   9.033 -0.2879 -0.2765  0.5945
   90SAPS  H14R 8743   1.397   6.094   9.100  0.3803  0.7946  1.5179
   90SAPS  C215 8744   1.434   6.202   8.920 -0.3046  0.2345 -0.0818
   90SAPS  H15R 8745   1.522   6.149   8.880 -0.8555  0.0157 -1.0335
   90SAPS  C216 8746   1.385   6.315   8.828  0.5071  0.8373 -0.0305
   90SAPS  H16R 8747   1.339   6.398   8.888  0.0840  1.7749 -1.6048
   90SAPS  H16S 8748   1.300   6.276   8.768  1.6668 -3.3039  0.7226
   90SAPS  C217 8749   1.498   6.377   8.734  0.1653  0.0743  0.6810
   90SAPS  H17R 8750   1.590   6.368   8.795  0.8395  1.8917  0.0067
   90SAPS  H17S 8751   1.473   6.485   8.726 -0.4631 -0.1839 -1.3086
   90SAPS  C218 8752   1.534   6.299   8.606 -0.2133  0.6397 -0.0894
   90SAPS  H18R 8753   1.446   6.290   8.538 -0.4688  1.7257  0.0778
   90SAPS  H18S 8754   1.570   6.196   8.623 -3.6193 -0.6873 -0.1989
   90SAPS  C219 8755   1.638   6.374   8.522  0.5971 -0.3789 -0.1589
   90SAPS  H19R 8756   1.605   6.480   8.522  0.8276 -0.2884  1.1777
   90SAPS  H19S 8757   1.636   6.345   8.415 -1.5074 -0.8442 -0.0365
   90SAPS  C220 8758   1.778   6.360   8.587  0.0735 -0.8181  0.5679
   90SAPS  H20R 8759   1.773   6.407   8.687  1.3336 -0.7229  0.5933
   90SAPS  H20S 8760   1.858   6.420   8.540 -2.1339  1.8514 -0.0598
   90SAPS  H20T 8761   1.811   6.254   8.587 -0.8206 -1.1090 -0.3120
   90SAPS   C33 8762   1.679   6.198  10.271 -0.1578  0.9607  0.5694
   90SAPS   H3X 8763   1.755   6.155  10.341 -0.3104  1.7736  1.2560
   90SAPS   H3Y 8764   1.660   6.306  10.292  0.1663  0.8035  1.7926
   90SAPS   C34 8765   1.740   6.189  10.126 -0.2087 -0.6060  0.2236
   90SAPS   H4X 8766   1.744   6.094  10.069 -2.6209 -0.0429 -0.9953
   90SAPS   H4Y 8767   1.847   6.219  10.130  0.3215 -1.9886 -1.8293
   90SAPS   C35 8768   1.683   6.311  10.034 -0.2984 -0.1653 -0.0287
   90SAPS   H5X 8769   1.705   6.399  10.098  0.9416 -1.2292  1.0839
   90SAPS   H5Y 8770   1.573   6.319  10.017 -0.7843  2.8134  3.3593
   90SAPS   C36 8771   1.737   6.307   9.892 -0.1025 -0.4527  0.3132
   90SAPS   H6X 8772   1.848   6.310   9.877 -0.3749  1.4565 -2.0809
   90SAPS   H6Y 8773   1.697   6.400   9.846  0.5615  0.3810  1.3633
   90SAPS   C37 8774   1.692   6.179   9.817  0.1624 -0.9881 -0.1492
   90SAPS   H7X 8775   1.582   6.166   9.828  0.2611 -0.9843  0.9551
   90SAPS   H7Y 8776   1.726   6.086   9.868  0.2872 -1.4026 -0.9739
   90SAPS   C38 8777   1.720   6.181   9.667 -0.3503  0.0537 -0.0740
   90SAPS   H8X 8778   1.830   6.172   9.678 -0.4281 -0.1460  0.5723
   90SAPS   H8Y 8779   1.688   6.274   9.614 -1.4190 -0.2982 -0.0841
   90SAPS   C39 8780   1.668   6.056   9.599 -0.6059 -0.1393 -0.0052
   90SAPS   H9X 8781   1.562   6.047   9.631  0.1995 -0.9109  2.7650
   90SAPS   H9Y 8782   1.716   5.971   9.652  1.0588  1.6173  1.4629
   90SAPS  C310 8783   1.689   6.047   9.448  0.5156  0.1362  0.1139
   90SAPS  H10X 8784   1.791   6.083   9.419  0.7309 -1.1476 -0.8116
   90SAPS  H10Y 8785   1.611   6.108   9.398  0.0828  1.4509  2.2733
   90SAPS  C311 8786   1.665   5.906   9.394  0.7477 -0.1528 -0.3130
   90SAPS  H11X 8787   1.644   5.907   9.285 -1.7562 -0.2023  0.1040
   90SAPS  H11Y 8788   1.563   5.886   9.434  0.3972  1.5667 -0.2662
   90SAPS  C312 8789   1.774   5.806   9.417 -0.2362 -0.3870  0.0024
   90SAPS  H12X 8790   1.774   5.784   9.526 -1.4564 -0.7878 -0.0566
   90SAPS  H12Y 8791   1.869   5.839   9.370  0.3904 -2.1527 -0.0692
   90SAPS  C313 8792   1.756   5.663   9.358  0.0881  0.2618 -0.7689
   90SAPS  H13X 8793   1.667   5.617   9.405 -1.4617  3.8713  0.1596
   90SAPS  H13Y 8794   1.845   5.610   9.398 -0.2595  0.1396 -0.1605
   90SAPS  C314 8795   1.767   5.651   9.208 -0.1547  0.0470 -0.3480
   90SAPS  H14X 8796   1.849   5.716   9.170 -0.7269  0.7804 -0.3595
   90SAPS  H14Y 8797   1.663   5.661   9.169 -1.2185 -1.4329  1.9153
   90SAPS  C315 8798   1.815   5.512   9.156  0.4947  0.3353  0.2850
   90SAPS  H15X 8799   1.722   5.451   9.153  0.0070  0.9522  2.0490
   90SAPS  H15Y 8800   1.894   5.458   9.212  0.5949  0.6476  0.4474
   90SAPS  C316 8801   1.871   5.529   9.011  0.6993  0.7714 -0.5684
   90SAPS  H16X 8802   1.960   5.593   8.993  0.0545  2.2582  1.1500
   90SAPS  H16Y 8803   1.787   5.581   8.960  1.7275  1.7063 -1.3611
   90SAPS  C317 8804   1.887   5.385   8.955 -0.0549 -0.7808  0.2412
   90SAPS  H17X 8805   1.782   5.351   8.962 -1.1702  2.1350 -0.9559
   90SAPS  H17Y 8806   1.961   5.328   9.015  2.4571  1.5644 -0.4117
   90SAPS  C318 8807   1.928   5.395   8.807 -0.4860 -0.0494  0.3928
   90SAPS  H18X 8808   1.858   5.452   8.743  1.3081  1.4733 -0.3027
   90SAPS  H18Y 8809   1.951   5.296   8.763 -0.6125 -0.3029  0.8909
   90SAPS  H18Z 8810   2.019   5.458   8.799 -1.4581  1.4482  0.7065
   91SAPS     N 8811   0.197   4.816   6.003  0.3293  0.0932 -0.5570
   91SAPS   HN1 8812   0.249   4.761   6.075  0.9965  0.8181 -0.4754
   91SAPS   HN2 8813   0.105   4.838   6.046  0.6517  1.1927 -0.4183
   91SAPS   HN3 8814   0.196   4.751   5.922  1.4101 -2.0912  1.0589
   91SAPS   C12 8815   0.278   4.934   5.965 -0.1772  0.2584 -0.0913
   91SAPS  H12A 8816   0.304   4.981   6.058  2.4731 -1.3555  0.0684
   91SAPS   C13 8817   0.411   4.889   5.888  0.0135 -0.4136  0.2406
   91SAPS  O13A 8818   0.434   4.765   5.893  0.4759  0.8327 -0.1647
   91SAPS  O13B 8819   0.506   4.975   5.904  0.8610 -0.2640 -0.8683
   91SAPS   C11 8820   0.202   5.038   5.881  0.2869 -0.3516  0.3911
   91SAPS  H11A 8821   0.178   5.004   5.778 -2.5192 -0.6885  1.0865
   91SAPS  H11B 8822   0.265   5.127   5.858  0.0547 -0.5988 -1.4050
   91SAPS     P 8823  -0.011   5.185   5.917  0.1616 -0.2512 -0.0637
   91SAPS   O13 8824   0.053   5.291   5.834  0.3738 -0.3639 -0.2851
   91SAPS   O14 8825  -0.133   5.117   5.866  0.4591  0.1405 -0.7368
   91SAPS   O12 8826   0.088   5.075   5.959 -0.2451  0.4115 -0.0578
   91SAPS   O11 8827  -0.044   5.249   6.058  0.0052 -0.0720  0.2437
   91SAPS    C1 8828   0.069   5.274   6.145  0.9230  0.3454 -1.4483
   91SAPS    HA 8829   0.168   5.269   6.095  0.5751 -0.2983 -2.0895
   91SAPS    HB 8830   0.058   5.373   6.194 -0.3892 -1.6833  2.8709
   91SAPS    C2 8831   0.070   5.167   6.257  0.0821  0.1529 -0.6345
   91SAPS    HS 8832   0.052   5.073   6.200  1.8631  0.2054 -1.3680
   91SAPS   O21 8833  -0.043   5.187   6.344 -0.3023 -0.1374 -0.1898
   91SAPS   C21 8834  -0.068   5.089   6.421  0.1298  0.4894  0.2266
   91SAPS   O22 8835  -0.017   4.978   6.423  0.3913 -0.2753  0.1197
   91SAPS   C22 8836  -0.161   5.130   6.530  0.7452  1.0055  0.3123
   91SAPS   H2R 8837  -0.099   5.167   6.614  0.8063 -0.0462  0.7477
   91SAPS   H2S 8838  -0.228   5.214   6.499 -1.8323 -1.2762 -0.7564
   91SAPS    C3 8839   0.205   5.156   6.332  0.3269  0.4764  0.6133
   91SAPS    HX 8840   0.283   5.104   6.272 -0.7965 -0.6453  0.0848
   91SAPS    HY 8841   0.195   5.094   6.424 -0.9999  1.9260  1.4932
   91SAPS   O31 8842   0.248   5.276   6.387 -0.1774 -0.1574 -0.2346
   91SAPS   C31 8843   0.336   5.344   6.327  0.3476 -0.2652 -0.1020
   91SAPS   O32 8844   0.383   5.324   6.213  0.4265 -0.1492 -0.7829
   91SAPS   C32 8845   0.367   5.471   6.399  0.7042  0.5804 -0.4640
   91SAPS   H2X 8846   0.389   5.438   6.503 -2.5316 -1.6156 -0.3099
   91SAPS   H2Y 8847   0.277   5.537   6.400  0.1603 -0.0884  1.6765
   91SAPS   C23 8848  -0.259   5.014   6.578  0.1971 -0.1728  0.0486
   91SAPS   H3R 8849  -0.213   4.932   6.637 -0.8596 -0.9105 -0.1091
   91SAPS   H3S 8850  -0.319   4.976   6.492 -0.0497  1.6038 -0.6235
   91SAPS   C24 8851  -0.363   5.076   6.669 -0.4994 -0.9712 -0.4351
   91SAPS   H4R 8852  -0.417   5.162   6.623  0.8188  0.3997  0.5068
   91SAPS   H4S 8853  -0.302   5.110   6.755 -1.0508 -2.9800  0.7962
   91SAPS   C25 8854  -0.461   4.971   6.708 -0.1346 -0.9138  0.8772
   91SAPS   H5R 8855  -0.499   4.917   6.620  2.8894  1.0699 -1.8772
   91SAPS   C26 8856  -0.482   4.940   6.840 -0.2905  0.6807  0.1311
   91SAPS   H6R 8857  -0.552   4.859   6.868 -0.9162  1.6821  1.6448
   91SAPS   C27 8858  -0.436   5.000   6.964 -0.9349 -0.3521  0.4423
   91SAPS   H7R 8859  -0.525   5.018   7.027 -0.1630  2.6430  0.8725
   91SAPS   H7S 8860  -0.383   5.098   6.961  2.8811 -2.1986  1.1463
   91SAPS   C28 8861  -0.321   4.920   7.019 -0.0253 -0.1985  0.4873
   91SAPS   H8R 8862  -0.239   4.896   6.950  0.4636 -2.2284  1.6715
   91SAPS   C29 8863  -0.312   4.877   7.141  0.4203 -0.1936  0.0417
   91SAPS   H9R 8864  -0.213   4.839   7.170  0.7120  1.0141  0.6762
   91SAPS  C210 8865  -0.415   4.894   7.248 -0.5096 -0.0057 -0.3833
   91SAPS  H10R 8866  -0.452   4.999   7.247  0.7691  0.4606 -1.5627
   91SAPS  H10S 8867  -0.351   4.905   7.337  0.6979 -0.0060 -1.2270
   91SAPS  C211 8868  -0.519   4.791   7.260 -0.6507  0.5092 -0.0099
   91SAPS  H11R 8869  -0.554   4.761   7.161  1.8530  1.1740 -1.1627
   91SAPS  C212 8870  -0.590   4.745   7.370  0.4017  0.3503  0.5755
   91SAPS  H12R 8871  -0.666   4.668   7.352  2.6577 -1.7858 -0.3271
   91SAPS  C213 8872  -0.581   4.786   7.511  0.1477 -0.3318  0.6236
   91SAPS  H13R 8873  -0.684   4.761   7.544  0.8015 -1.3663  1.9850
   91SAPS  H13S 8874  -0.562   4.895   7.527 -1.7778 -0.0003  0.8460
   91SAPS  C214 8875  -0.478   4.701   7.582 -0.1719  0.0009 -0.2077
   91SAPS  H14R 8876  -0.397   4.680   7.510 -0.2863  2.5709 -1.2080
   91SAPS  C215 8877  -0.482   4.653   7.710 -1.1716  0.0286 -0.2828
   91SAPS  H15R 8878  -0.387   4.616   7.751 -1.0792  2.4625  1.9181
   91SAPS  C216 8879  -0.582   4.674   7.813 -0.0078 -0.2028 -0.3300
   91SAPS  H16R 8880  -0.573   4.594   7.889 -1.2004  0.6377  0.7440
   91SAPS  H16S 8881  -0.683   4.660   7.769 -0.3663 -1.2490  0.7981
   91SAPS  C217 8882  -0.576   4.808   7.894  0.2024 -0.0524 -0.0265
   91SAPS  H17R 8883  -0.650   4.785   7.974 -0.4273 -1.6598 -1.0270
   91SAPS  H17S 8884  -0.588   4.896   7.827  0.4160  0.3866  0.5032
   91SAPS  C218 8885  -0.438   4.824   7.960  0.3220 -0.1373 -0.0285
   91SAPS  H18R 8886  -0.436   4.914   8.025  0.1222 -1.1079  1.3620
   91SAPS  H18S 8887  -0.361   4.820   7.880 -1.7189 -1.3578 -2.0610
   91SAPS  C219 8888  -0.396   4.712   8.059  0.3297 -0.2842  0.0813
   91SAPS  H19R 8889  -0.350   4.629   8.000 -0.0861 -0.4309 -0.0376
   91SAPS  H19S 8890  -0.488   4.692   8.117  0.1645  2.0388  0.7172
   91SAPS  C220 8891  -0.299   4.755   8.173 -0.4300 -0.4665  0.3268
   91SAPS  H20R 8892  -0.343   4.844   8.223  1.7880  0.5726  0.5729
   91SAPS  H20S 8893  -0.199   4.777   8.129 -1.7666 -0.5862 -3.0998
   91SAPS  H20T 8894  -0.288   4.679   8.253  1.3694  0.6941  1.2496
   91SAPS   C33 8895   0.492   5.555   6.355  0.0983 -0.1404 -0.4302
   91SAPS   H3X 8896   0.490   5.580   6.247  1.7565  1.1701 -0.1927
   91SAPS   H3Y 8897   0.580   5.488   6.366 -1.8547 -2.6715  0.8738
   91SAPS   C34 8898   0.509   5.671   6.451  0.0331  0.2769 -0.2140
   91SAPS   H4X 8899   0.407   5.712   6.467  0.3965  0.8437  0.6946
   91SAPS   H4Y 8900   0.577   5.745   6.404  0.0703  0.4806  0.1606
   91SAPS   C35 8901   0.567   5.632   6.590  0.6099 -0.2890 -0.1032
   91SAPS   H5X 8902   0.528   5.537   6.634  1.2201 -2.1833 -3.3405
   91SAPS   H5Y 8903   0.552   5.707   6.670 -1.1444 -0.9854  0.2675
   91SAPS   C36 8904   0.712   5.597   6.582 -0.1189 -0.1823 -0.1188
   91SAPS   H6X 8905   0.761   5.684   6.534 -0.3783  0.2037  0.3043
   91SAPS   H6Y 8906   0.729   5.503   6.524 -0.3119  0.3732 -1.0935
   91SAPS   C37 8907   0.776   5.589   6.719 -0.1249 -0.1462 -0.1134
   91SAPS   H7X 8908   0.737   5.505   6.781  3.4156 -1.4270  0.6213
   91SAPS   H7Y 8909   0.765   5.687   6.771 -0.2005 -0.1263 -0.1669
   91SAPS   C38 8910   0.934   5.564   6.713  0.1943 -0.3489  0.0063
   91SAPS   H8X 8911   0.974   5.615   6.623  0.6550  0.4858  0.6629
   91SAPS   H8Y 8912   0.953   5.455   6.711 -0.6682 -0.4953 -1.8531
   91SAPS   C39 8913   1.009   5.622   6.839  0.6781 -0.5233  0.5082
   91SAPS   H9X 8914   1.022   5.732   6.838  2.3302 -0.6104 -3.2328
   91SAPS   H9Y 8915   1.114   5.587   6.828  0.9104  0.6302 -1.4898
   91SAPS  C310 8916   0.942   5.579   6.968 -0.3316  0.5654  0.3803
   91SAPS  H10X 8917   0.906   5.474   6.961 -2.7018  1.3842 -0.7208
   91SAPS  H10Y 8918   0.854   5.645   6.987  0.3538  1.5218  0.2690
   91SAPS  C311 8919   1.047   5.589   7.076  0.5590  0.0980 -0.7578
   91SAPS  H11X 8920   1.070   5.697   7.083 -0.7784  0.2626  2.7115
   91SAPS  H11Y 8921   1.130   5.519   7.052 -1.3650 -3.2833  1.5819
   91SAPS  C312 8922   0.997   5.537   7.212 -0.2413  0.2153 -0.1959
   91SAPS  H12X 8923   0.996   5.427   7.198 -1.1257 -0.1572  2.2929
   91SAPS  H12Y 8924   0.894   5.572   7.232  0.1656  0.8818  0.8767
   91SAPS  C313 8925   1.083   5.584   7.327  0.2764  0.7259 -0.4427
   91SAPS  H13X 8926   1.088   5.694   7.318 -1.5481  0.7449 -1.8601
   91SAPS  H13Y 8927   1.179   5.532   7.312  0.5084  1.2122 -0.6509
   91SAPS  C314 8928   1.024   5.530   7.457  0.3202  0.6985  0.1060
   91SAPS  H14X 8929   0.975   5.430   7.455 -1.5812  1.3528  4.0369
   91SAPS  H14Y 8930   0.960   5.614   7.490  0.2504 -0.0419  2.0049
   91SAPS  C315 8931   1.139   5.513   7.565  0.3616 -0.4023  0.1083
   91SAPS  H15X 8932   1.192   5.609   7.582 -2.1971  1.0365  0.4255
   91SAPS  H15Y 8933   1.220   5.445   7.530 -0.9573 -1.1132 -1.7370
   91SAPS  C316 8934   1.085   5.459   7.699  0.1514 -0.4012 -0.5697
   91SAPS  H16X 8935   1.052   5.355   7.681  0.9862 -0.9419  0.8979
   91SAPS  H16Y 8936   0.993   5.511   7.732 -0.3987 -1.1394 -0.9213
   91SAPS  C317 8937   1.192   5.459   7.812 -0.0431  0.1145  0.0327
   91SAPS  H17X 8938   1.248   5.555   7.820 -2.3886  1.5567 -0.1818
   91SAPS  H17Y 8939   1.257   5.372   7.786  1.3993  1.4732 -1.1005
   91SAPS  C318 8940   1.135   5.436   7.955  0.1909  0.5966 -0.1038
   91SAPS  H18X 8941   1.214   5.398   8.023 -1.6906 -2.8437  0.3832
   91SAPS  H18Y 8942   1.068   5.348   7.950  0.3859  0.5213 -2.1295
   91SAPS  H18Z 8943   1.090   5.525   8.005  0.5317  1.4525 -1.2904
   92SAPS     N 8944   0.458   1.309   6.191  0.0941  0.4358 -0.8686
   92SAPS   HN1 8945   0.545   1.345   6.234  0.0432  0.4883 -0.8084
   92SAPS   HN2 8946   0.486   1.209   6.186 -0.0174  0.3597 -0.1479
   92SAPS   HN3 8947   0.433   1.344   6.096  0.1144  2.0676 -0.2977
   92SAPS   C12 8948   0.358   1.312   6.299  0.0534 -0.1660  0.6959
   92SAPS  H12A 8949   0.393   1.400   6.351  0.3834  1.7322 -2.4826
   92SAPS   C13 8950   0.216   1.342   6.259  0.3025 -0.0989  0.8561
   92SAPS  O13A 8951   0.191   1.385   6.140  0.2032 -0.3064  0.0277
   92SAPS  O13B 8952   0.130   1.338   6.352 -0.1703 -0.2014  0.7067
   92SAPS   C11 8953   0.370   1.176   6.378  0.8851 -0.0302 -0.4713
   92SAPS  H11A 8954   0.312   1.103   6.317  2.8841 -1.3512 -0.8788
   92SAPS  H11B 8955   0.324   1.190   6.479  1.3567  1.6810 -0.4572
   92SAPS     P 8956   0.584   1.024   6.324  0.0688  0.1763 -0.0669
   92SAPS   O13 8957   0.561   1.047   6.183 -0.8988 -0.1068 -0.5548
   92SAPS   O14 8958   0.727   1.011   6.361  0.4449 -0.2197  0.0672
   92SAPS   O12 8959   0.509   1.143   6.407  0.0726  0.6382 -0.4519
   92SAPS   O11 8960   0.508   0.897   6.370 -0.4230  0.1880  0.4588
   92SAPS    C1 8961   0.434   0.886   6.493  0.4284 -0.3422 -0.5596
   92SAPS    HA 8962   0.364   0.971   6.512  0.3268 -0.3979 -0.6838
   92SAPS    HB 8963   0.365   0.799   6.484 -3.4320  2.2701  0.7803
   92SAPS    C2 8964   0.523   0.865   6.620  0.9327  0.3165  0.3345
   92SAPS    HS 8965   0.457   0.833   6.703  0.8345 -1.4230 -0.3695
   92SAPS   O21 8966   0.598   0.981   6.656 -0.4816  0.3350 -0.1269
   92SAPS   C21 8967   0.525   1.083   6.693  0.3661 -0.1182  0.4077
   92SAPS   O22 8968   0.410   1.080   6.728 -0.4456 -0.6714 -0.9261
   92SAPS   C22 8969   0.611   1.211   6.676 -0.5105 -0.3931 -1.0849
   92SAPS   H2R 8970   0.705   1.206   6.736 -0.1254  0.3841 -1.6161
   92SAPS   H2S 8971   0.656   1.197   6.576  2.0272 -0.0561 -0.0711
   92SAPS    C3 8972   0.612   0.742   6.604  0.3887 -0.8178  0.6735
   92SAPS    HX 8973   0.667   0.760   6.509 -1.3758 -0.9805 -0.4261
   92SAPS    HY 8974   0.552   0.651   6.581 -1.2429  0.6656 -1.3566
   92SAPS   O31 8975   0.695   0.714   6.720  0.0471 -0.0102 -0.5649
   92SAPS   C31 8976   0.819   0.741   6.715 -0.0673 -0.6645  0.7369
   92SAPS   O32 8977   0.883   0.760   6.613 -0.1183 -0.1509  0.1754
   92SAPS   C32 8978   0.872   0.747   6.852  0.1121  0.1361  0.3760
   92SAPS   H2X 8979   0.828   0.664   6.912 -1.1724  1.6163  1.5923
   92SAPS   H2Y 8980   0.832   0.841   6.898 -2.2600  1.2626 -3.4753
   92SAPS   C23 8981   0.538   1.345   6.695  0.3250  0.6204  0.1752
   92SAPS   H3R 8982   0.439   1.346   6.645 -0.3210 -0.9885  1.3431
   92SAPS   H3S 8983   0.598   1.420   6.639 -0.0086 -0.6785 -2.0458
   92SAPS   C24 8984   0.531   1.387   6.841 -0.3314 -0.5887 -0.2635
   92SAPS   H4R 8985   0.626   1.381   6.897 -2.0404 -0.1130  2.9678
   92SAPS   H4S 8986   0.472   1.310   6.896  1.6672 -2.5800 -0.7789
   92SAPS   C25 8987   0.487   1.533   6.847  0.3016  0.0282  0.2763
   92SAPS   H5R 8988   0.539   1.597   6.775 -1.3481 -0.1533 -1.1490
   92SAPS   C26 8989   0.395   1.580   6.934  0.1471  0.0997  0.7205
   92SAPS   H6R 8990   0.372   1.687   6.936  1.7751  0.4866  0.4114
   92SAPS   C27 8991   0.309   1.490   7.028 -0.0725 -0.4219 -1.0480
   92SAPS   H7R 8992   0.246   1.413   6.977 -0.3568 -1.3051  0.5457
   92SAPS   H7S 8993   0.239   1.565   7.070 -0.3146 -1.4881  0.5769
   92SAPS   C28 8994   0.390   1.428   7.141 -0.6333  0.1301 -0.3616
   92SAPS   H8R 8995   0.477   1.377   7.097  1.8335  0.5080  3.6322
   92SAPS   C29 8996   0.354   1.411   7.263  0.3227 -0.4614  0.1551
   92SAPS   H9R 8997   0.422   1.355   7.330  2.0790  1.7800  0.3413
   92SAPS  C210 8998   0.222   1.454   7.325  0.6428  0.2834  0.3082
   92SAPS  H10R 8999   0.151   1.375   7.356  1.4451 -1.5162 -2.0662
   92SAPS  H10S 9000   0.163   1.509   7.248 -1.2767  1.7440  2.7062
   92SAPS  C211 9001   0.268   1.540   7.444 -0.0373 -0.5398  0.1920
   92SAPS  H11R 9002   0.267   1.647   7.420  1.6199 -0.3273  0.9378
   92SAPS  C212 9003   0.305   1.497   7.566 -0.2934  0.2902 -1.2585
   92SAPS  H12R 9004   0.338   1.562   7.649  0.2021 -2.8759  1.2102
   92SAPS  C213 9005   0.303   1.351   7.603  0.3974  0.2833 -0.3016
   92SAPS  H13R 9006   0.355   1.289   7.527 -2.8090 -0.4012 -2.1341
   92SAPS  H13S 9007   0.200   1.312   7.584  0.9409 -1.1159 -0.4916
   92SAPS  C214 9008   0.374   1.311   7.730 -0.0943  0.4582 -0.2351
   92SAPS  H14R 9009   0.453   1.379   7.765 -2.3637  1.3625  3.8615
   92SAPS  C215 9010   0.354   1.198   7.800 -0.2673 -0.1478  0.7337
   92SAPS  H15R 9011   0.407   1.179   7.894 -0.1247 -0.9613  0.4989
   92SAPS  C216 9012   0.256   1.090   7.759 -0.1644 -0.0837 -0.2435
   92SAPS  H16R 9013   0.178   1.117   7.685 -1.7372 -1.4907  0.8116
   92SAPS  H16S 9014   0.210   1.056   7.854 -0.8990  1.2149 -0.1126
   92SAPS  C217 9015   0.332   0.979   7.690 -0.6080 -0.1132  0.7509
   92SAPS  H17R 9016   0.378   0.912   7.767 -0.8841 -0.1249  0.9073
   92SAPS  H17S 9017   0.409   1.013   7.617 -1.0827  0.1856  0.3907
   92SAPS  C218 9018   0.238   0.883   7.600  0.0217  0.3161 -0.3629
   92SAPS  H18R 9019   0.169   0.959   7.558 -0.6342  0.8964  1.6526
   92SAPS  H18S 9020   0.182   0.812   7.664 -0.3643  0.5271 -0.4613
   92SAPS  C219 9021   0.309   0.803   7.489 -0.0348 -0.8526  0.3537
   92SAPS  H19R 9022   0.373   0.876   7.435 -1.2204 -0.2156 -0.2418
   92SAPS  H19S 9023   0.230   0.772   7.418  0.5327 -0.7050 -0.3569
   92SAPS  C220 9024   0.382   0.682   7.532  0.2069  0.0358  0.7190
   92SAPS  H20R 9025   0.416   0.610   7.455  1.4002 -0.8626  2.0250
   92SAPS  H20S 9026   0.315   0.623   7.598 -0.0273 -0.4566  0.0528
   92SAPS  H20T 9027   0.473   0.718   7.585  0.5607 -0.5413  0.5112
   92SAPS   C33 9028   1.027   0.737   6.862 -0.3330 -0.0594  0.0435
   92SAPS   H3X 9029   1.068   0.825   6.807 -0.1806 -1.2174 -1.7683
   92SAPS   H3Y 9030   1.062   0.649   6.805  0.3183  0.7244 -0.8085
   92SAPS   C34 9031   1.091   0.768   7.003  0.2018 -0.5344  0.3828
   92SAPS   H4X 9032   1.078   0.875   7.028  0.8173 -0.5005  0.5723
   92SAPS   H4Y 9033   1.200   0.748   6.995  0.6947  1.5496  1.2399
   92SAPS   C35 9034   1.010   0.703   7.121 -0.1247 -0.6874  0.4953
   92SAPS   H5X 9035   0.983   0.599   7.092  2.1936 -0.7379 -1.9094
   92SAPS   H5Y 9036   0.915   0.758   7.138  0.2941 -0.0773  0.8970
   92SAPS   C36 9037   1.088   0.695   7.248 -0.5405  0.1872 -0.8061
   92SAPS   H6X 9038   1.106   0.796   7.289 -0.6903  0.3252 -1.0759
   92SAPS   H6Y 9039   1.189   0.654   7.228 -0.4540  0.1850 -0.3704
   92SAPS   C37 9040   1.013   0.600   7.349 -0.8414  0.1764  0.0504
   92SAPS   H7X 9041   0.995   0.503   7.299 -0.3188  1.2973 -2.4874
   92SAPS   H7Y 9042   0.912   0.639   7.373 -0.5158  0.5949  0.7843
   92SAPS   C38 9043   1.089   0.597   7.477  0.1172  0.1603  0.1589
   92SAPS   H8X 9044   1.093   0.696   7.528 -0.8824 -0.8660  2.3770
   92SAPS   H8Y 9045   1.192   0.583   7.438  0.1042  1.1302 -0.2474
   92SAPS   C39 9046   1.043   0.486   7.573 -0.5430  0.3419  0.8581
   92SAPS   H9X 9047   1.035   0.388   7.522  0.3767  1.4194 -1.4932
   92SAPS   H9Y 9048   0.939   0.517   7.598 -0.9079 -0.6154  0.5571
   92SAPS  C310 9049   1.134   0.482   7.696  0.4546  0.5847  0.0244
   92SAPS  H10X 9050   1.141   0.585   7.737  1.1138  0.5758 -0.0526
   92SAPS  H10Y 9051   1.239   0.455   7.674  0.7152  0.1032  1.6781
   92SAPS  C311 9052   1.096   0.386   7.809 -0.6194  0.0506 -0.1858
   92SAPS  H11X 9053   1.097   0.279   7.779  2.1226 -0.2835  0.7532
   92SAPS  H11Y 9054   0.992   0.408   7.839 -0.2852  0.4483  0.7183
   92SAPS  C312 9055   1.200   0.411   7.922 -0.2081  0.2080  0.5662
   92SAPS  H12X 9056   1.193   0.521   7.938 -0.0124  0.4918 -1.0488
   92SAPS  H12Y 9057   1.303   0.394   7.886  0.2579  1.5934  1.1783
   92SAPS  C313 9058   1.170   0.316   8.038 -0.3450 -0.5308 -0.0465
   92SAPS  H13X 9059   1.235   0.339   8.125  0.7142  3.6912 -1.7143
   92SAPS  H13Y 9060   1.196   0.213   8.007 -0.5519 -0.8359  0.7642
   92SAPS  C314 9061   1.018   0.317   8.083 -0.7798 -0.6450  0.1363
   92SAPS  H14X 9062   1.002   0.238   8.160 -1.9918 -0.4200  0.1394
   92SAPS  H14Y 9063   0.935   0.300   8.011 -0.6114 -1.5065  0.1259
   92SAPS  C315 9064   0.975   0.456   8.140  0.0578  0.2799 -0.1834
   92SAPS  H15X 9065   0.865   0.463   8.151 -0.2628  2.2527 -3.3724
   92SAPS  H15Y 9066   1.013   0.537   8.075  1.5160  0.2562  0.5893
   92SAPS  C316 9067   1.034   0.468   8.284  0.3432  0.5747  0.3632
   92SAPS  H16X 9068   1.141   0.435   8.278  0.3541  0.7664 -0.8439
   92SAPS  H16Y 9069   0.983   0.396   8.352  1.4269 -0.3348  0.2546
   92SAPS  C317 9070   1.013   0.614   8.332 -0.4297 -0.1352  0.2020
   92SAPS  H17X 9071   1.067   0.680   8.260 -2.3945 -1.6903 -2.9585
   92SAPS  H17Y 9072   1.062   0.625   8.431  3.1587 -0.3823 -1.3873
   92SAPS  C318 9073   0.870   0.666   8.342  0.7830  0.4704  0.7003
   92SAPS  H18X 9074   0.820   0.602   8.417 -0.4767 -0.4699 -0.8774
   92SAPS  H18Y 9075   0.821   0.648   8.244 -0.6515 -1.5743  1.7131
   92SAPS  H18Z 9076   0.862   0.772   8.375  2.0228  0.9028 -0.3265
   93SAPS     N 9077   1.102   4.487   5.965  0.3274 -0.2861  0.0446
   93SAPS   HN1 9078   1.195   4.506   6.007  1.2207 -1.1978 -1.4280
   93SAPS   HN2 9079   1.106   4.402   5.905 -2.5250 -0.4476 -0.0525
   93SAPS   HN3 9080   1.074   4.564   5.900  1.4447 -0.5588 -0.7782
   93SAPS   C12 9081   1.001   4.469   6.073 -0.1609 -0.4621  0.3010
   93SAPS  H12A 9082   1.045   4.525   6.154  2.1202  2.0581 -2.3981
   93SAPS   C13 9083   0.857   4.528   6.042 -0.1982 -0.6087 -0.3094
   93SAPS  O13A 9084   0.827   4.572   5.923 -0.2758  0.2260 -0.6026
   93SAPS  O13B 9085   0.769   4.515   6.133 -0.3490 -0.0879  0.5901
   93SAPS   C11 9086   0.978   4.317   6.091 -0.0378 -0.1881 -0.8102
   93SAPS  H11A 9087   0.962   4.266   5.994 -0.9580  1.7647 -1.7629
   93SAPS  H11B 9088   0.883   4.299   6.146 -0.1753  1.9260 -0.2543
   93SAPS     P 9089   1.095   4.220   6.297  0.6167 -0.2985 -0.1859
   93SAPS   O13 9090   0.966   4.159   6.339  0.1002 -0.5335 -0.2878
   93SAPS   O14 9091   1.216   4.137   6.316  0.1998 -0.3424  0.0388
   93SAPS   O12 9092   1.092   4.251   6.141 -0.1385  0.0749 -0.1700
   93SAPS   O11 9093   1.111   4.364   6.366 -0.1740  0.3448  0.1337
   93SAPS    C1 9094   1.218   4.393   6.456 -0.0393 -0.6420  0.2361
   93SAPS    HA 9095   1.315   4.363   6.411  0.2023  0.5243 -0.0429
   93SAPS    HB 9096   1.225   4.501   6.479 -0.4174 -0.5635 -0.0163
   93SAPS    C2 9097   1.201   4.322   6.589 -0.1395 -0.4080 -0.9109
   93SAPS    HS 9098   1.196   4.213   6.572 -0.8143 -0.5992  0.3990
   93SAPS   O21 9099   1.079   4.375   6.649 -0.8999  0.2019 -0.6629
   93SAPS   C21 9100   1.003   4.298   6.725  0.0512  0.3525 -0.6626
   93SAPS   O22 9101   1.024   4.180   6.757 -0.0847  0.1279  0.8078
   93SAPS   C22 9102   0.893   4.389   6.797 -0.4671  0.1089  0.5231
   93SAPS   H2R 9103   0.938   4.477   6.847  2.5604 -1.4116  0.7637
   93SAPS   H2S 9104   0.831   4.414   6.708  0.2047 -1.8279 -0.5588
   93SAPS    C3 9105   1.334   4.348   6.673  0.2962  0.2583 -0.1278
   93SAPS    HX 9106   1.339   4.459   6.682 -2.2278  0.3943  0.3512
   93SAPS    HY 9107   1.424   4.321   6.614  0.7718  0.2508  0.5786
   93SAPS   O31 9108   1.341   4.293   6.808  0.3536 -0.0437 -0.2731
   93SAPS   C31 9109   1.332   4.168   6.816 -0.1869  0.6251  0.1680
   93SAPS   O32 9110   1.337   4.090   6.717 -0.1105  0.5059 -0.2619
   93SAPS   C32 9111   1.317   4.120   6.962 -0.2816  1.5382  0.1724
   93SAPS   H2X 9112   1.391   4.041   6.984 -0.2812  1.0280 -1.4693
   93SAPS   H2Y 9113   1.220   4.067   6.968  0.2957  0.5652  1.1226
   93SAPS   C23 9114   0.824   4.299   6.903  0.0113 -0.2899  0.4187
   93SAPS   H3R 9115   0.788   4.198   6.873 -1.3401  0.1657  0.4373
   93SAPS   H3S 9116   0.730   4.349   6.935  1.2525  1.7652  1.0374
   93SAPS   C24 9117   0.906   4.267   7.030 -0.2490  0.7885  0.6275
   93SAPS   H4R 9118   0.989   4.198   7.005 -0.3668  1.6906 -2.7859
   93SAPS   H4S 9119   0.840   4.205   7.094  0.7968 -1.0655 -0.0341
   93SAPS   C25 9120   0.935   4.396   7.103 -0.2258 -0.4485 -0.0726
   93SAPS   H5R 9121   0.944   4.486   7.041 -0.0346  0.1800  0.8535
   93SAPS   C26 9122   0.926   4.416   7.236  0.4909 -0.7331  0.4882
   93SAPS   H6R 9123   0.946   4.519   7.268  2.3207 -0.5345 -1.0910
   93SAPS   C27 9124   0.883   4.320   7.348  0.8856 -0.4044  0.1312
   93SAPS   H7R 9125   0.925   4.218   7.340 -1.1039 -1.2037 -0.8800
   93SAPS   H7S 9126   0.776   4.292   7.345  0.2566  1.8518 -1.0669
   93SAPS   C28 9127   0.911   4.370   7.487 -0.5919 -0.3235  0.2085
   93SAPS   H8R 9128   0.914   4.480   7.492  1.2827 -0.3668  0.9829
   93SAPS   C29 9129   0.931   4.299   7.595  0.1380  0.4215  0.1199
   93SAPS   H9R 9130   0.932   4.349   7.693  0.3770  2.2365 -0.7680
   93SAPS  C210 9131   0.938   4.148   7.604 -0.1680  0.2195 -0.2601
   93SAPS  H10R 9132   0.992   4.115   7.695 -0.8793  1.1892  0.5386
   93SAPS  H10S 9133   1.000   4.128   7.513 -0.7544 -1.5812 -0.2995
   93SAPS  C211 9134   0.801   4.092   7.578 -0.3283 -0.2740 -0.2357
   93SAPS  H11R 9135   0.743   4.135   7.495 -1.8846 -0.2998  0.7981
   93SAPS  C212 9136   0.745   3.999   7.655 -0.4013 -0.0642  0.4402
   93SAPS  H12R 9137   0.645   3.968   7.623 -0.0289 -1.5902  0.6506
   93SAPS  C213 9138   0.802   3.930   7.777 -0.0495 -0.0628 -0.0040
   93SAPS  H13R 9139   0.724   3.915   7.855  0.0978 -0.0193  0.1520
   93SAPS  H13S 9140   0.875   3.999   7.825  0.9700 -1.0890 -0.0225
   93SAPS  C214 9141   0.867   3.802   7.726 -0.2155 -0.3759  1.1273
   93SAPS  H14R 9142   0.938   3.819   7.644 -1.0829 -1.4273  0.1131
   93SAPS  C215 9143   0.846   3.679   7.766  0.7095  0.3248 -0.2754
   93SAPS  H15R 9144   0.896   3.603   7.705  2.3601  0.3148  1.0130
   93SAPS  C216 9145   0.754   3.626   7.872  0.4234 -0.0539  0.2142
   93SAPS  H16R 9146   0.668   3.581   7.818  1.1942  0.4038 -1.4776
   93SAPS  H16S 9147   0.715   3.713   7.930 -1.3734 -0.7993  0.1670
   93SAPS  C217 9148   0.828   3.529   7.959 -0.2384 -0.1860  0.1040
   93SAPS  H17R 9149   0.934   3.561   7.964 -0.2198  0.4938 -2.7197
   93SAPS  H17S 9150   0.833   3.436   7.898  0.0183 -0.5270  0.6452
   93SAPS  C218 9151   0.765   3.500   8.093 -0.7535 -0.4080  0.3933
   93SAPS  H18R 9152   0.809   3.413   8.146 -0.1278  0.5249  1.4528
   93SAPS  H18S 9153   0.656   3.489   8.076 -0.9050  1.1179  0.1990
   93SAPS  C219 9154   0.770   3.630   8.184 -0.6684  0.5361  0.5996
   93SAPS  H19R 9155   0.717   3.709   8.126  0.9722  0.3132 -1.2827
   93SAPS  H19S 9156   0.870   3.671   8.207  0.4238  0.1604 -2.8633
   93SAPS  C220 9157   0.689   3.618   8.316  0.5709  0.4284  0.9817
   93SAPS  H20R 9158   0.754   3.562   8.386  0.4924 -0.5088  0.3274
   93SAPS  H20S 9159   0.594   3.563   8.300  0.7456  0.6588 -1.0949
   93SAPS  H20T 9160   0.670   3.721   8.352  0.3476  1.6223 -2.2334
   93SAPS   C33 9161   1.320   4.223   7.072 -0.0242  0.4052 -0.4731
   93SAPS   H3X 9162   1.235   4.295   7.071 -1.5730 -1.3513 -0.4102
   93SAPS   H3Y 9163   1.409   4.289   7.079 -0.8584  1.5265 -0.0309
   93SAPS   C34 9164   1.311   4.153   7.206 -0.0298  0.1713  0.3203
   93SAPS   H4X 9165   1.399   4.085   7.207 -0.9461 -1.0482  0.5814
   93SAPS   H4Y 9166   1.226   4.082   7.211 -1.3932  1.7712  0.4990
   93SAPS   C35 9167   1.322   4.240   7.330  0.0679  0.6016 -0.3724
   93SAPS   H5X 9168   1.221   4.285   7.346  0.4460  0.8571  1.6301
   93SAPS   H5Y 9169   1.394   4.319   7.304 -0.2118  1.8332  2.2389
   93SAPS   C36 9170   1.351   4.162   7.462  0.0060 -0.8724  0.6608
   93SAPS   H6X 9171   1.460   4.138   7.459 -0.0340 -1.0024 -2.4084
   93SAPS   H6Y 9172   1.295   4.066   7.466 -0.4999 -0.7655 -2.0600
   93SAPS   C37 9173   1.312   4.249   7.581 -0.2053  0.2035 -0.0754
   93SAPS   H7X 9174   1.203   4.267   7.569 -0.3213  0.2160  0.9342
   93SAPS   H7Y 9175   1.367   4.345   7.570 -0.4072  0.0883 -2.7537
   93SAPS   C38 9176   1.334   4.188   7.716  0.1353  0.0248 -0.5178
   93SAPS   H8X 9177   1.289   4.262   7.785 -3.2106 -0.1436 -2.3361
   93SAPS   H8Y 9178   1.445   4.184   7.729  0.2237 -1.7154 -1.5105
   93SAPS   C39 9179   1.280   4.046   7.728  0.9879  0.4646  0.7355
   93SAPS   H9X 9180   1.320   3.973   7.654  1.0317 -0.8444  1.9952
   93SAPS   H9Y 9181   1.176   4.058   7.692  1.3766 -0.8187 -0.9393
   93SAPS  C310 9182   1.279   3.977   7.870  0.8508 -1.3902 -0.2322
   93SAPS  H10X 9183   1.233   4.051   7.937  0.0903 -1.4302 -0.6953
   93SAPS  H10Y 9184   1.383   3.960   7.906  1.4633 -0.8708 -1.6660
   93SAPS  C311 9185   1.197   3.855   7.891 -0.8279  1.2441  0.3243
   93SAPS  H11X 9186   1.221   3.773   7.820  0.1527  2.6367 -1.0078
   93SAPS  H11Y 9187   1.093   3.875   7.857 -0.7569  1.2846  0.1287
   93SAPS  C312 9188   1.200   3.797   8.032  0.4005  1.0662 -0.6806
   93SAPS  H12X 9189   1.294   3.816   8.087 -0.5371  0.0762  1.3716
   93SAPS  H12Y 9190   1.185   3.687   8.022  0.1776  1.1769 -1.6596
   93SAPS  C313 9191   1.096   3.859   8.125  0.4451 -0.1103 -0.1718
   93SAPS  H13X 9192   0.991   3.828   8.110  0.0362  0.3332  1.5460
   93SAPS  H13Y 9193   1.101   3.969   8.120 -2.2588  0.1159  0.8410
   93SAPS  C314 9194   1.113   3.821   8.272  0.5386 -0.5394 -0.2831
   93SAPS  H14X 9195   1.211   3.848   8.316 -0.0783 -1.9300  2.1139
   93SAPS  H14Y 9196   1.123   3.711   8.286  1.3289 -0.5362 -0.7352
   93SAPS  C315 9197   1.013   3.893   8.359  0.4248 -0.4644  0.0611
   93SAPS  H15X 9198   0.914   3.845   8.344  0.1737  0.6683 -2.3327
   93SAPS  H15Y 9199   0.992   3.993   8.316  0.8322 -1.4553 -2.6211
   93SAPS  C316 9200   1.048   3.890   8.506  0.3513 -0.2240  0.1096
   93SAPS  H16X 9201   1.151   3.927   8.528  0.0519  0.0085  1.1582
   93SAPS  H16Y 9202   1.049   3.784   8.538 -1.6677 -0.8842 -1.7885
   93SAPS  C317 9203   0.943   3.972   8.587 -0.4306 -0.2193  0.3110
   93SAPS  H17X 9204   0.849   3.912   8.588 -0.0519 -0.8349 -0.2485
   93SAPS  H17Y 9205   0.922   4.073   8.544 -0.4363 -0.5233 -0.4109
   93SAPS  C318 9206   0.983   3.995   8.733 -0.0028  0.0709  0.4561
   93SAPS  H18X 9207   0.895   4.039   8.786  1.0726  2.1518  0.6319
   93SAPS  H18Y 9208   1.076   4.057   8.738  0.4023 -0.4701 -0.3449
   93SAPS  H18Z 9209   1.017   3.898   8.775 -1.4055 -0.3777  0.5991
   94SAPS     N 9210   2.577   6.793   5.880  0.3276 -0.4612 -0.2144
   94SAPS   HN1 9211   2.663   6.846   5.906  1.0509 -1.3150 -0.8190
   94SAPS   HN2 9212   2.513   6.859   5.831  3.1727  0.5332 -2.9182
   94SAPS   HN3 9213   2.540   6.749   5.966 -1.5695  0.2060 -0.6269
   94SAPS   C12 9214   2.611   6.674   5.797  0.5076 -0.6418 -0.0490
   94SAPS  H12A 9215   2.632   6.710   5.697 -0.1534 -0.5880 -0.1720
   94SAPS   C13 9216   2.738   6.602   5.833  0.7474 -0.0255  0.9221
   94SAPS  O13A 9217   2.819   6.666   5.899  0.0285 -0.3090 -0.1226
   94SAPS  O13B 9218   2.761   6.512   5.751  0.5915 -0.1674 -0.0442
   94SAPS   C11 9219   2.488   6.586   5.797  0.2373  0.6971 -0.4461
   94SAPS  H11A 9220   2.499   6.514   5.714  2.8716  0.5756 -0.0854
   94SAPS  H11B 9221   2.399   6.650   5.778 -1.0613 -0.5418  1.1688
   94SAPS     P 9222   2.337   6.430   5.939 -0.2572 -0.0563  0.3407
   94SAPS   O13 9223   2.217   6.525   5.946  0.1751 -0.3488  0.3353
   94SAPS   O14 9224   2.317   6.324   5.839  0.2153  0.0141 -0.2799
   94SAPS   O12 9225   2.472   6.506   5.918 -0.8533 -0.2991  0.0995
   94SAPS   O11 9226   2.358   6.358   6.079 -0.4459 -0.3856 -0.5405
   94SAPS    C1 9227   2.452   6.397   6.184 -0.4811  0.1612  0.2828
   94SAPS    HA 9228   2.539   6.449   6.139  0.1001 -0.3757  0.7607
   94SAPS    HB 9229   2.400   6.465   6.255 -0.4754  1.2570 -0.7414
   94SAPS    C2 9230   2.494   6.267   6.253 -0.5727  0.4354 -0.2026
   94SAPS    HS 9231   2.496   6.181   6.183  3.7419 -0.7161  0.9772
   94SAPS   O21 9232   2.399   6.248   6.362 -0.0866 -0.0609 -0.3324
   94SAPS   C21 9233   2.395   6.131   6.406  0.4525 -0.1007  0.0582
   94SAPS   O22 9234   2.464   6.036   6.373 -0.1423 -0.2881 -0.2688
   94SAPS   C22 9235   2.285   6.121   6.508 -0.2715 -0.0621  0.6438
   94SAPS   H2R 9236   2.191   6.171   6.477  0.0427 -1.3429 -2.7726
   94SAPS   H2S 9237   2.257   6.015   6.494  1.1775 -0.3863 -0.0042
   94SAPS    C3 9238   2.632   6.286   6.325 -0.4320  0.6508 -0.3999
   94SAPS    HX 9239   2.706   6.317   6.248  0.4527 -1.2286 -0.3626
   94SAPS    HY 9240   2.676   6.198   6.376 -1.9267  1.5348  2.6772
   94SAPS   O31 9241   2.620   6.382   6.433  0.0733 -0.1597 -0.2981
   94SAPS   C31 9242   2.738   6.438   6.465 -0.3392  0.0100 -0.1607
   94SAPS   O32 9243   2.843   6.379   6.440 -0.7266  0.3484 -0.8778
   94SAPS   C32 9244   2.736   6.580   6.524 -0.2279 -0.4494  0.6205
   94SAPS   H2X 9245   2.629   6.609   6.519  0.4457  2.7525  2.1876
   94SAPS   H2Y 9246   2.798   6.648   6.461  0.5577 -1.4689  0.2669
   94SAPS   C23 9247   2.333   6.164   6.648 -0.0517  0.2825  0.3299
   94SAPS   H3R 9248   2.361   6.271   6.648 -0.6753  0.4515  0.4674
   94SAPS   H3S 9249   2.417   6.095   6.669 -2.0703 -2.2209  0.6131
   94SAPS   C24 9250   2.231   6.149   6.762  0.0577  0.1686  0.1466
   94SAPS   H4R 9251   2.188   6.047   6.767 -1.3450  0.7038 -0.4672
   94SAPS   H4S 9252   2.151   6.220   6.731 -1.8924 -0.6152  2.9609
   94SAPS   C25 9253   2.265   6.185   6.906  0.8996 -0.0811 -0.0449
   94SAPS   H5R 9254   2.254   6.097   6.970  1.5041  0.8949  1.4348
   94SAPS   C26 9255   2.283   6.307   6.952 -0.2840  0.1237  0.0358
   94SAPS   H6R 9256   2.307   6.316   7.059 -0.5637 -1.7776  0.2937
   94SAPS   C27 9257   2.288   6.443   6.891  0.1067  0.8008  0.1305
   94SAPS   H7R 9258   2.237   6.437   6.793 -3.0508  0.5621  1.6611
   94SAPS   H7S 9259   2.392   6.478   6.877  0.0428  0.2485 -1.9794
   94SAPS   C28 9260   2.210   6.548   6.970  0.2069  0.2420  0.5357
   94SAPS   H8R 9261   2.104   6.547   6.942  0.8612  0.2133 -2.2423
   94SAPS   C29 9262   2.259   6.632   7.060 -0.7337  0.3702 -0.0070
   94SAPS   H9R 9263   2.183   6.693   7.111 -1.0524 -0.6327  0.7441
   94SAPS  C210 9264   2.401   6.639   7.123 -0.3831 -0.2631 -0.5626
   94SAPS  H10R 9265   2.439   6.744   7.126  1.0999 -0.6826 -2.6302
   94SAPS  H10S 9266   2.475   6.579   7.067  0.3184  0.1007 -0.0294
   94SAPS  C211 9267   2.400   6.572   7.251  0.5212  0.0004 -1.4664
   94SAPS  H11R 9268   2.299   6.546   7.287  0.0908  0.5567 -2.2509
   94SAPS  C212 9269   2.509   6.538   7.329 -0.6585 -0.1250 -0.2511
   94SAPS  H12R 9270   2.506   6.473   7.417  0.4005  0.0557 -0.0676
   94SAPS  C213 9271   2.647   6.589   7.296 -0.0608  0.1457  0.1953
   94SAPS  H13R 9272   2.643   6.700   7.290  2.2600  0.2054 -2.5670
   94SAPS  H13S 9273   2.665   6.553   7.193 -0.8220  2.1183 -0.6741
   94SAPS  C214 9274   2.769   6.555   7.372 -0.0186  0.6684  0.1674
   94SAPS  H14R 9275   2.833   6.481   7.322  1.0783  1.2959  0.5990
   94SAPS  C215 9276   2.811   6.593   7.494  0.2860 -0.1395 -0.5543
   94SAPS  H15R 9277   2.903   6.546   7.532 -1.0860 -1.7709  0.9489
   94SAPS  C216 9278   2.736   6.688   7.581  0.4746 -0.1505  0.7357
   94SAPS  H16R 9279   2.641   6.711   7.529  0.3033 -3.3702 -0.5612
   94SAPS  H16S 9280   2.788   6.787   7.587  0.3918  0.1260 -2.0979
   94SAPS  C217 9281   2.711   6.626   7.717 -0.5757  0.5261 -0.6740
   94SAPS  H17R 9282   2.681   6.722   7.764  1.9675  1.7062 -1.2866
   94SAPS  H17S 9283   2.797   6.590   7.778 -1.9051  1.9655  2.2928
   94SAPS  C218 9284   2.597   6.526   7.722 -0.0977 -0.3931 -0.3472
   94SAPS  H18R 9285   2.639   6.431   7.681 -1.1460 -0.3790 -1.5282
   94SAPS  H18S 9286   2.521   6.555   7.647 -0.2031  0.8537  0.2272
   94SAPS  C219 9287   2.525   6.485   7.855  0.2021  0.3223 -0.4940
   94SAPS  H19R 9288   2.459   6.397   7.842  0.6295  0.1906 -1.8976
   94SAPS  H19S 9289   2.460   6.571   7.880 -0.6389 -0.5663  0.4536
   94SAPS  C220 9290   2.619   6.457   7.980  1.2412  0.5973  0.8082
   94SAPS  H20R 9291   2.680   6.545   8.010  2.4481  0.8148 -1.9478
   94SAPS  H20S 9292   2.684   6.369   7.960  0.8293  0.0238  1.9101
   94SAPS  H20T 9293   2.568   6.425   8.073  2.2738  0.9603  1.5268
   94SAPS   C33 9294   2.784   6.573   6.669  0.2435 -0.3540 -0.2096
   94SAPS   H3X 9295   2.873   6.508   6.679  0.7527  0.4511  0.5341
   94SAPS   H3Y 9296   2.704   6.547   6.742 -0.1665 -0.3834 -0.6589
   94SAPS   C34 9297   2.852   6.704   6.728  0.7750  0.3612  0.1820
   94SAPS   H4X 9298   2.773   6.781   6.727 -0.9851 -1.3449  0.3594
   94SAPS   H4Y 9299   2.938   6.738   6.667  0.6767  3.3278  1.5470
   94SAPS   C35 9300   2.909   6.691   6.875  0.2179  0.3983  0.1364
   94SAPS   H5X 9301   2.992   6.617   6.869 -0.2124 -0.1911  1.1922
   94SAPS   H5Y 9302   2.844   6.654   6.957  1.7781  1.3264  1.8552
   94SAPS   C36 9303   2.980   6.811   6.926 -0.2025  0.1326  0.8030
   94SAPS   H6X 9304   2.914   6.900   6.932  0.4586  0.5920  1.3690
   94SAPS   H6Y 9305   3.076   6.833   6.873 -0.5874 -1.1380 -0.4837
   94SAPS   C37 9306   3.050   6.774   7.064  0.7413  0.0113 -0.1579
   94SAPS   H7X 9307   3.102   6.676   7.071  1.3643  0.3673  0.2230
   94SAPS   H7Y 9308   2.962   6.773   7.133 -0.1252 -0.0840 -1.2355
   94SAPS   C38 9309   3.149   6.883   7.114  0.1254  0.6730  0.2616
   94SAPS   H8X 9310   3.122   6.986   7.083  0.9905  1.3138  1.5482
   94SAPS   H8Y 9311   3.242   6.876   7.054 -0.2606 -1.5120 -0.1678
   94SAPS   C39 9312   3.186   6.888   7.261  0.2311 -0.0169 -0.6929
   94SAPS   H9X 9313   3.090   6.915   7.310  1.5026  0.7762  1.5610
   94SAPS   H9Y 9314   3.257   6.973   7.274 -2.2287  1.9167  1.2454
   94SAPS  C310 9315   3.250   6.757   7.304 -0.2679  0.5497  0.2760
   94SAPS  H10X 9316   3.328   6.720   7.234 -1.0313  1.4891 -1.1072
   94SAPS  H10Y 9317   3.174   6.677   7.310 -0.9545  1.1564 -0.1028
   94SAPS  C311 9318   3.313   6.761   7.451  0.3934  0.1345 -0.2468
   94SAPS  H11X 9319   3.359   6.861   7.469  0.9787 -0.0084 -0.8640
   94SAPS  H11Y 9320   3.395   6.687   7.460  0.3429  0.0726 -0.3022
   94SAPS  C312 9321   3.216   6.736   7.570 -0.5136 -0.1981 -0.7264
   94SAPS  H12X 9322   3.124   6.682   7.537 -0.8480  0.8607 -1.5934
   94SAPS  H12Y 9323   3.198   6.839   7.605  1.3465  0.3792 -1.3539
   94SAPS  C313 9324   3.265   6.634   7.667  0.2243 -0.5416 -0.0499
   94SAPS  H13X 9325   3.285   6.537   7.617  2.1617 -0.1024 -0.1817
   94SAPS  H13Y 9326   3.171   6.614   7.723 -1.9891 -0.3972 -3.3547
   94SAPS  C314 9327   3.389   6.665   7.747  0.0177 -0.1504 -0.5140
   94SAPS  H14X 9328   3.485   6.668   7.691  0.6755 -0.0758  0.5971
   94SAPS  H14Y 9329   3.402   6.579   7.816  1.6142 -0.8344 -1.6067
   94SAPS  C315 9330   3.382   6.798   7.811  0.1956  0.4584 -0.0973
   94SAPS  H15X 9331   3.281   6.810   7.856  0.8812  0.1121  1.6070
   94SAPS  H15Y 9332   3.393   6.885   7.743 -2.4897  0.2922 -0.8711
   94SAPS  C316 9333   3.478   6.816   7.929  0.6490  0.5598 -0.1659
   94SAPS  H16X 9334   3.448   6.902   7.992  0.1083 -0.3723  0.8999
   94SAPS  H16Y 9335   3.574   6.824   7.874  0.4288  0.0698 -0.6324
   94SAPS  C317 9336   3.486   6.693   8.025 -0.9339 -0.1612  0.3557
   94SAPS  H17X 9337   3.562   6.626   7.980 -0.0516  0.9067  0.2001
   94SAPS  H17Y 9338   3.392   6.641   8.053 -1.7053  0.0801 -1.6561
   94SAPS  C318 9339   3.560   6.752   8.159  0.0396 -0.3229  0.4629
   94SAPS  H18X 9340   3.498   6.835   8.199  0.5485  0.0717  0.4501
   94SAPS  H18Y 9341   3.663   6.790   8.143 -0.1464  1.4388  2.9462
   94SAPS  H18Z 9342   3.569   6.680   8.243 -1.9026 -0.9485  0.1796
   95SAPS     N 9343   4.950   0.505   5.625  0.5220 -0.0210 -0.4694
   95SAPS   HN1 9344   5.014   0.533   5.702 -1.0282 -0.2603  0.9845
   95SAPS   HN2 9345   4.917   0.409   5.647 -1.7868  0.8631  0.3137
   95SAPS   HN3 9346   4.995   0.504   5.532 -1.3200 -1.2468 -1.3999
   95SAPS   C12 9347   4.835   0.599   5.611  0.1543  1.7578  0.3375
   95SAPS  H12A 9348   4.872   0.692   5.571 -1.1073  1.4763 -1.6389
   95SAPS   C13 9349   4.721   0.549   5.521  0.2920  0.3346  0.0474
   95SAPS  O13A 9350   4.718   0.433   5.471 -0.2497  0.1782 -0.2424
   95SAPS  O13B 9351   4.634   0.638   5.491 -0.2203 -0.1902  0.3269
   95SAPS   C11 9352   4.779   0.619   5.751 -0.3419 -0.5458 -0.2685
   95SAPS  H11A 9353   4.733   0.529   5.798  0.4057 -3.2152 -4.2037
   95SAPS  H11B 9354   4.701   0.697   5.742 -2.0341 -2.1441 -0.1042
   95SAPS     P 9355   4.846   0.690   5.997  0.0370 -0.0160  0.4614
   95SAPS   O13 9356   4.865   0.561   6.067 -0.1964 -0.2324 -0.0938
   95SAPS   O14 9357   4.931   0.805   6.033 -0.3324  0.4629 -0.4273
   95SAPS   O12 9358   4.878   0.664   5.836 -0.0742  0.6805  0.0598
   95SAPS   O11 9359   4.692   0.736   5.996  0.0875  0.1457 -0.3724
   95SAPS    C1 9360   4.659   0.868   6.051  0.0791  0.7426 -0.0114
   95SAPS    HA 9361   4.736   0.942   6.021 -1.4918  1.0645 -3.8719
   95SAPS    HB 9362   4.563   0.902   6.007  0.7051  2.3042 -0.2050
   95SAPS    C2 9363   4.649   0.863   6.213  0.5924 -0.4177  1.2354
   95SAPS    HS 9364   4.756   0.859   6.244  1.3431  2.4417 -0.5481
   95SAPS   O21 9365   4.572   0.745   6.247 -0.0753 -0.6197 -0.5861
   95SAPS   C21 9366   4.600   0.708   6.366 -0.3027 -0.1741  0.2059
   95SAPS   O22 9367   4.687   0.760   6.437  0.0055  0.1564 -0.1215
   95SAPS   C22 9368   4.532   0.576   6.390  0.4901  0.7388 -0.2080
   95SAPS   H2R 9369   4.446   0.558   6.323  0.2920 -0.9761  0.4357
   95SAPS   H2S 9370   4.609   0.499   6.364 -0.7596 -0.6747  0.1426
   95SAPS    C3 9371   4.582   1.000   6.257 -0.8517  0.2085  0.5707
   95SAPS    HX 9372   4.472   0.993   6.245 -0.6029  0.4103 -2.3899
   95SAPS    HY 9373   4.610   1.091   6.200 -3.4854  1.5973  1.3499
   95SAPS   O31 9374   4.600   1.031   6.395  0.1176 -0.7617  0.3767
   95SAPS   C31 9375   4.722   1.080   6.436  0.6221  0.2119  0.6657
   95SAPS   O32 9376   4.814   1.106   6.361 -0.0023 -0.4516 -0.2056
   95SAPS   C32 9377   4.714   1.116   6.585  0.0942 -0.6491  0.1707
   95SAPS   H2X 9378   4.637   1.054   6.635 -0.1074 -1.9672 -1.6613
   95SAPS   H2Y 9379   4.670   1.218   6.589 -1.7297 -1.3926 -0.0064
   95SAPS   C23 9380   4.491   0.549   6.537 -0.5703 -0.5227  0.0390
   95SAPS   H3R 9381   4.570   0.571   6.612 -0.1412  1.1171 -0.8498
   95SAPS   H3S 9382   4.473   0.440   6.553  0.9917 -1.5584 -3.8831
   95SAPS   C24 9383   4.354   0.609   6.594  0.1214 -0.1869  0.0482
   95SAPS   H4R 9384   4.326   0.545   6.681  1.8700  1.2581  1.7720
   95SAPS   H4S 9385   4.279   0.577   6.519 -0.4519 -1.5798  1.1597
   95SAPS   C25 9386   4.352   0.761   6.618  0.2153 -0.3133 -0.3968
   95SAPS   H5R 9387   4.345   0.820   6.525 -1.7764  1.3192  0.7026
   95SAPS   C26 9388   4.358   0.819   6.744  0.1288 -0.2111 -0.3147
   95SAPS   H6R 9389   4.356   0.929   6.749  1.4141 -0.1148 -1.4344
   95SAPS   C27 9390   4.360   0.745   6.874  0.4158 -0.6540  0.4220
   95SAPS   H7R 9391   4.296   0.655   6.860  0.0141  0.0243 -2.8638
   95SAPS   H7S 9392   4.307   0.807   6.949  1.6085  2.1111 -0.8855
   95SAPS   C28 9393   4.502   0.697   6.909 -0.4767 -0.3146 -0.8242
   95SAPS   H8R 9394   4.578   0.714   6.832 -0.6014 -1.5433 -1.2435
   95SAPS   C29 9395   4.534   0.665   7.035  0.4027  0.3390 -0.0018
   95SAPS   H9R 9396   4.634   0.623   7.054  1.9770  1.7697 -4.1233
   95SAPS  C210 9397   4.435   0.670   7.152 -0.9481  0.0781 -0.6996
   95SAPS  H10R 9398   4.376   0.576   7.163 -0.6071 -0.1991 -1.1973
   95SAPS  H10S 9399   4.371   0.761   7.149 -0.4671  0.3949 -2.5031
   95SAPS  C211 9400   4.523   0.675   7.280 -0.3725  0.4359 -0.2625
   95SAPS  H11R 9401   4.626   0.637   7.286 -0.6420 -0.3479 -0.4803
   95SAPS  C212 9402   4.470   0.707   7.401 -0.2629  0.2927 -0.1423
   95SAPS  H12R 9403   4.535   0.706   7.489  0.3812 -0.5294 -0.6029
   95SAPS  C213 9404   4.323   0.736   7.425 -0.4355 -0.6754  0.5566
   95SAPS  H13R 9405   4.272   0.639   7.411 -0.2306 -0.5886 -0.9829
   95SAPS  H13S 9406   4.286   0.810   7.351  0.5245  0.4908  1.1960
   95SAPS  C214 9407   4.302   0.793   7.568  0.0177 -0.2883  0.9022
   95SAPS  H14R 9408   4.347   0.891   7.585  0.0695 -0.3929  1.3640
   95SAPS  C215 9409   4.238   0.732   7.671 -0.8096 -0.2442 -0.2168
   95SAPS  H15R 9410   4.248   0.787   7.766 -0.7217  1.3810 -1.1280
   95SAPS  C216 9411   4.172   0.592   7.662  0.3783  0.0506  0.8747
   95SAPS  H16R 9412   4.227   0.522   7.595 -1.0087 -1.4852  1.2839
   95SAPS  H16S 9413   4.068   0.586   7.622  0.3008 -1.0517  1.2040
   95SAPS  C217 9414   4.171   0.505   7.791  0.5579 -0.1739 -0.1547
   95SAPS  H17R 9415   4.111   0.412   7.778 -0.2571 -0.0668  2.4410
   95SAPS  H17S 9416   4.126   0.571   7.868  0.9525  0.2809 -0.3092
   95SAPS  C218 9417   4.310   0.481   7.849 -0.0451 -0.0319  0.8098
   95SAPS  H18R 9418   4.351   0.572   7.898 -0.2082  1.5743 -1.8110
   95SAPS  H18S 9419   4.388   0.465   7.772  1.2473 -0.0814  2.0998
   95SAPS  C219 9420   4.319   0.354   7.934  0.4442  0.5300  0.8324
   95SAPS  H19R 9421   4.274   0.268   7.881  2.3012 -0.0854  0.1526
   95SAPS  H19S 9422   4.273   0.370   8.034  0.1657  0.8152  0.6585
   95SAPS  C220 9423   4.463   0.314   7.966 -0.3898 -0.5822 -0.8137
   95SAPS  H20R 9424   4.518   0.376   8.040 -0.4252  0.2860 -1.4924
   95SAPS  H20S 9425   4.520   0.285   7.875  0.2690  0.3862 -0.7151
   95SAPS  H20T 9426   4.456   0.211   8.009  0.6770 -0.6810 -0.8520
   95SAPS   C33 9427   4.850   1.118   6.655  0.7661 -0.3414  0.1352
   95SAPS   H3X 9428   4.910   1.195   6.602 -1.0416 -0.0997 -1.6902
   95SAPS   H3Y 9429   4.895   1.017   6.645 -0.2371 -1.0012  1.8857
   95SAPS   C34 9430   4.843   1.156   6.806 -0.0637  0.2250 -0.2180
   95SAPS   H4X 9431   4.817   1.264   6.809  0.1265  0.2495  0.7744
   95SAPS   H4Y 9432   4.943   1.144   6.852  0.0312 -1.3937 -0.7596
   95SAPS   C35 9433   4.738   1.079   6.885 -0.3522  0.1237 -0.0384
   95SAPS   H5X 9434   4.753   0.970   6.870 -0.8806  0.1741 -0.9704
   95SAPS   H5Y 9435   4.638   1.117   6.856  0.8091  0.5770 -3.9951
   95SAPS   C36 9436   4.732   1.103   7.042  0.5202  0.8211 -0.5467
   95SAPS   H6X 9437   4.732   1.211   7.070  0.6384  0.0595  2.8862
   95SAPS   H6Y 9438   4.833   1.069   7.072  0.0389 -0.8239 -0.7247
   95SAPS   C37 9439   4.638   1.006   7.126  0.5507 -0.5450  0.0459
   95SAPS   H7X 9440   4.675   0.902   7.114  1.3686 -0.2790  0.1733
   95SAPS   H7Y 9441   4.534   1.013   7.087  0.3218 -2.6607  0.1673
   95SAPS   C38 9442   4.628   1.039   7.275 -0.1705  0.7483 -0.4380
   95SAPS   H8X 9443   4.545   0.980   7.321  1.9919 -0.8657  1.6121
   95SAPS   H8Y 9444   4.588   1.141   7.292 -2.9092  0.2557 -2.9820
   95SAPS   C39 9445   4.759   1.012   7.350  0.4928 -0.5390 -0.5935
   95SAPS   H9X 9446   4.847   1.066   7.309 -0.3237  1.4587  0.1462
   95SAPS   H9Y 9447   4.772   0.902   7.345  0.4415 -0.4818 -2.9958
   95SAPS  C310 9448   4.752   1.039   7.503 -0.3061  0.1733 -1.0388
   95SAPS  H10X 9449   4.747   1.148   7.522 -0.6583  0.0298 -0.2848
   95SAPS  H10Y 9450   4.848   1.002   7.545 -0.5191  1.0866  0.3070
   95SAPS  C311 9451   4.642   0.969   7.581 -0.7955  0.5128 -1.3234
   95SAPS  H11X 9452   4.668   0.861   7.582 -0.8591  0.4675  1.2005
   95SAPS  H11Y 9453   4.547   0.994   7.530 -1.1937 -0.2243 -0.9658
   95SAPS  C312 9454   4.646   1.008   7.725 -0.7594 -0.5988 -0.3202
   95SAPS  H12X 9455   4.610   1.112   7.732  1.1989  0.0865  0.2611
   95SAPS  H12Y 9456   4.751   1.007   7.763 -0.6165  0.5071 -0.6721
   95SAPS  C313 9457   4.559   0.939   7.833  0.5956 -0.2911  0.4237
   95SAPS  H13X 9458   4.571   0.830   7.815 -0.3951 -0.3339 -0.0223
   95SAPS  H13Y 9459   4.452   0.965   7.818  1.2220  2.4317  0.0639
   95SAPS  C314 9460   4.598   0.979   7.979 -0.2520  0.0988  0.3110
   95SAPS  H14X 9461   4.573   1.082   8.013 -0.5252 -0.0701  0.6276
   95SAPS  H14Y 9462   4.708   0.967   7.992 -0.0545  0.2435 -1.1127
   95SAPS  C315 9463   4.531   0.890   8.088  0.0773 -0.2296 -0.1432
   95SAPS  H15X 9464   4.572   0.787   8.087 -1.5449 -0.9018 -0.0254
   95SAPS  H15Y 9465   4.423   0.894   8.061  0.4929 -0.1196 -1.9361
   95SAPS  C316 9466   4.544   0.944   8.242  0.7269  0.3077 -0.9817
   95SAPS  H16X 9467   4.651   0.949   8.273  0.4998  0.2204 -0.1609
   95SAPS  H16Y 9468   4.495   0.872   8.311  0.4725  1.0073 -0.4191
   95SAPS  C317 9469   4.478   1.082   8.250 -0.0373 -0.4533 -1.0072
   95SAPS  H17X 9470   4.374   1.076   8.211 -0.1711 -1.5220 -0.5006
   95SAPS  H17Y 9471   4.536   1.152   8.186 -0.9764 -0.1487 -1.5350
   95SAPS  C318 9472   4.483   1.144   8.393 -0.4150 -0.1194  0.8407
   95SAPS  H18X 9473   4.591   1.161   8.412 -0.4932  0.7119  0.5445
   95SAPS  H18Y 9474   4.426   1.098   8.477 -2.0176  1.2037  0.5225
   95SAPS  H18Z 9475   4.430   1.241   8.384  0.8099  0.5256  0.4933
   96SAPS     N 9476   3.740   5.003   5.961 -0.0038  0.2944  0.0743
   96SAPS   HN1 9477   3.826   4.968   6.006  0.0208 -0.1934 -0.3436
   96SAPS   HN2 9478   3.719   4.956   5.871  1.3766  2.0146 -1.2095
   96SAPS   HN3 9479   3.749   5.106   5.950  1.5642  0.1596 -0.1297
   96SAPS   C12 9480   3.620   4.991   6.054  0.1555 -0.9700  0.0329
   96SAPS  H12A 9481   3.538   5.028   5.995 -0.3829 -0.7540  0.9001
   96SAPS   C13 9482   3.592   4.841   6.097 -0.0025 -0.0341 -0.0203
   96SAPS  O13A 9483   3.685   4.755   6.078 -0.1035 -0.0620  0.3184
   96SAPS  O13B 9484   3.487   4.809   6.158 -0.6279  0.1441 -0.4441
   96SAPS   C11 9485   3.630   5.078   6.180  0.1404 -0.1486  0.0066
   96SAPS  H11A 9486   3.725   5.054   6.232  0.5615  2.4721  0.6400
   96SAPS  H11B 9487   3.539   5.061   6.241  1.2536 -0.6873  1.5809
   96SAPS     P 9488   3.604   5.329   6.231 -0.1336  0.1011 -0.1563
   96SAPS   O13 9489   3.599   5.462   6.168 -0.3634  0.2666  0.5533
   96SAPS   O14 9490   3.489   5.290   6.310  0.2536  0.0297  0.0061
   96SAPS   O12 9491   3.633   5.213   6.128 -0.0680 -0.0199 -0.0433
   96SAPS   O11 9492   3.734   5.322   6.324 -0.0673  0.4113  0.3532
   96SAPS    C1 9493   3.863   5.322   6.271 -0.1881 -0.2884  0.2878
   96SAPS    HA 9494   3.866   5.293   6.163 -0.2580  1.0675 -0.0946
   96SAPS    HB 9495   3.890   5.430   6.266  0.9396 -0.5407  0.8270
   96SAPS    C2 9496   3.943   5.234   6.367  0.3924 -0.4605  0.2697
   96SAPS    HS 9497   3.917   5.129   6.343 -2.8781 -0.1765  2.0065
   96SAPS   O21 9498   3.909   5.266   6.503  0.3939  0.3565  0.1824
   96SAPS   C21 9499   3.920   5.169   6.597 -0.3140 -0.6497 -0.0276
   96SAPS   O22 9500   3.927   5.048   6.570 -0.2441 -0.0996  0.1133
   96SAPS   C22 9501   3.919   5.229   6.738 -0.9006 -0.3241  0.8311
   96SAPS   H2R 9502   3.976   5.325   6.744  1.4973 -1.6810  0.9272
   96SAPS   H2S 9503   3.814   5.259   6.760 -0.5117  0.2275  2.0652
   96SAPS    C3 9504   4.091   5.261   6.336 -0.2183  0.9631  0.1522
   96SAPS    HX 9505   4.105   5.370   6.320  0.4389  0.7543 -0.7708
   96SAPS    HY 9506   4.104   5.222   6.233  1.6258 -1.8027  1.3212
   96SAPS   O31 9507   4.180   5.192   6.414  0.3871  0.1227 -0.0773
   96SAPS   C31 9508   4.229   5.273   6.518 -0.2161  0.7569  0.3482
   96SAPS   O32 9509   4.212   5.389   6.536  0.6626 -0.3883  0.9897
   96SAPS   C32 9510   4.309   5.189   6.623 -0.1380  0.9080  0.4608
   96SAPS   H2X 9511   4.391   5.142   6.564  0.2602  2.3986 -0.2124
   96SAPS   H2Y 9512   4.245   5.112   6.671  1.0909 -0.4052  0.0751
   96SAPS   C23 9513   3.970   5.134   6.845 -0.1843 -0.4621 -1.0835
   96SAPS   H3R 9514   4.074   5.104   6.822 -0.4526 -0.5087 -2.3196
   96SAPS   H3S 9515   3.911   5.040   6.838 -3.2267  1.3320 -1.8078
   96SAPS   C24 9516   3.952   5.184   6.992  0.4345 -0.5440  0.8418
   96SAPS   H4R 9517   4.010   5.111   7.052  0.3300 -1.1902  0.1780
   96SAPS   H4S 9518   3.848   5.178   7.032  1.1434 -1.6319  2.6231
   96SAPS   C25 9519   4.012   5.316   7.034 -0.0052 -0.2533  0.2633
   96SAPS   H5R 9520   4.114   5.336   7.001  1.5499 -0.7107  4.2394
   96SAPS   C26 9521   3.953   5.412   7.103 -0.9931 -0.0766  0.1316
   96SAPS   H6R 9522   4.013   5.502   7.123 -1.4726  0.2431  0.1723
   96SAPS   C27 9523   3.818   5.402   7.165  0.5239 -0.2976  0.0787
   96SAPS   H7R 9524   3.755   5.374   7.078  0.9953  0.2678 -0.4604
   96SAPS   H7S 9525   3.788   5.504   7.199 -3.4331 -1.3200  0.0437
   96SAPS   C28 9526   3.805   5.316   7.285  0.1818  0.1169  0.3357
   96SAPS   H8R 9527   3.748   5.224   7.268  1.3140 -0.5281 -0.0816
   96SAPS   C29 9528   3.842   5.341   7.408 -0.1586 -0.1825 -0.2239
   96SAPS   H9R 9529   3.809   5.259   7.474  0.8650  0.3569  1.0114
   96SAPS  C210 9530   3.914   5.468   7.458 -0.0926  0.3722 -0.2703
   96SAPS  H10R 9531   3.860   5.501   7.549 -0.5087 -0.7732 -0.0846
   96SAPS  H10S 9532   3.923   5.547   7.380 -0.7088  1.2553  0.5439
   96SAPS  C211 9533   4.064   5.425   7.476 -0.6981  0.4879 -0.2842
   96SAPS  H11R 9534   4.108   5.358   7.401  0.2023 -0.0237  0.6589
   96SAPS  C212 9535   4.148   5.444   7.583  0.4053 -0.8764  0.2947
   96SAPS  H12R 9536   4.251   5.407   7.585  1.0775  0.7112 -1.7685
   96SAPS  C213 9537   4.102   5.531   7.702 -0.7052 -0.0857 -0.4263
   96SAPS  H13R 9538   4.039   5.617   7.671  0.0613  0.7574  0.2789
   96SAPS  H13S 9539   4.186   5.584   7.752 -2.8165  2.5996  0.4972
   96SAPS  C214 9540   4.026   5.442   7.799 -0.2980  0.2504  0.0141
   96SAPS  H14R 9541   3.940   5.399   7.746  0.4076  0.6936 -1.5826
   96SAPS  C215 9542   4.067   5.427   7.928  0.2158  0.2770 -0.0927
   96SAPS  H15R 9543   4.021   5.357   8.000  2.9801 -1.2103  0.3621
   96SAPS  C216 9544   4.177   5.503   7.998 -0.1290  0.7739 -0.0434
   96SAPS  H16R 9545   4.153   5.610   7.977  0.4533  0.6295 -1.6134
   96SAPS  H16S 9546   4.271   5.494   7.940  0.0612  1.5813  0.1304
   96SAPS  C217 9547   4.208   5.468   8.146  0.1187 -0.0265  0.3681
   96SAPS  H17R 9548   4.120   5.460   8.215 -0.1113  4.0051  0.7422
   96SAPS  H17S 9549   4.258   5.557   8.188  2.7037 -1.8900  1.5205
   96SAPS  C218 9550   4.303   5.342   8.164 -0.1512 -0.3483  0.2165
   96SAPS  H18R 9551   4.388   5.354   8.093  1.7907 -1.2231  2.2700
   96SAPS  H18S 9552   4.249   5.256   8.120  1.1248 -1.7595  1.3161
   96SAPS  C219 9553   4.349   5.330   8.303  0.3046 -0.7493 -0.1058
   96SAPS  H19R 9554   4.273   5.283   8.369 -0.2524  0.3088  0.0338
   96SAPS  H19S 9555   4.378   5.429   8.343  0.5049 -0.4486 -0.9758
   96SAPS  C220 9556   4.470   5.233   8.299  0.0565  0.6797  0.2038
   96SAPS  H20R 9557   4.528   5.222   8.393  0.4315  0.2945 -0.0715
   96SAPS  H20S 9558   4.543   5.274   8.227  0.7766 -0.2530  0.3875
   96SAPS  H20T 9559   4.447   5.129   8.269  2.5834  0.8553 -2.7443
   96SAPS   C33 9560   4.374   5.285   6.722 -0.4678 -0.1479 -0.0502
   96SAPS   H3X 9561   4.307   5.369   6.749  0.5190  0.1668  1.5773
   96SAPS   H3Y 9562   4.465   5.321   6.669 -1.6110 -0.4425 -2.3354
   96SAPS   C34 9563   4.407   5.223   6.863 -0.0800 -0.5408 -0.3326
   96SAPS   H4X 9564   4.474   5.136   6.847  0.3645 -0.8018  2.4785
   96SAPS   H4Y 9565   4.308   5.181   6.890 -0.7998  2.1939  1.7907
   96SAPS   C35 9566   4.456   5.335   6.955 -0.1357  0.0525 -0.1846
   96SAPS   H5X 9567   4.369   5.402   6.974 -0.4343 -0.4611  0.2849
   96SAPS   H5Y 9568   4.543   5.392   6.915 -1.2456  3.3180  1.6799
   96SAPS   C36 9569   4.500   5.276   7.094  0.2293  0.1559  0.0568
   96SAPS   H6X 9570   4.586   5.209   7.072 -1.3681 -1.6744 -0.9697
   96SAPS   H6Y 9571   4.414   5.212   7.122 -0.0440 -1.0050 -3.0651
   96SAPS   C37 9572   4.537   5.382   7.203  0.3479 -0.2957 -0.7037
   96SAPS   H7X 9573   4.451   5.452   7.197  0.7223  0.0509 -2.3958
   96SAPS   H7Y 9574   4.635   5.430   7.181  1.5346 -1.2145  2.0508
   96SAPS   C38 9575   4.547   5.320   7.344 -0.5307 -0.7598  0.3703
   96SAPS   H8X 9576   4.460   5.256   7.370 -1.1588  0.1483  0.5472
   96SAPS   H8Y 9577   4.544   5.411   7.409 -0.9314  0.9645 -1.9432
   96SAPS   C39 9578   4.672   5.240   7.369 -0.5629 -0.4806  0.2260
   96SAPS   H9X 9579   4.668   5.156   7.296  0.0918  2.3619 -3.3493
   96SAPS   H9Y 9580   4.671   5.200   7.472  0.4417  2.3396  1.4315
   96SAPS  C310 9581   4.803   5.316   7.344  0.3253  0.3367 -0.3205
   96SAPS  H10X 9582   4.813   5.349   7.239 -2.0914 -0.3353 -0.8441
   96SAPS  H10Y 9583   4.883   5.240   7.358  1.0988  1.0816 -0.6903
   96SAPS  C311 9584   4.821   5.440   7.443  0.0833 -0.0463 -0.4936
   96SAPS  H11X 9585   4.732   5.506   7.437 -0.9074 -1.3813 -1.1228
   96SAPS  H11Y 9586   4.907   5.503   7.411  1.2294 -1.9419 -1.2960
   96SAPS  C312 9587   4.827   5.389   7.591  0.1495  0.5765 -0.3180
   96SAPS  H12X 9588   4.904   5.309   7.600 -0.8482 -0.3784 -0.0853
   96SAPS  H12Y 9589   4.731   5.347   7.629  0.1549  1.8199  1.1876
   96SAPS  C313 9590   4.863   5.497   7.694  0.4632  0.2289  0.1859
   96SAPS  H13X 9591   4.784   5.575   7.687 -0.6961 -0.8028  1.3701
   96SAPS  H13Y 9592   4.952   5.549   7.653 -0.9875  1.6791 -1.2867
   96SAPS  C314 9593   4.901   5.451   7.834  0.4973  0.2645 -0.5471
   96SAPS  H14X 9594   4.987   5.381   7.843 -0.3070 -0.4364  3.5268
   96SAPS  H14Y 9595   4.816   5.391   7.874 -0.6552  2.2469  0.0794
   96SAPS  C315 9596   4.913   5.567   7.930  0.0698 -0.1166  0.0490
   96SAPS  H15X 9597   4.817   5.623   7.932 -0.8112 -1.6025  0.8997
   96SAPS  H15Y 9598   4.981   5.637   7.877  0.3231 -0.2691  0.1683
   96SAPS  C316 9599   4.961   5.540   8.071  0.3822  0.1373  0.7428
   96SAPS  H16X 9600   4.897   5.461   8.116 -0.2983  0.3603  0.1870
   96SAPS  H16Y 9601   4.964   5.638   8.124  0.9110  0.1918  0.6234
   96SAPS  C317 9602   5.105   5.486   8.070  0.1554 -0.6135 -0.1415
   96SAPS  H17X 9603   5.176   5.550   8.127 -2.2563  0.5653  1.7182
   96SAPS  H17Y 9604   5.135   5.503   7.965 -2.0466  0.3591 -0.6620
   96SAPS  C318 9605   5.114   5.332   8.103  0.2269 -0.3366 -0.0029
   96SAPS  H18X 9606   5.034   5.269   8.059 -0.4870  0.8436 -0.4499
   96SAPS  H18Y 9607   5.099   5.304   8.209  0.8522 -1.8711 -0.2932
   96SAPS  H18Z 9608   5.211   5.291   8.068  1.7748  0.0233  3.4909
   97SAPS     N 9609   5.182   0.877   6.214 -0.2183 -0.3351 -0.2401
   97SAPS   HN1 9610   5.115   0.860   6.292 -0.8426  1.4011 -0.3325
   97SAPS   HN2 9611   5.258   0.940   6.246  1.1224 -1.3543 -1.3306
   97SAPS   HN3 9612   5.120   0.937   6.156  2.3060  0.8064 -1.8943
   97SAPS   C12 9613   5.247   0.768   6.139  0.3362 -0.1047 -0.4102
   97SAPS  H12A 9614   5.173   0.692   6.115  0.5336 -0.2342 -0.6128
   97SAPS   C13 9615   5.311   0.798   6.005 -0.5353 -0.3158 -1.0247
   97SAPS  O13A 9616   5.306   0.918   5.966 -0.2866  0.1027 -0.1970
   97SAPS  O13B 9617   5.357   0.709   5.933  0.1310 -0.0820 -0.1270
   97SAPS   C11 9618   5.357   0.691   6.227  0.1655  0.0733  0.2974
   97SAPS  H11A 9619   5.396   0.611   6.161 -0.8182  0.5782 -0.9257
   97SAPS  H11B 9620   5.300   0.641   6.308  0.5913 -2.7525 -1.0564
   97SAPS     P 9621   5.470   0.841   6.408 -0.1540 -0.0657  0.1127
   97SAPS   O13 9622   5.601   0.902   6.441 -0.5155  0.4169  0.6693
   97SAPS   O14 9623   5.347   0.922   6.433  0.2678 -0.6868 -0.3527
   97SAPS   O12 9624   5.465   0.778   6.270 -0.2266 -0.4522  0.6622
   97SAPS   O11 9625   5.465   0.711   6.488 -0.1230  0.0670 -0.2884
   97SAPS    C1 9626   5.410   0.704   6.622  0.4849  0.9589  0.5094
   97SAPS    HA 9627   5.332   0.778   6.651 -0.5463  0.8611 -1.7807
   97SAPS    HB 9628   5.357   0.608   6.635  2.4213 -0.0475  1.2992
   97SAPS    C2 9629   5.524   0.701   6.732 -0.0690 -0.3644 -0.1278
   97SAPS    HS 9630   5.527   0.801   6.780 -1.3727 -0.1754 -0.3991
   97SAPS   O21 9631   5.647   0.644   6.676 -0.0501  0.2676  0.0676
   97SAPS   C21 9632   5.756   0.690   6.734  0.4541  0.1118  0.1035
   97SAPS   O22 9633   5.759   0.797   6.795 -0.2016  0.9345 -0.2705
   97SAPS   C22 9634   5.872   0.583   6.725 -0.5017 -0.3459  0.3033
   97SAPS   H2R 9635   5.854   0.533   6.628 -1.7351  1.6946 -0.5946
   97SAPS   H2S 9636   5.959   0.648   6.703 -0.6960 -0.0106  0.5228
   97SAPS    C3 9637   5.477   0.598   6.844  0.5492  0.6839  0.3723
   97SAPS    HX 9638   5.476   0.498   6.796 -0.1588 -0.3439  2.4328
   97SAPS    HY 9639   5.370   0.614   6.866  1.0678  1.7561  2.3145
   97SAPS   O31 9640   5.563   0.589   6.959  0.3132 -0.1601  0.2006
   97SAPS   C31 9641   5.524   0.676   7.055  0.8826 -0.4566  0.6735
   97SAPS   O32 9642   5.444   0.766   7.041  0.1064 -0.3453 -0.3202
   97SAPS   C32 9643   5.583   0.642   7.189  0.0952  0.5033  0.5352
   97SAPS   H2X 9644   5.657   0.722   7.210  0.5995  0.6333 -1.5431
   97SAPS   H2Y 9645   5.632   0.543   7.187  2.0789  1.4529  0.5138
   97SAPS   C23 9646   5.883   0.501   6.850  0.3283 -0.1589 -0.4432
   97SAPS   H3R 9647   5.786   0.458   6.883  0.5982  1.3052  2.5959
   97SAPS   H3S 9648   5.942   0.567   6.917  1.1430 -2.3951  1.1591
   97SAPS   C24 9649   5.966   0.375   6.819 -0.1058 -0.7215 -0.4066
   97SAPS   H4R 9650   6.074   0.402   6.811 -0.2530  0.1419  0.3495
   97SAPS   H4S 9651   5.939   0.343   6.716  1.8162 -2.6845 -0.3785
   97SAPS   C25 9652   5.971   0.250   6.900  0.1480  0.5186 -0.5580
   97SAPS   H5R 9653   5.975   0.150   6.854 -0.8089  0.2428 -0.0516
   97SAPS   C26 9654   5.966   0.244   7.039  0.0885 -0.5310 -0.0677
   97SAPS   H6R 9655   5.965   0.144   7.085  1.9326 -1.3495 -1.6526
   97SAPS   C27 9656   5.949   0.363   7.127 -0.0909  0.8307 -0.1682
   97SAPS   H7R 9657   5.843   0.366   7.160 -0.3108 -1.6761 -0.4598
   97SAPS   H7S 9658   5.975   0.462   7.086 -1.6436  0.1664 -2.9564
   97SAPS   C28 9659   6.032   0.348   7.251  0.0327 -0.5369  0.3727
   97SAPS   H8R 9660   6.140   0.332   7.237 -0.0539 -1.1477  0.3727
   97SAPS   C29 9661   5.990   0.366   7.378 -0.6886 -0.0678 -0.4473
   97SAPS   H9R 9662   6.057   0.330   7.458 -1.0521 -0.5227 -0.3477
   97SAPS  C210 9663   5.847   0.397   7.416  0.2550  0.1290 -0.9134
   97SAPS  H10R 9664   5.785   0.339   7.344  1.5694 -3.5717  0.6797
   97SAPS  H10S 9665   5.823   0.503   7.391 -0.3356  0.5852  1.4202
   97SAPS  C211 9666   5.809   0.369   7.561 -0.6940  0.3830  0.5853
   97SAPS  H11R 9667   5.764   0.271   7.581  2.3413 -1.4847 -0.8302
   97SAPS  C212 9668   5.826   0.440   7.674 -0.3029  0.7584  0.1651
   97SAPS  H12R 9669   5.788   0.402   7.770 -0.0937 -0.7048 -0.3183
   97SAPS  C213 9670   5.901   0.574   7.681 -0.5389 -0.0322  0.4255
   97SAPS  H13R 9671   5.828   0.658   7.684  1.4557  1.7687  0.8838
   97SAPS  H13S 9672   5.946   0.591   7.581 -1.9589  1.0026 -0.0606
   97SAPS  C214 9673   6.017   0.581   7.782  0.2046  0.4487  0.0395
   97SAPS  H14R 9674   6.117   0.548   7.750 -0.6512 -2.6909  0.2851
   97SAPS  C215 9675   5.998   0.612   7.908  0.0353 -0.0482  0.7565
   97SAPS  H15R 9676   6.090   0.629   7.964  0.5877  0.8654 -0.3835
   97SAPS  C216 9677   5.868   0.648   7.980 -0.4348 -0.6502  0.3481
   97SAPS  H16R 9678   5.840   0.563   8.045  1.4159 -0.3923  1.5582
   97SAPS  H16S 9679   5.783   0.672   7.912  0.0898  0.0340 -0.0788
   97SAPS  C217 9680   5.883   0.774   8.071  0.2336 -0.6208  0.6605
   97SAPS  H17R 9681   5.919   0.862   8.012  1.8931 -3.3420 -2.7181
   97SAPS  H17S 9682   5.943   0.752   8.162  0.1567 -3.2549  0.1291
   97SAPS  C218 9683   5.737   0.807   8.129 -0.6431  0.4219  0.0507
   97SAPS  H18R 9684   5.679   0.812   8.034 -0.3728 -2.1430 -0.3246
   97SAPS  H18S 9685   5.737   0.911   8.168 -1.9839  1.6755 -2.9429
   97SAPS  C219 9686   5.684   0.709   8.229  0.0186  0.0542 -0.1120
   97SAPS  H19R 9687   5.732   0.728   8.327  2.3042  1.8272 -1.4659
   97SAPS  H19S 9688   5.713   0.606   8.199  0.8679  0.7038 -1.6107
   97SAPS  C220 9689   5.532   0.723   8.249 -0.7826  0.3372  0.2543
   97SAPS  H20R 9690   5.484   0.692   8.154  1.1363  3.7716 -2.0295
   97SAPS  H20S 9691   5.497   0.829   8.253  1.1368  1.1359 -1.9607
   97SAPS  H20T 9692   5.508   0.669   8.343  2.9560 -1.6772  0.2074
   97SAPS   C33 9693   5.488   0.649   7.305  0.3821  0.6545 -0.2401
   97SAPS   H3X 9694   5.395   0.595   7.278  0.4823 -0.6282  1.7100
   97SAPS   H3Y 9695   5.463   0.755   7.328  0.4066  0.7293 -0.5577
   97SAPS   C34 9696   5.556   0.599   7.429  0.1073  0.5283 -0.6450
   97SAPS   H4X 9697   5.660   0.639   7.428  0.1096  0.6057 -2.9479
   97SAPS   H4Y 9698   5.567   0.489   7.426 -1.0249  0.2049  2.9854
   97SAPS   C35 9699   5.481   0.639   7.563 -0.0184  0.3381 -0.5355
   97SAPS   H5X 9700   5.491   0.559   7.639 -3.5837 -0.7464 -1.0156
   97SAPS   H5Y 9701   5.373   0.638   7.536  0.3364  1.0759 -2.1401
   97SAPS   C36 9702   5.524   0.777   7.616 -0.5912  0.0002  0.1366
   97SAPS   H6X 9703   5.503   0.861   7.546  0.1907 -0.8759 -1.1930
   97SAPS   H6Y 9704   5.635   0.771   7.620 -0.4135  0.5956 -2.5205
   97SAPS   C37 9705   5.455   0.804   7.752  0.4085  0.1467  0.5769
   97SAPS   H7X 9706   5.500   0.735   7.827  0.9502 -0.1325  0.0067
   97SAPS   H7Y 9707   5.346   0.787   7.739  0.0289  2.4709  0.2860
   97SAPS   C38 9708   5.482   0.949   7.801  0.3020 -0.1299  0.7955
   97SAPS   H8X 9709   5.423   1.007   7.727  2.2375 -2.9603 -3.3481
   97SAPS   H8Y 9710   5.589   0.973   7.783 -0.0748  0.4993 -0.7213
   97SAPS   C39 9711   5.443   0.981   7.946 -1.3710 -0.1920  0.0125
   97SAPS   H9X 9712   5.496   0.912   8.015  1.4175  0.3870 -1.3736
   97SAPS   H9Y 9713   5.334   0.973   7.966 -1.3994 -1.3078 -0.5123
   97SAPS  C310 9714   5.495   1.124   7.976  0.0107  0.4354 -0.1685
   97SAPS  H10X 9715   5.475   1.198   7.895 -2.5904  1.8827  1.6724
   97SAPS  H10Y 9716   5.605   1.126   7.990  0.4292  1.1152 -2.9503
   97SAPS  C311 9717   5.437   1.181   8.108 -0.1703  0.0454  0.5889
   97SAPS  H11X 9718   5.340   1.229   8.083 -0.2491 -0.3630  0.1002
   97SAPS  H11Y 9719   5.499   1.269   8.134 -1.9590  1.7509 -0.6659
   97SAPS  C312 9720   5.422   1.094   8.228  0.0757  0.0887 -0.0709
   97SAPS  H12X 9721   5.517   1.040   8.250 -0.2384  0.2152  1.7831
   97SAPS  H12Y 9722   5.353   1.012   8.198 -0.3238  0.8853 -1.4424
   97SAPS  C313 9723   5.368   1.173   8.342  0.0253 -0.0562  0.3514
   97SAPS  H13X 9724   5.273   1.223   8.313 -0.7047 -1.0381  0.9592
   97SAPS  H13Y 9725   5.445   1.250   8.362  1.2629 -0.9328 -0.8950
   97SAPS  C314 9726   5.339   1.110   8.479 -0.0474 -0.2403  0.1140
   97SAPS  H14X 9727   5.437   1.064   8.506 -0.3950 -1.8877 -1.2765
   97SAPS  H14Y 9728   5.258   1.034   8.476 -1.8376  1.5918 -1.4093
   97SAPS  C315 9729   5.299   1.221   8.576  0.5941 -0.1780  0.2049
   97SAPS  H15X 9730   5.202   1.264   8.544  0.3176  1.3496  2.7791
   97SAPS  H15Y 9731   5.374   1.303   8.574  0.6551 -0.2539 -0.6707
   97SAPS  C316 9732   5.278   1.154   8.716 -0.0341 -0.0131 -0.0557
   97SAPS  H16X 9733   5.362   1.105   8.769 -1.7560 -0.3997  2.4640
   97SAPS  H16Y 9734   5.209   1.068   8.705 -0.3735  0.4356 -1.8710
   97SAPS  C317 9735   5.223   1.259   8.808  0.5977  0.1543  0.5511
   97SAPS  H17X 9736   5.145   1.309   8.747  1.6820  0.3110 -0.7619
   97SAPS  H17Y 9737   5.295   1.341   8.828  0.8025  0.3138 -0.8016
   97SAPS  C318 9738   5.169   1.195   8.934  0.0330 -0.3192 -0.2598
   97SAPS  H18X 9739   5.109   1.266   8.995 -4.6560 -2.2328 -2.1156
   97SAPS  H18Y 9740   5.254   1.160   8.997  1.0059 -0.8726 -1.8224
   97SAPS  H18Z 9741   5.097   1.113   8.912 -0.5674  0.1716 -0.1422
   98SAPS     N 9742   4.385   2.132   5.811 -0.3240 -0.2351  0.1812
   98SAPS   HN1 9743   4.300   2.109   5.867  0.7575 -4.3162  0.4794
   98SAPS   HN2 9744   4.366   2.210   5.744 -0.6378 -0.1388  0.3801
   98SAPS   HN3 9745   4.398   2.046   5.755  2.2335 -1.6952  2.7749
   98SAPS   C12 9746   4.501   2.163   5.899  0.0309 -0.7965  0.6159
   98SAPS  H12A 9747   4.600   2.142   5.860  0.7292  1.1749  1.1682
   98SAPS   C13 9748   4.504   2.319   5.920  0.0936  0.5597 -0.6971
   98SAPS  O13A 9749   4.432   2.391   5.847  0.0457 -0.1648  0.2901
   98SAPS  O13B 9750   4.589   2.371   5.998  0.0968 -0.3094  0.3257
   98SAPS   C11 9751   4.481   2.089   6.040  0.6614  0.6983 -0.3028
   98SAPS  H11A 9752   4.377   2.099   6.079  1.2340  0.8883  1.2604
   98SAPS  H11B 9753   4.543   2.139   6.117 -2.4229  2.5421  1.1904
   98SAPS     P 9754   4.619   1.860   6.060 -0.2186  0.0650  0.2761
   98SAPS   O13 9755   4.606   1.730   5.991 -0.3422 -0.8391 -0.3402
   98SAPS   O14 9756   4.741   1.940   6.034  0.4051 -0.0537  0.0805
   98SAPS   O12 9757   4.493   1.948   6.021  0.0485  0.1110  0.0834
   98SAPS   O11 9758   4.609   1.830   6.218 -0.1433 -0.9462  0.4237
   98SAPS    C1 9759   4.475   1.841   6.272  0.5741  0.3634  0.4001
   98SAPS    HA 9760   4.452   1.948   6.288 -0.3050  0.0275  1.4879
   98SAPS    HB 9761   4.405   1.794   6.200  1.0538 -1.4075  1.0382
   98SAPS    C2 9762   4.454   1.770   6.409 -0.2991  0.2312  0.2493
   98SAPS    HS 9763   4.351   1.797   6.443 -1.3516  0.8009 -3.0643
   98SAPS   O21 9764   4.561   1.803   6.497  0.1328 -0.2901  0.2527
   98SAPS   C21 9765   4.542   1.915   6.562  0.0338 -0.4796 -1.1967
   98SAPS   O22 9766   4.440   1.983   6.550 -0.3637  0.3571  0.2099
   98SAPS   C22 9767   4.655   1.943   6.655 -0.3894  0.0920  0.4865
   98SAPS   H2R 9768   4.724   1.856   6.662 -2.4222 -1.6974 -0.5538
   98SAPS   H2S 9769   4.723   2.020   6.614 -0.0949  0.1745  1.1061
   98SAPS    C3 9770   4.456   1.609   6.386 -0.0973 -0.5368  0.9586
   98SAPS    HX 9771   4.551   1.586   6.333 -0.5226 -0.0147 -0.0576
   98SAPS    HY 9772   4.373   1.579   6.319  0.5765 -0.3300 -0.0047
   98SAPS   O31 9773   4.454   1.541   6.512  0.0758  0.2170  1.4744
   98SAPS   C31 9774   4.562   1.500   6.578  0.2380 -1.1350 -0.1639
   98SAPS   O32 9775   4.671   1.480   6.529  0.1063 -0.8258  0.0409
   98SAPS   C32 9776   4.515   1.472   6.715 -0.6038  0.4464 -1.1610
   98SAPS   H2X 9777   4.500   1.364   6.733  0.3904  0.6501  1.3991
   98SAPS   H2Y 9778   4.418   1.526   6.729 -0.4267  0.3847  0.5701
   98SAPS   C23 9779   4.611   1.993   6.797  0.0900 -0.1239 -0.7094
   98SAPS   H3R 9780   4.538   1.917   6.831 -0.3190  0.3459 -0.5310
   98SAPS   H3S 9781   4.554   2.088   6.796  1.3709  0.6815  0.3012
   98SAPS   C24 9782   4.736   2.001   6.883  0.1192 -0.4840 -0.8472
   98SAPS   H4R 9783   4.816   2.050   6.823 -0.6777  0.7996 -0.9037
   98SAPS   H4S 9784   4.773   1.899   6.906  1.3849  0.7110  3.2696
   98SAPS   C25 9785   4.715   2.073   7.015 -0.3658 -0.1349  0.6028
   98SAPS   H5R 9786   4.718   2.183   7.010  1.5499 -0.2109 -1.0970
   98SAPS   C26 9787   4.682   2.032   7.139  0.5188 -0.0102  0.2135
   98SAPS   H6R 9788   4.690   2.105   7.222  0.2197 -0.0816  0.3053
   98SAPS   C27 9789   4.660   1.895   7.194  0.2664  0.1107  0.3259
   98SAPS   H7R 9790   4.755   1.866   7.244  0.1035 -0.8137  0.1251
   98SAPS   H7S 9791   4.657   1.820   7.112  1.5365  1.2502 -0.8069
   98SAPS   C28 9792   4.544   1.909   7.285  0.4092  0.1432 -0.3994
   98SAPS   H8R 9793   4.449   1.926   7.231  0.2228 -2.5484 -1.0356
   98SAPS   C29 9794   4.556   1.887   7.417  0.3643 -0.9066 -0.2915
   98SAPS   H9R 9795   4.465   1.901   7.477  2.1156  2.9955  1.8225
   98SAPS  C210 9796   4.665   1.846   7.509 -0.5262  0.8308  0.1833
   98SAPS  H10R 9797   4.754   1.817   7.450 -1.2024  0.7585 -0.8183
   98SAPS  H10S 9798   4.639   1.752   7.563  1.5012  0.5942  0.8150
   98SAPS  C211 9799   4.695   1.951   7.615  0.8646  1.0561 -0.0918
   98SAPS  H11R 9800   4.642   2.047   7.607 -3.4553 -1.1755 -0.7115
   98SAPS  C212 9801   4.791   1.946   7.707  0.3340 -0.0081  0.0522
   98SAPS  H12R 9802   4.823   2.030   7.772 -0.3973 -0.1630  0.6235
   98SAPS  C213 9803   4.888   1.834   7.716  0.3998  0.5244 -0.0463
   98SAPS  H13R 9804   4.981   1.891   7.696 -0.3746  1.2275 -1.7949
   98SAPS  H13S 9805   4.885   1.759   7.634  1.3342 -1.2041  1.4216
   98SAPS  C214 9806   4.893   1.754   7.849  0.6733  0.5500  0.1934
   98SAPS  H14R 9807   4.857   1.650   7.843 -0.7871  1.0758 -0.4823
   98SAPS  C215 9808   4.935   1.797   7.970 -0.2261 -0.3701  0.1803
   98SAPS  H15R 9809   4.923   1.723   8.050 -0.5850 -1.7003 -1.0755
   98SAPS  C216 9810   4.981   1.936   8.007  0.3023 -0.0141  0.0730
   98SAPS  H16R 9811   5.000   1.985   7.910 -0.2753  2.2275  1.0102
   98SAPS  H16S 9812   5.082   1.924   8.052  0.2438  0.0972  0.2399
   98SAPS  C217 9813   4.878   2.013   8.097 -0.3111 -0.0173  0.0076
   98SAPS  H17R 9814   4.789   2.040   8.038 -0.2803  0.0255 -0.0200
   98SAPS  H17S 9815   4.927   2.110   8.124 -1.3356  0.2616  0.9259
   98SAPS  C218 9816   4.833   1.955   8.231  0.4363 -0.1760  0.1183
   98SAPS  H18R 9817   4.793   1.853   8.214  0.7599  0.0305 -2.3904
   98SAPS  H18S 9818   4.752   2.016   8.275  0.0127  0.6218 -1.6866
   98SAPS  C219 9819   4.945   1.933   8.333  0.3208 -0.1626 -0.6707
   98SAPS  H19R 9820   4.987   2.032   8.360 -1.4277  0.3283  0.3604
   98SAPS  H19S 9821   5.031   1.880   8.286  0.9965  0.3886 -0.0766
   98SAPS  C220 9822   4.903   1.859   8.464  0.6204 -0.7169  0.5663
   98SAPS  H20R 9823   4.868   1.758   8.434 -1.6988  0.1161  0.3271
   98SAPS  H20S 9824   4.812   1.909   8.502 -0.0824 -1.0273 -0.6646
   98SAPS  H20T 9825   4.990   1.852   8.533 -0.0504 -1.7848  1.3253
   98SAPS   C33 9826   4.616   1.522   6.816 -0.0725 -0.1384 -0.0679
   98SAPS   H3X 9827   4.636   1.631   6.821  3.3055 -0.6723 -0.1513
   98SAPS   H3Y 9828   4.716   1.482   6.790 -0.0995  1.0041 -2.1847
   98SAPS   C34 9829   4.592   1.466   6.959 -0.1290  0.3960  0.3628
   98SAPS   H4X 9830   4.578   1.356   6.958  4.8853 -0.5004  0.1115
   98SAPS   H4Y 9831   4.497   1.517   6.985  0.9946  2.1398  1.1734
   98SAPS   C35 9832   4.700   1.493   7.070  0.3722 -0.1478  0.1107
   98SAPS   H5X 9833   4.743   1.595   7.059 -1.3266  0.4836 -1.1157
   98SAPS   H5Y 9834   4.779   1.416   7.055  0.0373 -0.0600 -2.7545
   98SAPS   C36 9835   4.632   1.482   7.210  0.1358 -0.0387  0.9052
   98SAPS   H6X 9836   4.588   1.380   7.212  3.0826 -1.3912  2.3702
   98SAPS   H6Y 9837   4.549   1.556   7.205 -1.4897 -1.7779  0.8837
   98SAPS   C37 9838   4.721   1.499   7.331 -0.1475  0.1254 -0.7201
   98SAPS   H7X 9839   4.745   1.606   7.349  1.3288 -0.3133  0.0418
   98SAPS   H7Y 9840   4.813   1.442   7.306  1.8810  2.2136  1.4806
   98SAPS   C38 9841   4.666   1.461   7.464  0.4824 -0.2104 -0.4677
   98SAPS   H8X 9842   4.613   1.363   7.466  0.8636 -0.4046  0.5360
   98SAPS   H8Y 9843   4.584   1.531   7.490 -0.0383 -0.9185 -0.1692
   98SAPS   C39 9844   4.763   1.471   7.577 -0.1871  1.0293 -0.3509
   98SAPS   H9X 9845   4.794   1.576   7.597 -0.5605  1.1781 -0.5384
   98SAPS   H9Y 9846   4.852   1.408   7.558 -0.0804 -0.1306  3.2184
   98SAPS  C310 9847   4.700   1.415   7.709 -0.8545 -0.0499 -0.5921
   98SAPS  H10X 9848   4.787   1.409   7.778 -1.6270  1.4460  0.5669
   98SAPS  H10Y 9849   4.645   1.321   7.688 -1.8181  0.6336 -1.2389
   98SAPS  C311 9850   4.598   1.512   7.760  0.2451 -0.0573  0.5366
   98SAPS  H11X 9851   4.509   1.501   7.695  1.2688  1.5627 -1.2388
   98SAPS  H11Y 9852   4.634   1.616   7.750  1.5157 -0.4771  0.5871
   98SAPS  C312 9853   4.557   1.482   7.913 -0.2249 -0.6482 -0.5442
   98SAPS  H12X 9854   4.549   1.374   7.936 -0.8041 -0.1294  2.1315
   98SAPS  H12Y 9855   4.458   1.528   7.936  0.6077  1.5242 -1.0686
   98SAPS  C313 9856   4.667   1.524   8.006  0.5115  0.0950 -0.1912
   98SAPS  H13X 9857   4.672   1.634   7.991  0.0599 -0.0910 -1.8694
   98SAPS  H13Y 9858   4.756   1.463   7.980 -0.0192 -1.9122  2.2652
   98SAPS  C314 9859   4.628   1.495   8.152 -0.2677  0.1589  0.0448
   98SAPS  H14X 9860   4.614   1.385   8.146  2.4196 -0.2050 -0.7645
   98SAPS  H14Y 9861   4.529   1.536   8.181 -0.0512  0.7588 -0.0437
   98SAPS  C315 9862   4.732   1.534   8.260  0.4384  0.2376  0.0778
   98SAPS  H15X 9863   4.739   1.644   8.271  1.0568  0.1954  0.1659
   98SAPS  H15Y 9864   4.831   1.497   8.224  0.5828  1.9184 -1.3974
   98SAPS  C316 9865   4.683   1.484   8.398  0.2296  0.1093 -0.1058
   98SAPS  H16X 9866   4.771   1.483   8.465  2.4480  0.7957 -2.8388
   98SAPS  H16Y 9867   4.649   1.379   8.380 -1.9299  0.1598  2.8433
   98SAPS  C317 9868   4.571   1.575   8.446 -0.1207 -0.5198 -0.7056
   98SAPS  H17X 9869   4.485   1.533   8.390 -1.7827 -1.7719  2.5334
   98SAPS  H17Y 9870   4.605   1.680   8.436 -0.6449 -0.0204  1.9186
   98SAPS  C318 9871   4.535   1.558   8.595  0.6585 -0.2962 -0.5743
   98SAPS  H18X 9872   4.431   1.594   8.609  0.7678  0.7380 -2.2949
   98SAPS  H18Y 9873   4.602   1.621   8.657 -0.0757  0.4784 -0.5435
   98SAPS  H18Z 9874   4.554   1.454   8.629  0.2822 -0.8167 -1.8884
   99SAPS     N 9875   0.555   4.414   6.248  0.5986 -0.2690  0.1907
   99SAPS   HN1 9876   0.640   4.459   6.207  0.6714  1.1316  1.7820
   99SAPS   HN2 9877   0.572   4.431   6.349  1.6732 -0.1906  0.0071
   99SAPS   HN3 9878   0.549   4.312   6.228 -0.7889  0.0220 -1.0721
   99SAPS   C12 9879   0.434   4.480   6.204 -0.0242 -0.4501  0.1658
   99SAPS  H12A 9880   0.351   4.443   6.262 -0.4431 -0.5502 -0.5020
   99SAPS   C13 9881   0.428   4.627   6.218 -0.9387 -1.0557  0.0641
   99SAPS  O13A 9882   0.529   4.697   6.249  0.0802  0.5422 -0.4873
   99SAPS  O13B 9883   0.317   4.682   6.194 -0.0934 -0.2187 -0.5764
   99SAPS   C11 9884   0.416   4.447   6.053  0.3694  0.0853  0.1882
   99SAPS  H11A 9885   0.493   4.505   5.997 -0.5605  2.9132  1.6786
   99SAPS  H11B 9886   0.320   4.496   6.026  1.9390  1.4313 -3.7623
   99SAPS     P 9887   0.302   4.250   5.926 -0.2070  0.3562  0.1187
   99SAPS   O13 9888   0.280   4.333   5.805  0.0361  0.0334  0.4029
   99SAPS   O14 9889   0.333   4.110   5.902  0.0231 -0.0494  0.2570
   99SAPS   O12 9890   0.419   4.311   6.016 -0.0358 -0.0964 -0.8260
   99SAPS   O11 9891   0.173   4.266   6.017  0.7395 -0.0991 -0.6821
   99SAPS    C1 9892   0.074   4.160   6.024  0.2172  0.0113  0.1779
   99SAPS    HA 9893   0.010   4.169   5.934 -2.7424 -0.1461  2.1491
   99SAPS    HB 9894   0.127   4.062   6.032 -0.2808 -0.3323 -0.6430
   99SAPS    C2 9895  -0.010   4.176   6.153 -0.4043  0.6365 -0.0054
   99SAPS    HS 9896  -0.064   4.274   6.148 -1.4122  0.0785 -0.3882
   99SAPS   O21 9897   0.085   4.165   6.256 -0.2990  0.1521 -0.7118
   99SAPS   C21 9898   0.056   4.248   6.365  0.8993  0.1759 -0.7573
   99SAPS   O22 9899  -0.045   4.313   6.378 -0.8806  0.0387 -0.6309
   99SAPS   C22 9900   0.165   4.238   6.465 -1.2692  0.1292  0.5529
   99SAPS   H2R 9901   0.166   4.133   6.502 -0.6903  0.3747  1.2634
   99SAPS   H2S 9902   0.259   4.259   6.410 -1.5229 -0.9691 -0.3325
   99SAPS    C3 9903  -0.118   4.064   6.167 -0.8991  0.6247 -0.4421
   99SAPS    HX 9904  -0.175   4.082   6.073 -0.1941  2.1776 -0.6017
   99SAPS    HY 9905  -0.183   4.064   6.257  1.8152 -3.0143  1.7825
   99SAPS   O31 9906  -0.053   3.937   6.152 -0.1564  0.0187  0.5011
   99SAPS   C31 9907  -0.142   3.835   6.119 -0.0571 -0.1493  0.1216
   99SAPS   O32 9908  -0.260   3.852   6.120 -0.0142 -0.1180 -0.9809
   99SAPS   C32 9909  -0.073   3.703   6.090 -0.1623  0.3094  0.3303
   99SAPS   H2X 9910   0.036   3.719   6.076 -0.1732 -0.0831 -0.2400
   99SAPS   H2Y 9911  -0.111   3.666   5.993 -1.6714 -0.8635  1.3198
   99SAPS   C23 9912   0.164   4.345   6.584  0.4722 -0.0856  0.0603
   99SAPS   H3R 9913   0.064   4.319   6.624  0.4842 -0.7571 -0.3324
   99SAPS   H3S 9914   0.170   4.445   6.537 -0.2610  0.0542  0.2431
   99SAPS   C24 9915   0.278   4.318   6.687  0.6079 -0.3001 -0.2389
   99SAPS   H4R 9916   0.375   4.358   6.652 -0.5574  1.1512 -2.0609
   99SAPS   H4S 9917   0.289   4.208   6.695 -0.0137 -0.2757  1.2315
   99SAPS   C25 9918   0.231   4.387   6.810 -0.2129 -0.2610 -0.2627
   99SAPS   H5R 9919   0.125   4.416   6.811 -0.7501 -2.0362  1.5029
   99SAPS   C26 9920   0.311   4.430   6.907  0.1295 -0.2125 -0.3572
   99SAPS   H6R 9921   0.261   4.473   6.995 -1.9924 -1.1122 -1.0541
   99SAPS   C27 9922   0.450   4.396   6.940 -0.7824  0.2531 -0.4342
   99SAPS   H7R 9923   0.495   4.327   6.865 -0.8959  0.8789 -1.0921
   99SAPS   H7S 9924   0.458   4.345   7.038 -2.2920 -0.5773 -0.7122
   99SAPS   C28 9925   0.542   4.511   6.946 -0.1445  0.2291 -0.2975
   99SAPS   H8R 9926   0.553   4.571   6.854 -2.0678  2.4279  0.7890
   99SAPS   C29 9927   0.593   4.568   7.061 -0.5859  0.1084  0.0107
   99SAPS   H9R 9928   0.673   4.643   7.063 -0.1598 -0.2413 -1.8738
   99SAPS  C210 9929   0.571   4.538   7.210  0.4663  0.7854 -0.4362
   99SAPS  H10R 9930   0.662   4.504   7.263 -0.0362  0.9857  0.5935
   99SAPS  H10S 9931   0.494   4.459   7.227  0.4986  0.7107 -0.6407
   99SAPS  C211 9932   0.530   4.666   7.286  0.3216  0.1448  0.6482
   99SAPS  H11R 9933   0.499   4.750   7.223  1.0550  1.3564  1.8633
   99SAPS  C212 9934   0.509   4.679   7.420  0.1670 -0.3286 -0.3508
   99SAPS  H12R 9935   0.472   4.778   7.452 -2.7457 -0.9242 -1.5764
   99SAPS  C213 9936   0.512   4.569   7.530  0.1946  0.0526  0.2011
   99SAPS  H13R 9937   0.616   4.541   7.558 -1.2752 -3.2746  3.0784
   99SAPS  H13S 9938   0.470   4.476   7.486  0.1432  0.6285 -1.0118
   99SAPS  C214 9939   0.424   4.626   7.640  0.1833  0.5743 -0.1617
   99SAPS  H14R 9940   0.321   4.641   7.607  0.3385  0.3145 -0.7698
   99SAPS  C215 9941   0.459   4.662   7.761 -0.6307  0.1095 -0.4055
   99SAPS  H15R 9942   0.383   4.700   7.831 -0.9353 -0.3573 -0.4742
   99SAPS  C216 9943   0.601   4.655   7.816  0.1241 -0.5896  0.3896
   99SAPS  H16R 9944   0.614   4.740   7.887  0.1994 -0.3390  0.0786
   99SAPS  H16S 9945   0.675   4.670   7.735  0.6995 -1.0013  0.8360
   99SAPS  C217 9946   0.643   4.522   7.893  0.4754  0.1961  0.7889
   99SAPS  H17R 9947   0.607   4.443   7.824 -0.5403  0.2555  1.2408
   99SAPS  H17S 9948   0.584   4.506   7.985 -0.9301  0.6049 -0.0191
   99SAPS  C218 9949   0.791   4.488   7.902  0.1243  0.0205 -0.2217
   99SAPS  H18R 9950   0.835   4.523   7.806  0.1492  0.7590  0.0519
   99SAPS  H18S 9951   0.809   4.379   7.915 -0.8008 -0.5494 -3.1057
   99SAPS  C219 9952   0.864   4.559   8.019 -0.6280  0.2514  0.5391
   99SAPS  H19R 9953   0.822   4.536   8.120 -1.2189  0.2515  0.2972
   99SAPS  H19S 9954   0.855   4.669   8.012  1.1337  0.2950 -2.6027
   99SAPS  C220 9955   1.011   4.522   8.019 -0.1582  0.2062 -0.1637
   99SAPS  H20R 9956   1.063   4.584   8.095  2.3384 -1.1884 -0.6095
   99SAPS  H20S 9957   1.065   4.537   7.923  0.7084  2.1018  0.5638
   99SAPS  H20T 9958   1.019   4.416   8.050 -0.4590  0.6081  1.3676
   99SAPS   C33 9959  -0.115   3.604   6.201 -0.1420 -0.2527 -0.4406
   99SAPS   H3X 9960  -0.087   3.506   6.155 -1.0543 -0.2855 -0.9486
   99SAPS   H3Y 9961  -0.223   3.605   6.225 -0.0700  0.5340 -0.1136
   99SAPS   C34 9962  -0.029   3.618   6.329 -0.1823  0.2593  0.7485
   99SAPS   H4X 9963   0.069   3.647   6.287 -0.3739 -2.0182 -1.5096
   99SAPS   H4Y 9964  -0.024   3.516   6.374  2.8314 -1.4146 -2.8637
   99SAPS   C35 9965  -0.075   3.730   6.429 -0.2187  0.6433  0.1510
   99SAPS   H5X 9966  -0.173   3.713   6.480  0.6174 -2.3856  0.9519
   99SAPS   H5Y 9967  -0.082   3.830   6.381  0.9962  0.7259  0.1048
   99SAPS   C36 9968   0.028   3.756   6.542  0.1759 -0.3969 -0.1109
   99SAPS   H6X 9969   0.103   3.830   6.508  1.8184 -0.7902  2.3748
   99SAPS   H6Y 9970   0.090   3.665   6.558 -2.3293 -2.3077 -0.5653
   99SAPS   C37 9971  -0.036   3.798   6.679 -1.0901 -0.0244  0.5764
   99SAPS   H7X 9972  -0.082   3.707   6.724 -0.2151 -0.1171  1.3094
   99SAPS   H7Y 9973  -0.110   3.878   6.659  0.9389  1.3602 -1.8636
   99SAPS   C38 9974   0.061   3.849   6.791  0.4255  0.8260  0.2190
   99SAPS   H8X 9975   0.125   3.934   6.760  0.0809  1.0362  0.0713
   99SAPS   H8Y 9976   0.126   3.761   6.809 -1.0431 -0.8977 -2.2056
   99SAPS   C39 9977  -0.010   3.880   6.920  1.0131  0.0651  0.7012
   99SAPS   H9X 9978   0.048   3.877   7.015 -0.6939  1.0802  1.8391
   99SAPS   H9Y 9979  -0.091   3.805   6.933  0.6513  0.1246 -0.9453
   99SAPS  C310 9980  -0.082   4.014   6.906 -0.4893  0.9323 -0.6690
   99SAPS  H10X 9981  -0.147   4.030   6.817 -0.6648 -0.3192 -0.7826
   99SAPS  H10Y 9982  -0.009   4.098   6.906  0.2378  0.3980  2.0795
   99SAPS  C311 9983  -0.170   4.048   7.033  0.1795  0.8484  0.0559
   99SAPS  H11X 9984  -0.234   4.133   7.001 -0.0476 -0.1033 -2.2420
   99SAPS  H11Y 9985  -0.111   4.083   7.120 -0.3061  1.8256  0.0143
   99SAPS  C312 9986  -0.262   3.933   7.091 -0.2684  0.4391 -0.4464
   99SAPS  H12X 9987  -0.208   3.837   7.099 -0.6779  0.3344  1.4604
   99SAPS  H12Y 9988  -0.346   3.922   7.019  0.3864 -2.5063 -0.8802
   99SAPS  C313 9989  -0.301   3.963   7.237  0.4556  0.4144 -0.0163
   99SAPS  H13X 9990  -0.385   3.895   7.264  0.2216  0.7314  0.0757
   99SAPS  H13Y 9991  -0.344   4.066   7.249 -2.2640 -0.7792  1.5393
   99SAPS  C314 9992  -0.193   3.957   7.344 -0.0139  0.1571  0.7839
   99SAPS  H14X 9993  -0.111   4.032   7.333 -1.5694  2.1284  1.9104
   99SAPS  H14Y 9994  -0.143   3.858   7.339  0.7984  0.5985 -2.1804
   99SAPS  C315 9995  -0.260   3.977   7.473 -0.1032 -0.3651  0.1074
   99SAPS  H15X 9996  -0.328   3.894   7.501  1.5922 -1.3313  1.5488
   99SAPS  H15Y 9997  -0.323   4.068   7.464 -0.0214 -0.2756  0.4503
   99SAPS  C316 9998  -0.166   3.986   7.600 -0.2771  0.0311 -0.0546
   99SAPS  H16X 9999  -0.085   4.062   7.592 -0.2085 -0.1186 -0.8044
   99SAPS  H16Y10000  -0.110   3.890   7.607  0.4615  0.5479  1.9318
   99SAPS  C31710001  -0.245   4.015   7.729 -0.4741 -0.2735 -0.2077
   99SAPS  H17X10002  -0.326   3.942   7.748 -2.3120  1.0424 -2.4139
   99SAPS  H17Y10003  -0.300   4.111   7.718 -0.9464 -0.3438  1.3800
   99SAPS  C31810004  -0.144   4.032   7.841  0.2869 -0.2129  0.3326
   99SAPS  H18X10005  -0.057   3.964   7.830  0.6222  0.4462 -1.4919
   99SAPS  H18Y10006  -0.194   4.028   7.940 -1.9750  1.4148 -0.6498
   99SAPS  H18Z10007  -0.115   4.139   7.835 -0.2648 -0.0447  0.6006
  100SAPS     N10008   6.351   1.155   6.008  0.1900 -0.3808  0.4289
  100SAPS   HN110009   6.407   1.143   5.921  0.7813  3.1785  0.1884
  100SAPS   HN210010   6.256   1.133   5.971 -0.5364  0.1131  1.9549
  100SAPS   HN310011   6.359   1.256   6.030 -0.5004 -0.5720  1.6469
  100SAPS   C1210012   6.409   1.072   6.118 -0.2477 -0.0162 -0.3945
  100SAPS  H12A10013   6.425   0.971   6.085  0.4456  0.2655 -0.9376
  100SAPS   C1310014   6.549   1.120   6.162  0.4479  0.1496  0.1643
  100SAPS  O13A10015   6.596   1.222   6.109  0.4906 -0.6376 -0.1435
  100SAPS  O13B10016   6.609   1.063   6.256 -0.1982  0.0579  0.4786
  100SAPS   C1110017   6.311   1.078   6.242 -0.7032  0.1187 -0.2468
  100SAPS  H11A10018   6.287   1.184   6.263  0.2974 -0.0048  1.7359
  100SAPS  H11B10019   6.367   1.029   6.325 -0.0441 -0.0280 -0.7738
  100SAPS     P10020   6.162   0.851   6.235 -0.2557 -0.1755  0.1074
  100SAPS   O1310021   6.022   0.820   6.196 -0.2334 -0.0184 -0.9102
  100SAPS   O1410022   6.270   0.793   6.151 -0.2816 -0.0851  0.2260
  100SAPS   O1210023   6.179   1.008   6.230 -0.2666  0.1524 -0.5221
  100SAPS   O1110024   6.177   0.818   6.389  0.1449  0.4503 -0.3905
  100SAPS    C110025   6.087   0.861   6.491  0.1383  0.3044 -0.3140
  100SAPS    HA10026   5.984   0.876   6.452  0.9196  0.9080 -2.2524
  100SAPS    HB10027   6.081   0.780   6.568 -1.0739 -0.6398 -1.3453
  100SAPS    C210028   6.129   0.991   6.562 -0.6758 -0.6676  0.5860
  100SAPS    HS10029   6.118   1.075   6.491  1.3901 -0.2718  0.6780
  100SAPS   O2110030   6.266   0.971   6.609  0.2505 -0.0233 -0.2523
  100SAPS   C2110031   6.320   1.089   6.627 -0.5550  0.4968 -0.5097
  100SAPS   O2210032   6.281   1.201   6.589  0.1513  1.0430 -0.1622
  100SAPS   C2210033   6.458   1.068   6.687 -0.2798 -0.3003  0.5025
  100SAPS   H2R10034   6.518   0.987   6.640  0.7308 -0.3738  1.8431
  100SAPS   H2S10035   6.517   1.161   6.669  1.9637 -1.5028  1.1640
  100SAPS    C310036   6.040   1.027   6.679  0.5493 -0.2047 -0.4500
  100SAPS    HX10037   5.936   1.042   6.641  1.1804 -0.0028 -2.1579
  100SAPS    HY10038   6.089   1.118   6.720  1.5914 -2.1177  2.9446
  100SAPS   O3110039   6.040   0.927   6.786 -0.5018  0.1881  0.2296
  100SAPS   C3110040   5.964   0.977   6.894 -0.1418 -0.4692  0.1737
  100SAPS   O3210041   5.911   1.091   6.891 -0.1927 -0.1521  0.0399
  100SAPS   C3210042   5.963   0.886   7.017  0.0654 -0.3462 -0.1261
  100SAPS   H2X10043   6.031   0.799   7.006 -2.0605 -2.3241  1.4546
  100SAPS   H2Y10044   5.857   0.854   7.028  0.1348 -0.2555  0.8367
  100SAPS   C2310045   6.448   1.032   6.834 -0.0555 -0.0762 -0.6366
  100SAPS   H3R10046   6.552   1.006   6.863  0.0654  1.9168  0.9296
  100SAPS   H3S10047   6.384   0.941   6.838  0.5595 -0.4943 -0.0928
  100SAPS   C2410048   6.402   1.154   6.914  1.0925  0.9271 -1.2547
  100SAPS   H4R10049   6.321   1.215   6.868  0.6299  1.9169  0.7814
  100SAPS   H4S10050   6.498   1.209   6.927  1.8868 -0.9689  2.0310
  100SAPS   C2510051   6.362   1.107   7.059  0.1158 -0.4173  0.9960
  100SAPS   H5R10052   6.396   1.008   7.093  0.2334 -0.3521  1.0689
  100SAPS   C2610053   6.283   1.180   7.146 -0.9988 -0.5387  0.0649
  100SAPS   H6R10054   6.257   1.133   7.242 -0.9141 -0.9239 -0.1002
  100SAPS   C2710055   6.222   1.317   7.109  0.0878  0.3716  0.9111
  100SAPS   H7R10056   6.241   1.348   7.004 -0.3175  0.8424  0.9753
  100SAPS   H7S10057   6.268   1.388   7.181 -0.8844  1.1451  0.7888
  100SAPS   C2810058   6.070   1.308   7.135  0.3368  0.4001  0.2656
  100SAPS   H8R10059   6.019   1.263   7.049  0.8971 -1.5594  0.8948
  100SAPS   C2910060   6.007   1.360   7.240  0.3804  0.7671  0.5018
  100SAPS   H9R10061   5.897   1.356   7.244  0.2756 -3.9354 -1.3004
  100SAPS  C21010062   6.061   1.436   7.356 -0.7207 -1.0224 -0.0325
  100SAPS  H10R10063   6.003   1.529   7.373  0.1140 -0.4801 -0.1213
  100SAPS  H10S10064   6.159   1.479   7.326 -1.2063  0.5125  0.5174
  100SAPS  C21110065   6.076   1.348   7.480  0.1227 -0.6067 -0.1007
  100SAPS  H11R10066   5.983   1.305   7.520  0.8362 -0.9655  1.2188
  100SAPS  C21210067   6.181   1.329   7.559 -0.0888 -0.2476 -0.2797
  100SAPS  H12R10068   6.179   1.254   7.640  0.1629 -2.0161 -1.8486
  100SAPS  C21310069   6.320   1.381   7.529  0.1461  0.0584 -0.2802
  100SAPS  H13R10070   6.331   1.491   7.518  2.1733 -0.2144 -1.8093
  100SAPS  H13S10071   6.345   1.340   7.429 -0.0342 -1.1681  0.1689
  100SAPS  C21410072   6.427   1.332   7.624  0.5051  0.5002 -0.0814
  100SAPS  H14R10073   6.413   1.377   7.723  0.2506  1.2168 -0.4422
  100SAPS  C21510074   6.529   1.240   7.615 -0.1946  0.2444  0.0522
  100SAPS  H15R10075   6.600   1.233   7.699 -2.3193  1.6057  2.0772
  100SAPS  C21610076   6.577   1.163   7.501 -1.0128  0.3965  0.5997
  100SAPS  H16R10077   6.531   1.194   7.405 -1.0243 -1.4416 -0.0178
  100SAPS  H16S10078   6.549   1.058   7.523  1.8818 -0.3163  1.3521
  100SAPS  C21710079   6.732   1.172   7.482  0.5565 -0.5560  0.5166
  100SAPS  H17R10080   6.789   1.136   7.571  1.2291  0.8647  0.6913
  100SAPS  H17S10081   6.758   1.279   7.472  0.2251 -0.6303 -1.4714
  100SAPS  C21810082   6.772   1.100   7.354  0.1427  0.0308  0.1318
  100SAPS  H18R10083   6.873   1.138   7.327 -0.1664 -0.9728 -2.7432
  100SAPS  H18S10084   6.697   1.121   7.274  0.2515  0.8859  0.2391
  100SAPS  C21910085   6.779   0.945   7.374 -0.2722  0.8050 -0.0160
  100SAPS  H19R10086   6.771   0.919   7.482  3.5202 -0.7955  0.0250
  100SAPS  H19S10087   6.869   0.896   7.332 -1.3902 -1.5038  0.0614
  100SAPS  C22010088   6.664   0.880   7.296  0.6649 -0.1429 -0.2438
  100SAPS  H20R10089   6.568   0.911   7.342 -0.2411 -2.5381 -0.4226
  100SAPS  H20S10090   6.659   0.771   7.315 -0.1544  0.2115  1.7541
  100SAPS  H20T10091   6.665   0.910   7.189  0.6363 -0.6225 -0.3797
  100SAPS   C3310092   6.001   0.964   7.147 -0.3034  0.3369 -0.0420
  100SAPS   H3X10093   5.945   1.059   7.157  1.6356  1.4656  0.5836
  100SAPS   H3Y10094   6.110   0.987   7.144 -0.7628  2.7559 -0.0065
  100SAPS   C3410095   5.977   0.880   7.265  0.7094 -0.0701 -0.4488
  100SAPS   H4X10096   6.062   0.808   7.272 -1.9935 -3.5407 -0.1460
  100SAPS   H4Y10097   5.892   0.809   7.256  0.3581 -0.0522  2.0703
  100SAPS   C3510098   5.958   0.973   7.394  0.2457 -0.0542  1.3176
  100SAPS   H5X10099   5.852   1.007   7.404 -0.2307 -1.1673  0.3011
  100SAPS   H5Y10100   6.030   1.055   7.378  0.0376  0.2008  1.6726
  100SAPS   C3610101   5.993   0.895   7.517  0.0180  0.3453 -0.2738
  100SAPS   H6X10102   6.104   0.903   7.521  0.2084 -1.0919 -1.5950
  100SAPS   H6Y10103   5.973   0.787   7.502 -1.4281  0.6504 -0.6256
  100SAPS   C3710104   5.915   0.926   7.642 -0.6037 -0.5247  1.1139
  100SAPS   H7X10105   5.972   0.881   7.726 -0.6733 -0.3436  1.2618
  100SAPS   H7Y10106   5.808   0.898   7.645 -0.3823 -1.3973  1.2266
  100SAPS   C3810107   5.909   1.087   7.672 -0.2657  0.2733  1.0043
  100SAPS   H8X10108   5.846   1.130   7.592  2.4298  0.9786 -0.8795
  100SAPS   H8Y10109   6.010   1.133   7.658  0.4787 -1.4297  0.4884
  100SAPS   C3910110   5.848   1.143   7.804  0.2567  0.7402 -0.2358
  100SAPS   H9X10111   5.753   1.094   7.832 -1.0957  3.5719  0.5028
  100SAPS   H9Y10112   5.801   1.242   7.786 -0.9673 -0.2682 -3.1467
  100SAPS  C31010113   5.955   1.154   7.910  0.0543  0.1456 -0.4543
  100SAPS  H10X10114   6.035   1.229   7.894  1.0545 -0.9836 -0.8676
  100SAPS  H10Y10115   6.011   1.060   7.924 -0.9359 -0.4983 -0.7408
  100SAPS  C31110116   5.887   1.191   8.046  0.1565  1.1187 -0.7585
  100SAPS  H11X10117   5.802   1.120   8.059 -0.3955  2.1379  2.0214
  100SAPS  H11Y10118   5.852   1.296   8.034  2.0337  1.8006 -0.6279
  100SAPS  C31210119   5.979   1.181   8.168  0.2619 -0.0009 -0.1373
  100SAPS  H12X10120   6.055   1.262   8.168 -0.2065  0.5436  2.4361
  100SAPS  H12Y10121   6.035   1.086   8.156  2.3347  1.0315  0.9775
  100SAPS  C31310122   5.908   1.181   8.307 -0.0449  0.0910  0.8422
  100SAPS  H13X10123   5.982   1.152   8.385  2.5747  1.7992 -0.8273
  100SAPS  H13Y10124   5.835   1.098   8.308  0.4131 -0.3445 -0.3234
  100SAPS  C31410125   5.841   1.309   8.341  0.1411 -0.6948 -0.8090
  100SAPS  H14X10126   5.749   1.325   8.280 -2.2441  0.9338  2.8644
  100SAPS  H14Y10127   5.900   1.399   8.312 -1.1335 -0.1603 -1.8659
  100SAPS  C31510128   5.778   1.325   8.477  0.2946 -0.6672 -0.3674
  100SAPS  H15X10129   5.860   1.338   8.551 -0.5225  0.9405  0.3116
  100SAPS  H15Y10130   5.723   1.234   8.508 -0.7173 -0.8402 -2.4680
  100SAPS  C31610131   5.696   1.446   8.480 -0.1455 -0.2030  0.3335
  100SAPS  H16X10132   5.617   1.436   8.403 -1.2156 -3.6989  1.6801
  100SAPS  H16Y10133   5.766   1.527   8.451  0.1514 -0.5267  0.1389
  100SAPS  C31710134   5.630   1.489   8.615 -0.2441  0.5008 -0.5238
  100SAPS  H17X10135   5.553   1.415   8.644  0.3554 -0.3984 -1.1608
  100SAPS  H17Y10136   5.575   1.584   8.599 -1.1577  0.1245  0.2923
  100SAPS  C31810137   5.724   1.498   8.732 -0.4210  0.2093  0.0594
  100SAPS  H18X10138   5.767   1.397   8.750  1.8850  1.2703  0.9316
  100SAPS  H18Y10139   5.656   1.504   8.820  0.8727  0.4027  1.0745
  100SAPS  H18Z10140   5.804   1.575   8.725 -1.6142  1.3523 -1.9529
  101OSM      N10141   4.344   2.326  11.056  0.1252 -0.0551  0.5280
  101OSM    C1510142   4.333   2.463  11.122 -0.3534  0.6478  0.0813
  101OSM   H15A10143   4.404   2.529  11.073 -1.3787  1.9420  0.2920
  101OSM   H15B10144   4.369   2.460  11.223 -1.3647 -0.6122  0.4112
  101OSM   H15C10145   4.237   2.510  11.110 -0.7509 -0.6605 -2.6212
  101OSM    C1410146   4.340   2.353  10.911  0.0798 -0.0533 -0.0050
  101OSM   H14A10147   4.243   2.384  10.876 -0.7646 -3.1720 -0.7798
  101OSM   H14B10148   4.360   2.261  10.857  0.3695  0.3210 -0.5490
  101OSM   H14C10149   4.410   2.419  10.862 -0.3276 -1.0214 -2.0062
  101OSM    C1310150   4.478   2.262  11.098  0.0074 -0.5623  0.3557
  101OSM   H13A10151   4.498   2.168  11.048  0.6887  1.6200 -3.9206
  101OSM   H13B10152   4.492   2.265  11.205  1.6129  0.1731  0.1632
  101OSM   H13C10153   4.561   2.320  11.060  2.2636 -4.0455 -0.5243
  101OSM    C1210154   4.217   2.245  11.091 -0.1430 -0.4310  0.2721
  101OSM   H12A10155   4.220   2.216  11.195 -1.9533 -0.5432  0.3195
  101OSM   H12B10156   4.208   2.159  11.026 -1.2380  0.7889 -1.2907
  101OSM    C1110157   4.084   2.324  11.080  0.2625  0.1945 -0.4894
  101OSM   H11A10158   4.084   2.383  11.174  0.3389 -2.3366  1.1902
  101OSM   H11B10159   4.003   2.247  11.077 -0.2342  0.5293  2.0755
  101OSM      P10160   3.938   2.497  10.959  0.0221 -0.6247  0.1610
  101OSM    O1310161   3.827   2.418  10.898  0.1334 -0.1582  0.5967
  101OSM    O1410162   3.916   2.556  11.097  0.0811 -0.2911  0.9694
  101OSM    O1110163   3.975   2.606  10.855  0.2593  0.5915  0.4432
  101OSM    O1210164   4.073   2.409  10.968  0.4383 -0.6075 -0.5020
  101OSM    C1S10165   4.081   2.596  10.757 -0.1293  0.4060 -0.7327
  101OSM    H1S10166   4.151   2.511  10.777 -0.7298  0.3183  1.2927
  101OSM    H1T10167   4.147   2.685  10.758  0.0084  0.3460  1.4257
  101OSM     NF10168   4.130   2.550  10.528 -0.7208 -0.1670 -0.0372
  101OSM    HNF10169   4.178   2.618  10.473 -0.0902 -0.6993 -0.1587
  101OSM    C2S10170   4.022   2.588  10.613 -0.1237  0.2584  0.1967
  101OSM    H2S10171   3.944   2.509  10.605  0.0198 -0.1079  2.0024
  101OSM    C3S10172   3.968   2.725  10.580 -0.7467  0.2490  0.1120
  101OSM    H3S10173   4.053   2.796  10.580  0.3190 -0.9815 -1.0532
  101OSM     O310174   3.872   2.772  10.675  0.2834  0.4576  0.0083
  101OSM    HO310175   3.868   2.703  10.742 -1.4594  0.2558 -0.2530
  101OSM    C4S10176   3.920   2.723  10.438 -0.5732 -0.0570  1.2695
  101OSM    H4S10177   4.002   2.751  10.370  1.2283  1.3111  3.8371
  101OSM    C5S10178   3.800   2.683  10.379 -0.2111  0.1728  0.2129
  101OSM    H5S10179   3.714   2.654  10.441  0.0204 -0.4577  0.2515
  101OSM    C6S10180   3.773   2.678  10.230  0.0955  0.1654 -0.1693
  101OSM    H6S10181   3.662   2.673  10.231  0.1326 -0.8066  0.4246
  101OSM    H6T10182   3.814   2.583  10.191 -1.0705  0.0569 -1.2037
  101OSM    C7S10183   3.819   2.797  10.141  0.5606 -0.2283 -0.1192
  101OSM    H7S10184   3.929   2.798  10.129  0.5766 -1.4084 -0.2358
  101OSM    H7T10185   3.795   2.898  10.180  1.5102  0.1051 -0.3680
  101OSM    C8S10186   3.753   2.796  10.007  0.0921 -0.1263  0.1545
  101OSM    H8S10187   3.752   2.895   9.956 -1.4384  0.7354  1.7272
  101OSM    H8T10188   3.644   2.777  10.017  0.1372 -0.7967 -0.5537
  101OSM    C9S10189   3.811   2.687   9.907 -0.1179  0.5756 -0.1326
  101OSM    H9S10190   3.820   2.592   9.964 -1.1347  0.3512 -0.3324
  101OSM    H9T10191   3.915   2.719   9.884  0.0762  0.4355  0.5328
  101OSM   C10S10192   3.736   2.663   9.773 -0.0512  0.3216 -0.3949
  101OSM   H10S10193   3.631   2.634   9.794 -0.5806  2.3076 -0.0678
  101OSM   H10T10194   3.764   2.564   9.732 -1.8093 -0.6085  0.5178
  101OSM   C11S10195   3.733   2.781   9.671  0.5293 -0.1372  0.0432
  101OSM   H11S10196   3.832   2.808   9.628 -1.2039  3.3230 -2.2861
  101OSM   H11T10197   3.690   2.871   9.720 -0.0265 -0.3194 -0.1096
  101OSM   C12S10198   3.644   2.769   9.540 -0.3761 -0.2552 -0.3855
  101OSM   H12S10199   3.701   2.708   9.466 -0.8292  1.1774 -1.9906
  101OSM   H12T10200   3.651   2.872   9.499  1.7137  0.0162  0.5097
  101OSM   C13S10201   3.503   2.727   9.569  1.3817 -0.3970  0.2094
  101OSM   H13S10202   3.447   2.805   9.625 -1.6826  0.5799 -3.7150
  101OSM   H13T10203   3.508   2.643   9.641  1.1590 -1.2681 -0.7721
  101OSM   C14S10204   3.416   2.701   9.442 -0.1341 -0.7024  0.5770
  101OSM   H14S10205   3.466   2.627   9.375  0.6341  0.5808 -0.3114
  101OSM   H14T10206   3.405   2.799   9.391  2.0510  0.3110  1.8924
  101OSM   C15S10207   3.276   2.651   9.472 -0.6591 -0.0993  0.0612
  101OSM   H15S10208   3.216   2.636   9.380 -2.0215  1.3571  0.6893
  101OSM   H15T10209   3.233   2.740   9.522  0.8247 -0.5253  2.2385
  101OSM   C16S10210   3.258   2.526   9.564 -0.2209 -0.3787 -0.1946
  101OSM   H16S10211   3.313   2.555   9.656  1.1820  0.3340 -1.2091
  101OSM   H16T10212   3.309   2.436   9.523  1.2693 -0.2088  1.1647
  101OSM   C17S10213   3.105   2.515   9.591  0.3173 -0.5783  0.1996
  101OSM   H17S10214   3.055   2.515   9.492  3.2645  1.5785 -1.4587
  101OSM   H17T10215   3.059   2.600   9.647 -2.0847  0.0876 -2.5620
  101OSM   C18S10216   3.075   2.374   9.645 -0.2438  0.1021 -0.8972
  101OSM   H18S10217   3.131   2.358   9.740 -2.9848  1.0298  1.0109
  101OSM   H18T10218   3.092   2.288   9.577  1.2293 -3.3221  3.3334
  101OSM   H18U10219   2.968   2.374   9.676  0.0679 -1.7299  0.3779
  101OSM    C1F10220   4.178   2.424  10.518 -0.0386 -0.0369  0.1675
  101OSM     OF10221   4.123   2.334  10.585  0.1412 -0.3033  0.5694
  101OSM    C2F10222   4.288   2.396  10.416 -0.3885 -0.1431 -0.0871
  101OSM    H2F10223   4.354   2.320  10.464 -3.9555 -1.4407  3.2826
  101OSM    H2G10224   4.350   2.487  10.400  2.1004 -1.8858 -1.1238
  101OSM    C3F10225   4.253   2.331  10.288  0.1052  0.3342 -0.5617
  101OSM    H3F10226   4.170   2.259  10.296  0.3204  0.0197 -1.1221
  101OSM    H3G10227   4.339   2.275  10.248 -0.7341 -0.1495 -1.7222
  101OSM    C4F10228   4.209   2.424  10.176  0.1464 -0.3611  0.5921
  101OSM    H4F10229   4.273   2.514  10.169 -1.1532  0.5289 -0.5233
  101OSM    H4G10230   4.108   2.462  10.203  1.2237  4.4317 -1.0562
  101OSM    C5F10231   4.189   2.373  10.035 -0.2869 -0.0343  0.1435
  101OSM    H5F10232   4.279   2.311  10.018 -1.0565 -1.2306  0.2979
  101OSM    H5G10233   4.199   2.445   9.951  1.7459  1.2981  1.4458
  101OSM    C6F10234   4.058   2.278  10.029 -0.7572  0.3118  0.3622
  101OSM    H6F10235   3.965   2.335  10.051 -0.5076  0.2711  1.5705
  101OSM    H6G10236   4.063   2.192  10.099 -2.0123  0.4854  0.6936
  101OSM    C7F10237   4.027   2.222   9.891 -0.0157  0.8085 -0.3251
  101OSM    H7F10238   3.953   2.143   9.915  0.3996  0.7683  0.8993
  101OSM    H7G10239   4.123   2.184   9.848  0.8055 -0.9122  2.7655
  101OSM    C8F10240   3.946   2.324   9.799  0.0520 -0.3164  0.6142
  101OSM    H8F10241   4.014   2.410   9.778  0.9049 -1.6834 -3.0241
  101OSM    H8G10242   3.855   2.353   9.856  1.0198  1.7981  1.1604
  101OSM    C9F10243   3.907   2.256   9.670  0.3405  0.1278 -0.7285
  101OSM    H9F10244   3.854   2.159   9.676  0.4946 -0.1211 -2.7960
  101OSM   C10F10245   3.921   2.300   9.546 -0.1840 -0.2849  0.1483
  101OSM   H10F10246   3.880   2.241   9.463 -1.1072  1.6523 -0.8556
  101OSM   C11F10247   3.977   2.434   9.510 -0.3541 -0.8231  0.3559
  101OSM   H11F10248   3.930   2.524   9.555  0.7381  0.9635 -1.8373
  101OSM   H11G10249   3.963   2.446   9.400  1.0252 -1.6031  0.0641
  101OSM   C12F10250   4.126   2.447   9.529 -0.3664 -0.3196 -0.3024
  101OSM   H12F10251   4.182   2.358   9.493 -1.3449 -2.1193  2.3244
  101OSM   H12G10252   4.150   2.445   9.637  1.8108 -0.4322 -0.7234
  101OSM   C13F10253   4.187   2.580   9.472  0.2912  0.4291  0.0194
  101OSM   H13F10254   4.156   2.581   9.365  0.6625  1.4148 -0.0864
  101OSM   H13G10255   4.298   2.569   9.469  0.3336  0.9903 -2.0148
  101OSM   C14F10256   4.151   2.710   9.546  0.7900  0.6928  0.4060
  101OSM   H14F10257   4.043   2.731   9.533  0.7513  0.5018  0.4066
  101OSM   H14G10258   4.202   2.796   9.498 -0.8257  1.2261 -0.4272
  101OSM   C15F10259   4.191   2.696   9.693  0.4567  0.3618 -1.0312
  101OSM   H15F10260   4.293   2.657   9.709  0.7336  2.1111  2.6343
  101OSM   H15G10261   4.120   2.628   9.745  1.6095 -1.1092 -1.3103
  101OSM   C16F10262   4.187   2.824   9.773  0.1800 -0.2784 -0.1962
  101OSM   H16F10263   4.082   2.857   9.762 -0.1829 -1.1683  0.4328
  101OSM   H16G10264   4.252   2.906   9.735  2.5830 -2.3469 -0.8442
  101OSM   C17F10265   4.228   2.798   9.917  0.2367 -0.3772 -0.0735
  101OSM   H17F10266   4.333   2.766   9.899  1.1579  2.5740 -0.3903
  101OSM   H17G10267   4.174   2.713   9.964 -0.1475  0.6639  1.4100
  101OSM   C18F10268   4.215   2.906  10.020  0.2115 -0.4918 -1.0174
  101OSM   H18F10269   4.107   2.932  10.018  0.0699 -0.7644  1.0749
  101OSM   H18G10270   4.273   2.999  10.003  0.4752  0.4839  3.8039
  101OSM   H18H10271   4.231   2.872  10.125 -0.3802 -0.4637 -0.9131
  102OSM      N10272   2.280   2.954  10.697  0.0982 -0.9821  0.8039
  102OSM    C1510273   2.380   2.961  10.807  0.9474  0.0324 -0.2163
  102OSM   H15A10274   2.388   3.060  10.848 -1.3689 -0.0666  0.6387
  102OSM   H15B10275   2.475   2.921  10.776 -0.0030 -2.7691  0.1720
  102OSM   H15C10276   2.357   2.888  10.884 -0.8625  1.7310  0.9588
  102OSM    C1410277   2.151   3.004  10.749  0.3055  0.4809 -0.0654
  102OSM   H14A10278   2.174   3.105  10.777  2.1760  1.2053 -3.5831
  102OSM   H14B10279   2.124   2.942  10.833 -0.3926 -0.9859 -1.3186
  102OSM   H14C10280   2.070   3.012  10.677 -0.9540  0.6248  1.3328
  102OSM    C1310281   2.321   3.064  10.596 -0.2856  0.1654 -0.0018
  102OSM   H13A10282   2.310   3.160  10.644  3.7982  0.5457  0.5761
  102OSM   H13B10283   2.265   3.056  10.504 -1.0003  0.9340  0.3562
  102OSM   H13C10284   2.426   3.047  10.577 -0.0518 -1.2532  2.1823
  102OSM    C1210285   2.275   2.815  10.649  0.1053  0.8023 -0.1595
  102OSM   H12A10286   2.367   2.788  10.600  1.2651  3.6506  0.2664
  102OSM   H12B10287   2.198   2.798  10.576  0.2929 -0.5707 -0.0678
  102OSM    C1110288   2.254   2.706  10.766 -0.0304 -0.4696  0.4106
  102OSM   H11A10289   2.223   2.612  10.716 -0.6220 -0.2539  0.3565
  102OSM   H11B10290   2.161   2.738  10.819 -0.6419 -0.2428 -0.7760
  102OSM      P10291   2.477   2.577  10.795  0.0811 -0.3919  0.0742
  102OSM    O1310292   2.600   2.590  10.869  0.0434  0.2866 -0.0172
  102OSM    O1410293   2.406   2.449  10.796  0.7143 -0.5926  0.4940
  102OSM    O1110294   2.499   2.622  10.643  0.3426  0.0910 -0.0358
  102OSM    O1210295   2.378   2.686  10.846  0.7797 -0.5077 -0.0098
  102OSM    C1S10296   2.570   2.529  10.559 -0.1780  0.2856  0.2198
  102OSM    H1S10297   2.491   2.454  10.538  0.0564 -0.3826  1.6206
  102OSM    H1T10298   2.659   2.494  10.615 -0.2487  1.6862  1.2620
  102OSM     NF10299   2.661   2.506  10.326 -0.1337  0.3295 -0.0297
  102OSM    HNF10300   2.755   2.478  10.346 -0.3648 -0.2053  0.3403
  102OSM    C2S10301   2.617   2.606  10.428  0.7475  0.1863 -0.3043
  102OSM    H2S10302   2.526   2.659  10.393  0.7914  1.4006  1.2950
  102OSM    C3S10303   2.726   2.713  10.465 -0.3368 -0.3927 -0.0312
  102OSM    H3S10304   2.808   2.645  10.498 -0.8641 -2.5566 -2.8505
  102OSM     O310305   2.690   2.794  10.574  1.0517  0.1464 -0.7179
  102OSM    HO310306   2.605   2.759  10.601  0.8922  1.2990  0.3379
  102OSM    C4S10307   2.768   2.788  10.346  0.5314  0.6795  0.5778
  102OSM    H4S10308   2.854   2.739  10.298  0.3992  0.1975  0.8237
  102OSM    C5S10309   2.715   2.896  10.288  0.7249  0.5665  1.4355
  102OSM    H5S10310   2.619   2.943  10.314 -0.5422 -0.7266 -0.6437
  102OSM    C6S10311   2.775   2.961  10.162  0.3076 -0.4002 -0.6418
  102OSM    H6S10312   2.885   2.945  10.158  0.5238  0.2723  1.5210
  102OSM    H6T10313   2.764   3.071  10.173  0.2403 -0.5241  0.7146
  102OSM    C7S10314   2.696   2.929  10.030  0.9161  0.3500  0.6694
  102OSM    H7S10315   2.743   2.993   9.952 -0.6662  0.9419  0.1800
  102OSM    H7T10316   2.593   2.964  10.051  1.1645  0.0558  2.6340
  102OSM    C8S10317   2.706   2.777   9.998 -0.2859 -0.6685 -0.0012
  102OSM    H8S10318   2.654   2.732  10.085 -1.5055 -1.6711 -1.2230
  102OSM    H8T10319   2.813   2.748   9.989  0.3812  1.5231  0.1589
  102OSM    C9S10320   2.634   2.730   9.867  0.5130  0.3587 -0.7042
  102OSM    H9S10321   2.530   2.767   9.867  0.6918  0.8933  0.3361
  102OSM    H9T10322   2.634   2.619   9.874  0.5508  0.2469 -2.1023
  102OSM   C10S10323   2.707   2.773   9.737  0.5391  0.3073  0.2489
  102OSM   H10S10324   2.800   2.718   9.712  0.4428 -0.7729  2.1504
  102OSM   H10T10325   2.731   2.882   9.733  0.1248  0.3726 -2.3091
  102OSM   C11S10326   2.627   2.753   9.608 -0.1897  0.6269  0.8646
  102OSM   H11S10327   2.622   2.846   9.547 -3.2663 -0.9260 -1.5405
  102OSM   H11T10328   2.523   2.730   9.640 -0.9169  1.7968 -0.5473
  102OSM   C12S10329   2.682   2.639   9.517 -0.1757 -0.3282  0.0532
  102OSM   H12S10330   2.595   2.591   9.466  0.2634  1.5295 -2.6943
  102OSM   H12T10331   2.738   2.567   9.580  0.0349  0.7112  1.0829
  102OSM   C13S10332   2.776   2.696   9.404  0.1665 -0.1021  0.4750
  102OSM   H13S10333   2.825   2.608   9.357  1.4596 -1.3886  3.8693
  102OSM   H13T10334   2.875   2.720   9.447  1.3071  0.0772 -2.0640
  102OSM   C14S10335   2.716   2.793   9.300 -0.5391  0.0996 -0.3692
  102OSM   H14S10336   2.790   2.822   9.222 -1.4901  2.6347 -0.4210
  102OSM   H14T10337   2.686   2.883   9.357  1.4555  0.1935  0.6190
  102OSM   C15S10338   2.591   2.737   9.229  0.2830 -0.3239  0.1706
  102OSM   H15S10339   2.517   2.816   9.205  1.3562  0.8636  0.6659
  102OSM   H15T10340   2.539   2.664   9.295  0.0263 -0.4512 -0.1699
  102OSM   C16S10341   2.628   2.676   9.095  0.2088  0.2976 -0.1234
  102OSM   H16S10342   2.559   2.591   9.072  1.3806 -0.5660 -0.5347
  102OSM   H16T10343   2.721   2.616   9.101 -0.1888 -0.5620 -1.8318
  102OSM   C17S10344   2.634   2.773   8.972 -0.4393  1.0081 -0.0744
  102OSM   H17S10345   2.655   2.704   8.887  0.1211  0.7708  0.2516
  102OSM   H17T10346   2.716   2.846   8.989  2.9678 -2.2018 -1.2676
  102OSM   C18S10347   2.506   2.843   8.931  0.2135 -0.5875 -0.1781
  102OSM   H18S10348   2.476   2.914   9.011 -1.3332 -3.0384  1.5745
  102OSM   H18T10349   2.425   2.768   8.920 -0.4582  0.2255 -0.9561
  102OSM   H18U10350   2.517   2.892   8.832 -1.6218  0.2036 -0.0385
  102OSM    C1F10351   2.574   2.438  10.255 -0.4288 -0.5964  0.3367
  102OSM     OF10352   2.454   2.460  10.263 -0.5075  0.0666  0.0333
  102OSM    C2F10353   2.633   2.347  10.165  0.6123  0.0991  0.0217
  102OSM    H2F10354   2.605   2.246  10.200  1.1579 -0.9317 -2.3723
  102OSM    H2G10355   2.744   2.347  10.157  0.5009 -1.2335 -2.2340
  102OSM    C3F10356   2.569   2.360  10.021 -0.0332  0.1842  0.1917
  102OSM    H3F10357   2.537   2.460   9.986  0.6591  0.7117  1.0011
  102OSM    H3G10358   2.477   2.301  10.038  0.6444 -0.2290  2.9325
  102OSM    C4F10359   2.660   2.312   9.909  0.0941  0.3088 -0.3567
  102OSM    H4F10360   2.691   2.219   9.960  0.8976  0.7663  0.0024
  102OSM    H4G10361   2.748   2.379   9.895  0.2246  1.4271  4.3202
  102OSM    C5F10362   2.585   2.286   9.777 -0.1134 -0.9279  0.5295
  102OSM    H5F10363   2.551   2.389   9.753  1.6663 -0.2141  0.8906
  102OSM    H5G10364   2.495   2.223   9.793  0.0987 -0.8127  2.4110
  102OSM    C6F10365   2.683   2.220   9.678  0.5763  0.1075 -0.0252
  102OSM    H6F10366   2.695   2.113   9.705  1.7880  0.4626  0.9749
  102OSM    H6G10367   2.783   2.267   9.689  0.4820 -0.1348  2.4668
  102OSM    C7F10368   2.645   2.239   9.530 -0.4877  0.2388  0.0785
  102OSM    H7F10369   2.653   2.345   9.501  0.2972 -0.1798 -1.3366
  102OSM    H7G10370   2.546   2.195   9.504 -0.7472  1.2633 -0.7305
  102OSM    C8F10371   2.755   2.172   9.449  0.1540 -0.5442  0.4109
  102OSM    H8F10372   2.745   2.061   9.448  1.9390 -0.7277 -0.8941
  102OSM    H8G10373   2.850   2.209   9.492 -0.3756  0.4638  0.7693
  102OSM    C9F10374   2.737   2.210   9.301 -0.2117  1.3452 -0.1010
  102OSM    H9F10375   2.635   2.191   9.264  0.0905 -0.0365 -0.2680
  102OSM   C10F10376   2.825   2.274   9.223  0.3180  0.5772 -0.3781
  102OSM   H10F10377   2.805   2.286   9.115  1.2020  2.0981 -0.3994
  102OSM   C11F10378   2.966   2.312   9.275 -0.0600  0.2475  0.2112
  102OSM   H11F10379   3.026   2.244   9.339  1.2992  1.1909  0.0003
  102OSM   H11G10380   2.960   2.404   9.337  0.4103  0.8927 -0.6697
  102OSM   C12F10381   3.062   2.357   9.164  0.8039 -0.5382  0.5743
  102OSM   H12F10382   3.058   2.291   9.074 -1.4873  2.0759 -1.4327
  102OSM   H12G10383   3.164   2.367   9.207  0.6051 -0.9121  1.1360
  102OSM   C13F10384   3.038   2.497   9.102  0.7190 -0.3784 -0.3631
  102OSM   H13F10385   3.054   2.587   9.166  1.2850 -0.0895 -0.9008
  102OSM   H13G10386   2.929   2.504   9.079  0.7495 -0.4012 -0.5132
  102OSM   C14F10387   3.129   2.543   8.988 -0.2341  0.0073  0.3297
  102OSM   H14F10388   3.100   2.642   8.947  1.8526  0.1871 -0.8350
  102OSM   H14G10389   3.115   2.469   8.906  1.3056  0.4154 -0.3370
  102OSM   C15F10390   3.281   2.529   9.034  0.7708 -0.6633  0.2333
  102OSM   H15F10391   3.318   2.426   9.013  1.6155  0.0308 -2.0426
  102OSM   H15G10392   3.283   2.546   9.143 -3.1976 -1.3485  0.5672
  102OSM   C16F10393   3.380   2.622   8.953  0.6378 -0.5118 -0.8217
  102OSM   H16F10394   3.357   2.728   8.979 -2.0097 -1.1876 -0.1068
  102OSM   H16G10395   3.368   2.616   8.843 -1.1629  2.5431 -0.9086
  102OSM   C17F10396   3.524   2.587   8.975  0.0762  0.0383  0.2736
  102OSM   H17F10397   3.582   2.641   8.897  0.2601  2.0625  1.7294
  102OSM   H17G10398   3.539   2.481   8.946  3.9577  0.4585  0.2255
  102OSM   C18F10399   3.579   2.609   9.115  0.3694 -0.1807  0.4171
  102OSM   H18F10400   3.537   2.536   9.188 -0.8057  0.2487  0.1811
  102OSM   H18G10401   3.554   2.712   9.149  0.5103 -0.3876  1.1712
  102OSM   H18H10402   3.690   2.605   9.103  0.2155 -0.6297 -1.0875
  103OSM      N10403   4.276   4.485  11.014  0.3619  0.1977 -0.1324
  103OSM    C1510404   4.238   4.609  11.094 -0.4620 -0.0331  0.4864
  103OSM   H15A10405   4.133   4.631  11.087  0.3443  4.2281 -3.0942
  103OSM   H15B10406   4.281   4.702  11.060  0.6201 -0.4441  0.7035
  103OSM   H15C10407   4.284   4.602  11.191  0.2526  2.3593  0.3664
  103OSM    C1410408   4.424   4.462  11.020 -0.1195  0.4468 -0.4473
  103OSM   H14A10409   4.484   4.548  10.992  2.2337 -0.6606  0.9183
  103OSM   H14B10410   4.458   4.383  10.954  0.8305  1.5770 -1.3707
  103OSM   H14C10411   4.461   4.433  11.117  2.5453  1.4175 -1.0753
  103OSM    C1310412   4.205   4.365  11.061  0.7235  0.0834 -0.3789
  103OSM   H13A10413   4.271   4.318  11.133  0.2537  1.9473  1.3636
  103OSM   H13B10414   4.199   4.290  10.984  0.1157  0.7991 -1.0378
  103OSM   H13C10415   4.105   4.393  11.091  0.1100 -2.3754  0.0732
  103OSM    C1210416   4.239   4.508  10.862  0.5304  0.7997 -0.6152
  103OSM   H12A10417   4.262   4.609  10.831  1.0676  0.3639 -1.6780
  103OSM   H12B10418   4.132   4.502  10.856  0.4808  0.5802  0.2959
  103OSM    C1110419   4.302   4.413  10.760 -0.5911  0.0943 -0.1984
  103OSM   H11A10420   4.412   4.419  10.764 -0.4610 -1.5765 -0.2887
  103OSM   H11B10421   4.276   4.458  10.662  0.5404  1.0370 -0.0823
  103OSM      P10422   4.120   4.233  10.735  0.2853 -0.5689  0.2272
  103OSM    O1310423   4.106   4.096  10.783  0.7462  0.8053 -0.0122
  103OSM    O1410424   4.016   4.328  10.779 -0.8213 -0.2387 -0.6430
  103OSM    O1110425   4.122   4.228  10.576 -0.0412  0.7606 -0.3490
  103OSM    O1210426   4.266   4.277  10.776 -0.0696  0.4094 -0.4254
  103OSM    C1S10427   4.226   4.168  10.494 -0.2761  0.7854 -0.2352
  103OSM    H1S10428   4.246   4.061  10.520  2.1582  0.8459 -1.5149
  103OSM    H1T10429   4.322   4.218  10.521  1.5681 -2.2411 -0.6316
  103OSM     NF10430   4.313   4.115  10.281 -0.2817  0.2887  0.0364
  103OSM    HNF10431   4.384   4.177  10.248 -1.5206  0.7045 -2.0591
  103OSM    C2S10432   4.198   4.178  10.342 -0.1160  0.0030 -0.1555
  103OSM    H2S10433   4.114   4.107  10.326 -1.4849  1.2679  1.1732
  103OSM    C3S10434   4.164   4.328  10.306 -0.5906  0.5022  0.0818
  103OSM    H3S10435   4.249   4.394  10.334 -0.0593 -0.1754  0.1064
  103OSM     O310436   4.042   4.383  10.362  0.5915  0.4418  0.3160
  103OSM    HO310437   4.034   4.338  10.447 -0.1158 -0.4245 -0.1870
  103OSM    C4S10438   4.157   4.335  10.158 -0.1353  0.1528  0.6575
  103OSM    H4S10439   4.255   4.356  10.112  0.0439  0.2860  1.1006
  103OSM    C5S10440   4.049   4.316  10.084 -0.1162  0.0123  0.3154
  103OSM    H5S10441   3.954   4.290  10.134  1.8785 -4.8919  2.2138
  103OSM    C6S10442   4.041   4.317   9.937  0.4063 -0.1754 -0.6062
  103OSM    H6S10443   3.968   4.395   9.905 -0.3488 -0.2652  0.7868
  103OSM    H6T10444   4.004   4.217   9.908  3.6614 -1.2105 -1.6550
  103OSM    C7S10445   4.165   4.334   9.837  0.5258  0.1636 -0.0790
  103OSM    H7S10446   4.239   4.250   9.840  1.8687  1.3355  1.2667
  103OSM    H7T10447   4.216   4.429   9.863 -0.3930  0.0844  2.2653
  103OSM    C8S10448   4.122   4.332   9.686 -0.0463  0.2316 -0.5800
  103OSM    H8S10449   4.065   4.425   9.662  0.9294  0.5024 -1.9509
  103OSM    H8T10450   4.061   4.242   9.661  0.6244 -0.1984 -0.6892
  103OSM    C9S10451   4.247   4.336   9.597 -0.4257  0.0897  0.2102
  103OSM    H9S10452   4.311   4.252   9.633 -1.5769  0.1506  2.6076
  103OSM    H9T10453   4.306   4.428   9.614  1.6218 -1.5002  2.5378
  103OSM   C10S10454   4.205   4.337   9.446  0.7392  0.0031 -0.5770
  103OSM   H10S10455   4.126   4.415   9.437 -1.0134 -1.6881 -0.6849
  103OSM   H10T10456   4.138   4.248   9.444 -0.5255  0.8353  1.3546
  103OSM   C11S10457   4.314   4.336   9.344 -0.4450  0.0254  0.3409
  103OSM   H11S10458   4.378   4.245   9.351  0.1033  0.1810 -1.9583
  103OSM   H11T10459   4.362   4.435   9.360  0.0283 -0.0181 -0.7455
  103OSM   C12S10460   4.254   4.321   9.202  0.3678 -0.6106 -0.6074
  103OSM   H12S10461   4.159   4.378   9.202  0.0045 -1.2102 -0.4432
  103OSM   H12T10462   4.220   4.217   9.183 -0.4790 -0.8231  1.7302
  103OSM   C13S10463   4.342   4.376   9.093 -1.0158  0.1749  0.2098
  103OSM   H13S10464   4.413   4.298   9.057 -0.7973 -0.8000  2.6035
  103OSM   H13T10465   4.392   4.465   9.136  1.7058 -0.5982 -1.0541
  103OSM   C14S10466   4.268   4.423   8.967 -0.0006  0.1768 -0.1421
  103OSM   H14S10467   4.170   4.468   8.996  0.8100  1.8320  0.1765
  103OSM   H14T10468   4.237   4.333   8.910 -2.4860  0.7227  0.2282
  103OSM   C15S10469   4.341   4.520   8.876  0.0147 -0.0662 -0.3667
  103OSM   H15S10470   4.435   4.470   8.844  0.1582 -0.3410  0.4684
  103OSM   H15T10471   4.364   4.612   8.934 -0.9751 -1.3012  2.1476
  103OSM   C16S10472   4.281   4.562   8.744 -0.4244  0.2828  0.2658
  103OSM   H16S10473   4.280   4.475   8.676 -1.9744  0.9292 -0.5865
  103OSM   H16T10474   4.341   4.627   8.677 -2.5221 -0.1683 -2.1957
  103OSM   C17S10475   4.145   4.631   8.759 -1.0285  0.4358  0.1030
  103OSM   H17S10476   4.136   4.697   8.848 -0.0962  1.6477 -0.6772
  103OSM   H17T10477   4.080   4.542   8.776  1.1044 -1.6178 -1.8733
  103OSM   C18S10478   4.094   4.693   8.632 -0.2381  0.0991  0.4381
  103OSM   H18S10479   4.106   4.623   8.546 -1.1366  1.4549 -0.8430
  103OSM   H18T10480   4.158   4.783   8.625  1.3301 -0.9318  0.9678
  103OSM   H18U10481   3.991   4.727   8.657  0.0817 -0.0426  2.0399
  103OSM    C1F10482   4.349   3.986  10.289 -0.2035  0.4496 -0.6790
  103OSM     OF10483   4.265   3.903  10.326 -0.3583 -0.2989 -0.6212
  103OSM    C2F10484   4.495   3.943  10.262  0.6856 -0.6176 -0.2983
  103OSM    H2F10485   4.520   3.889  10.355 -1.3216 -1.3304 -0.1196
  103OSM    H2G10486   4.561   4.031  10.245  1.1043 -0.2615  2.6191
  103OSM    C3F10487   4.516   3.840  10.145  0.1175  0.3753 -0.0430
  103OSM    H3F10488   4.444   3.874  10.068 -0.9519 -3.6871 -1.0827
  103OSM    H3G10489   4.476   3.742  10.179 -0.9571  1.0355  0.6511
  103OSM    C4F10490   4.664   3.841  10.111 -0.2765  0.3765 -1.2948
  103OSM    H4F10491   4.720   3.808  10.201  0.0616 -0.0446 -1.6523
  103OSM    H4G10492   4.692   3.945  10.083  0.5317  0.9654  1.3961
  103OSM    C5F10493   4.703   3.747   9.991  0.0411  0.7005 -0.4666
  103OSM    H5F10494   4.700   3.642  10.025  1.6565  0.7942  0.0550
  103OSM    H5G10495   4.809   3.760   9.962  0.6522 -1.6198  0.5198
  103OSM    C6F10496   4.610   3.758   9.874 -0.5876  0.2868  0.2434
  103OSM    H6F10497   4.616   3.859   9.828  0.0581  0.5246  0.8328
  103OSM    H6G10498   4.504   3.744   9.904 -0.6312 -1.9543 -0.7358
  103OSM    C7F10499   4.654   3.671   9.753 -0.4023  0.2259 -0.2161
  103OSM    H7F10500   4.630   3.565   9.776  2.8786 -0.5607  0.1114
  103OSM    H7G10501   4.764   3.687   9.744  0.1548 -2.9612  0.0284
  103OSM    C8F10502   4.585   3.703   9.616 -0.0486  0.5219 -0.2421
  103OSM    H8F10503   4.493   3.764   9.629 -1.9426 -2.3728  0.8008
  103OSM    H8G10504   4.559   3.601   9.581  2.0742 -0.7598  1.6200
  103OSM    C9F10505   4.670   3.772   9.512 -0.3909 -0.4648  0.4131
  103OSM    H9F10506   4.718   3.853   9.568  0.6659 -3.6288  4.6190
  103OSM   C10F10507   4.694   3.742   9.385  0.3520 -0.6009 -0.5836
  103OSM   H10F10508   4.772   3.793   9.328 -0.3084 -1.9053 -2.7409
  103OSM   C11F10509   4.630   3.634   9.301 -0.0381 -0.3046 -0.4612
  103OSM   H11F10510   4.565   3.562   9.356  0.0479 -2.2635 -2.7793
  103OSM   H11G10511   4.707   3.560   9.270  0.5757  0.8480 -1.7807
  103OSM   C12F10512   4.581   3.699   9.172 -0.1139  0.2871  0.9083
  103OSM   H12F10513   4.654   3.761   9.116  0.1458 -2.3512 -1.9411
  103OSM   H12G10514   4.485   3.753   9.188 -0.7814 -0.6395  0.1550
  103OSM   C13F10515   4.546   3.592   9.070  0.2633  0.5504 -0.2390
  103OSM   H13F10516   4.630   3.524   9.043 -0.1012 -1.2698  2.7310
  103OSM   H13G10517   4.466   3.529   9.115  0.6248 -0.1794 -0.6080
  103OSM   C14F10518   4.492   3.656   8.943  0.7561 -0.5721  0.8393
  103OSM   H14F10519   4.560   3.732   8.900 -1.0402  0.9123  0.4926
  103OSM   H14G10520   4.393   3.705   8.952  0.8743 -0.3624  0.9860
  103OSM   C15F10521   4.471   3.555   8.833 -0.0579 -0.0596 -0.9662
  103OSM   H15F10522   4.397   3.480   8.871  2.5485 -1.4689  1.7618
  103OSM   H15G10523   4.561   3.497   8.804 -0.9006 -1.4688 -0.8579
  103OSM   C16F10524   4.410   3.633   8.714  0.4075 -0.5675 -0.7583
  103OSM   H16F10525   4.488   3.665   8.642  0.1354 -0.5587 -1.0527
  103OSM   H16G10526   4.367   3.729   8.748  1.3536 -0.3613 -0.1383
  103OSM   C17F10527   4.300   3.552   8.642 -0.0061  0.6148  0.1336
  103OSM   H17F10528   4.240   3.613   8.572 -1.3159 -0.5842  0.1726
  103OSM   H17G10529   4.229   3.532   8.725 -0.1321  0.4305 -0.0200
  103OSM   C18F10530   4.347   3.420   8.584 -0.6485  0.3001  0.4951
  103OSM   H18F10531   4.405   3.452   8.494 -1.6651  3.0247  0.7083
  103OSM   H18G10532   4.260   3.357   8.555 -1.5252  1.1751  1.1496
  103OSM   H18H10533   4.406   3.356   8.652 -0.4613 -1.2207 -1.0163
  104OSM      N10534   1.131   4.102  10.741  0.5655 -0.5071 -0.4630
  104OSM    C1510535   1.135   4.251  10.752  0.2693  0.7417 -0.4403
  104OSM   H15A10536   1.234   4.282  10.721  1.6828 -1.6616  1.3063
  104OSM   H15B10537   1.128   4.283  10.855 -2.1489  1.3105 -0.7131
  104OSM   H15C10538   1.063   4.303  10.690  1.5024  2.5390 -0.4333
  104OSM    C1410539   1.241   4.040  10.816 -0.1871  0.4545  0.1441
  104OSM   H14A10540   1.254   4.066  10.920 -0.3239 -2.1749  0.9022
  104OSM   H14B10541   1.339   4.055  10.772  0.9468 -1.8495  1.6837
  104OSM   H14C10542   1.229   3.933  10.820 -2.3856  0.6077 -0.8319
  104OSM    C1310543   1.002   4.066  10.808 -1.0012  0.5012  0.5472
  104OSM   H13A10544   0.997   4.114  10.905  1.7843  1.3195  0.3625
  104OSM   H13B10545   1.008   3.964  10.844  2.0717  0.9549  1.6342
  104OSM   H13C10546   0.914   4.105  10.758 -1.0897  4.0879  3.0793
  104OSM    C1210547   1.133   4.064  10.590  0.1123 -0.3561  0.1107
  104OSM   H12A10548   1.094   3.963  10.587 -3.6925  0.9870 -0.9201
  104OSM   H12B10549   1.235   4.065  10.555 -0.4817 -2.7191 -1.9581
  104OSM    C1110550   1.040   4.153  10.490 -0.7806  0.2859 -0.3691
  104OSM   H11A10551   0.937   4.138  10.532 -0.4094 -1.7660 -0.0487
  104OSM   H11B10552   1.048   4.106  10.390  0.0472  1.6304 -0.9517
  104OSM      P10553   0.964   4.395  10.440  0.0513 -0.2559 -0.5200
  104OSM    O1310554   0.824   4.360  10.483 -0.8469  0.0813  0.5056
  104OSM    O1410555   1.012   4.526  10.478  0.4859 -0.5295 -0.6731
  104OSM    O1110556   0.974   4.386  10.281 -0.0960  0.1688  0.0516
  104OSM    O1210557   1.075   4.290  10.487 -0.4451 -0.2114 -0.3348
  104OSM    C1S10558   1.091   4.316  10.230  0.3391 -0.1037  0.3008
  104OSM    H1S10559   1.065   4.210  10.209  0.1980 -0.2952  1.3673
  104OSM    H1T10560   1.184   4.326  10.290  0.5980  1.1012 -0.2936
  104OSM     NF10561   1.222   4.297  10.013  0.0697 -0.2754 -0.4931
  104OSM    HNF10562   1.321   4.311  10.009  0.0840 -0.5940 -2.3853
  104OSM    C2S10563   1.131   4.383  10.088  0.6686  0.4978 -0.7442
  104OSM    H2S10564   1.031   4.385  10.038 -0.4985  0.4259  1.4888
  104OSM    C3S10565   1.172   4.525  10.103 -0.9505  0.0157 -0.1315
  104OSM    H3S10566   1.265   4.522  10.164 -0.4532 -1.8648 -0.9029
  104OSM     O310567   1.085   4.613  10.175 -0.2852  0.1027 -0.4040
  104OSM    HO310568   1.031   4.546  10.217  0.6358 -1.3290 -1.4337
  104OSM    C4S10569   1.209   4.593   9.976 -0.1849  0.3041 -0.0008
  104OSM    H4S10570   1.134   4.571   9.898 -0.2138  0.5977 -0.0575
  104OSM    C5S10571   1.318   4.662   9.935  0.0478 -0.4374 -0.9064
  104OSM    H5S10572   1.411   4.662   9.994 -0.6625 -1.0346  0.2329
  104OSM    C6S10573   1.327   4.743   9.808  0.7970  0.4698 -0.7186
  104OSM    H6S10574   1.430   4.780   9.792  0.5378  1.5727  0.0601
  104OSM    H6T10575   1.257   4.828   9.822  0.5938  0.5168 -1.8784
  104OSM    C7S10576   1.285   4.666   9.669 -0.3692 -0.4417 -0.1821
  104OSM    H7S10577   1.188   4.613   9.681 -0.8884  0.5472  0.1279
  104OSM    H7T10578   1.367   4.595   9.646  0.2116 -0.4076  1.6457
  104OSM    C8S10579   1.277   4.765   9.543  0.3605 -0.0709  0.2061
  104OSM    H8S10580   1.372   4.821   9.529  0.1340  0.1143 -0.6480
  104OSM    H8T10581   1.204   4.844   9.571 -0.9836 -1.5840  1.1890
  104OSM    C9S10582   1.232   4.689   9.418 -0.2105 -0.9104  0.4466
  104OSM    H9S10583   1.129   4.647   9.425 -0.7563  0.2262 -0.5051
  104OSM    H9T10584   1.303   4.604   9.407  1.2395  0.4752 -1.4866
  104OSM   C10S10585   1.229   4.780   9.289  0.0369 -0.2732  0.3115
  104OSM   H10S10586   1.336   4.800   9.270 -0.2014 -0.0571 -0.9040
  104OSM   H10T10587   1.173   4.872   9.314 -0.7959 -0.1120 -1.8837
  104OSM   C11S10588   1.161   4.705   9.176  0.0682 -0.3484 -0.2106
  104OSM   H11S10589   1.054   4.706   9.206  0.0206 -3.3382 -0.0073
  104OSM   H11T10590   1.189   4.597   9.176 -3.0060 -1.2761  1.8619
  104OSM   C12S10591   1.179   4.777   9.034 -0.3386  0.2820 -0.3990
  104OSM   H12S10592   1.282   4.763   8.993 -0.3757 -0.7837 -0.1796
  104OSM   H12T10593   1.153   4.885   9.032  0.3175  0.4395 -1.9214
  104OSM   C13S10594   1.085   4.719   8.922  0.2819 -0.6845  0.3537
  104OSM   H13S10595   0.983   4.756   8.945  1.2060  0.9979  1.9848
  104OSM   H13T10596   1.082   4.609   8.936 -0.2502 -0.6769  0.3202
  104OSM   C14S10597   1.129   4.748   8.778  0.3095  0.3478  0.1933
  104OSM   H14S10598   1.220   4.690   8.752 -0.6686 -0.2893 -2.0195
  104OSM   H14T10599   1.157   4.852   8.755  1.8766 -0.3581 -1.3182
  104OSM   C15S10600   1.023   4.700   8.682 -0.1540  0.5093 -0.2200
  104OSM   H15S10601   0.919   4.733   8.701 -0.7651 -0.5127 -1.6475
  104OSM   H15T10602   1.017   4.591   8.702 -0.3696  1.0231  3.1098
  104OSM   C16S10603   1.076   4.736   8.542  0.4348 -0.3056  0.1361
  104OSM   H16S10604   1.185   4.713   8.540  0.3539 -0.8452  1.1297
  104OSM   H16T10605   1.078   4.844   8.517 -0.4350 -0.6328 -1.4666
  104OSM   C17S10606   0.995   4.668   8.430  0.7447  0.0572  0.1259
  104OSM   H17S10607   1.033   4.719   8.339  1.7785 -1.5298 -0.3823
  104OSM   H17T10608   0.890   4.702   8.442  1.0099  1.7195 -1.7215
  104OSM   C18S10609   1.006   4.522   8.419 -0.2268  0.0944 -0.4551
  104OSM   H18S10610   0.961   4.483   8.325 -0.3994  0.8093 -0.6788
  104OSM   H18T10611   0.965   4.469   8.507  4.0320 -1.2619  0.9323
  104OSM   H18U10612   1.110   4.486   8.413  0.4339  1.2741  2.3250
  104OSM    C1F10613   1.169   4.195   9.944 -0.2890  0.7693 -0.4040
  104OSM     OF10614   1.053   4.160   9.961 -0.9203 -0.5319  0.2489
  104OSM    C2F10615   1.262   4.109   9.858  0.4607 -0.0161  0.3896
  104OSM    H2F10616   1.201   4.024   9.820  0.0288  1.3790 -2.2530
  104OSM    H2G10617   1.351   4.067   9.910 -0.3723 -0.3501  1.5962
  104OSM    C3F10618   1.312   4.184   9.729  0.1544  0.1869  0.4795
  104OSM    H3F10619   1.336   4.100   9.659 -1.3397 -0.3875  0.6135
  104OSM    H3G10620   1.399   4.251   9.745  1.4845 -0.1184 -3.9773
  104OSM    C4F10621   1.208   4.261   9.643 -0.5157 -0.3618 -0.3159
  104OSM    H4F10622   1.147   4.338   9.694  0.4908 -0.1230  0.5634
  104OSM    H4G10623   1.133   4.183   9.615 -0.8741 -0.3647  0.6305
  104OSM    C5F10624   1.263   4.322   9.510 -0.0884 -0.6837 -0.4000
  104OSM    H5F10625   1.324   4.408   9.545 -1.9108  0.7601 -0.6492
  104OSM    H5G10626   1.179   4.368   9.454  1.7440  3.8981  0.1347
  104OSM    C6F10627   1.344   4.224   9.422  0.0596 -0.0934 -0.2451
  104OSM    H6F10628   1.272   4.150   9.382 -0.6135  1.2435 -1.6313
  104OSM    H6G10629   1.419   4.172   9.486 -1.0982 -0.3095  0.9697
  104OSM    C7F10630   1.409   4.279   9.292  0.2290  0.0666  0.6902
  104OSM    H7F10631   1.445   4.185   9.245 -2.7776 -0.1396 -1.5720
  104OSM    H7G10632   1.490   4.349   9.320 -0.6632  1.9862 -1.2258
  104OSM    C8F10633   1.318   4.350   9.187 -0.1273  0.3288  0.0754
  104OSM    H8F10634   1.386   4.393   9.110  2.0545 -0.6989  1.3233
  104OSM    H8G10635   1.270   4.438   9.235 -4.1877 -0.5195 -1.9472
  104OSM    C9F10636   1.214   4.259   9.136 -0.4520 -0.0912 -0.0556
  104OSM    H9F10637   1.120   4.259   9.194  0.5543  3.6694  1.9402
  104OSM   C10F10638   1.208   4.199   9.015 -0.0572 -0.4053  0.3230
  104OSM   H10F10639   1.113   4.152   8.988 -0.4618  0.6135 -0.1033
  104OSM   C11F10640   1.301   4.206   8.896  0.2297 -0.2807 -0.1021
  104OSM   H11F10641   1.289   4.104   8.853 -3.0138 -1.3517  2.9041
  104OSM   H11G10642   1.403   4.237   8.927 -1.0166  2.8631  1.3483
  104OSM   C12F10643   1.265   4.332   8.809 -0.5113  0.3274 -0.6425
  104OSM   H12F10644   1.292   4.427   8.858 -0.2961  1.5463 -2.9763
  104OSM   H12G10645   1.157   4.328   8.785 -0.2381  1.1872 -2.1755
  104OSM   C13F10646   1.343   4.329   8.674  0.3171  0.7214  0.0956
  104OSM   H13F10647   1.450   4.320   8.702  0.2020 -1.6468 -0.0079
  104OSM   H13G10648   1.328   4.423   8.617 -1.1609  0.5556  0.1677
  104OSM   C14F10649   1.306   4.215   8.580 -0.2909  0.4400 -0.7313
  104OSM   H14F10650   1.195   4.211   8.577 -0.3427 -3.1684  0.8100
  104OSM   H14G10651   1.335   4.114   8.616 -1.1255 -0.0616 -1.4216
  104OSM   C15F10652   1.352   4.230   8.438  0.2400  0.6657 -0.0344
  104OSM   H15F10653   1.461   4.222   8.459  0.2809  1.4115  0.0690
  104OSM   H15G10654   1.324   4.333   8.409  0.8703  1.0382  0.6509
  104OSM   C16F10655   1.282   4.139   8.347 -0.1456  0.0091  0.4530
  104OSM   H16F10656   1.180   4.172   8.316  0.5947  0.6158 -1.4462
  104OSM   H16G10657   1.288   4.037   8.392 -1.4294 -1.5163 -2.5599
  104OSM   C17F10658   1.365   4.137   8.218 -0.5188  0.3339  0.3025
  104OSM   H17F10659   1.349   4.234   8.165 -0.5502 -0.5903 -1.4537
  104OSM   H17G10660   1.323   4.063   8.146 -0.6151  1.0204 -0.3656
  104OSM   C18F10661   1.516   4.118   8.228  0.2284 -0.1035  0.6517
  104OSM   H18F10662   1.577   4.196   8.278  1.7779 -1.2370  0.5706
  104OSM   H18G10663   1.564   4.113   8.128  2.0680  0.5123  1.4583
  104OSM   H18H10664   1.539   4.020   8.275 -0.6014  0.1899  1.7264
  105OSM      N10665   1.780   3.649  10.584 -0.4406  0.8123  0.9495
  105OSM    C1510666   1.754   3.730  10.710  0.0269  0.0040  0.5264
  105OSM   H15A10667   1.679   3.692  10.778  0.3950 -0.3390  0.7480
  105OSM   H15B10668   1.709   3.825  10.688 -1.8897 -0.8248  0.6301
  105OSM   H15C10669   1.846   3.761  10.756 -1.1579  1.1631  2.2639
  105OSM    C1410670   1.834   3.520  10.627 -0.5216 -0.1107  0.2043
  105OSM   H14A10671   1.765   3.472  10.694 -0.2931 -2.3964 -1.0914
  105OSM   H14B10672   1.924   3.530  10.685 -0.3215  0.0862 -0.1342
  105OSM   H14C10673   1.860   3.445  10.553 -0.2831  0.1627  0.0042
  105OSM    C1310674   1.646   3.619  10.522  0.2619  0.0668 -0.7295
  105OSM   H13A10675   1.607   3.718  10.503 -0.0834  1.2668  4.6760
  105OSM   H13B10676   1.585   3.565  10.593  1.5416 -1.2376 -0.5921
  105OSM   H13C10677   1.644   3.560  10.432  1.6622 -2.1214  0.5859
  105OSM    C1210678   1.876   3.722  10.489 -0.2550 -0.1118 -0.3745
  105OSM   H12A10679   1.878   3.684  10.388  0.6887  1.0337 -0.8048
  105OSM   H12B10680   1.974   3.713  10.533 -0.8733 -3.3254  0.5377
  105OSM    C1110681   1.850   3.872  10.468 -0.3005  0.6348 -0.3375
  105OSM   H11A10682   1.743   3.888  10.442 -0.5997  0.7373  0.9270
  105OSM   H11B10683   1.917   3.890  10.381  0.9684  2.7345  0.9887
  105OSM      P10684   1.859   4.111  10.554 -0.2406  0.7587 -0.0278
  105OSM    O1310685   1.716   4.134  10.557 -0.4733 -0.4718 -0.4175
  105OSM    O1410686   1.945   4.184  10.647 -0.9846 -0.2041  0.4176
  105OSM    O1110687   1.915   4.119  10.404  0.2314 -0.0758 -0.1821
  105OSM    O1210688   1.892   3.961  10.573  0.2068 -0.1010 -0.6412
  105OSM    C1S10689   2.059   4.129  10.390  0.1464 -0.1041 -0.0539
  105OSM    H1S10690   2.107   4.051  10.453 -0.8658  0.8949  2.0939
  105OSM    H1T10691   2.100   4.228  10.419  2.0493 -0.7997 -0.2876
  105OSM     NF10692   2.254   4.067  10.258 -0.2817 -0.3510 -0.6554
  105OSM    HNF10693   2.319   4.140  10.240 -0.6434  0.0184 -0.4759
  105OSM    C2S10694   2.114   4.105  10.243 -0.2329  0.1640 -0.8521
  105OSM    H2S10695   2.051   4.022  10.204 -1.4887  0.0727  1.2251
  105OSM    C3S10696   2.089   4.235  10.167 -0.1669  0.8782  0.3244
  105OSM    H3S10697   2.148   4.313  10.221  1.6468  0.8254 -1.4431
  105OSM     O310698   1.949   4.273  10.167 -0.0678  0.1338 -0.7846
  105OSM    HO310699   1.891   4.202  10.196 -2.3809  1.5145 -1.7476
  105OSM    C4S10700   2.137   4.222  10.023  0.2075 -0.8370  0.0077
  105OSM    H4S10701   2.229   4.278  10.002 -0.2862 -1.0717 -3.2771
  105OSM    C5S10702   2.085   4.152   9.923 -0.4239  0.7345  0.3864
  105OSM    H5S10703   1.992   4.094   9.936 -0.1683  0.0380 -0.7114
  105OSM    C6S10704   2.131   4.139   9.779  0.0078 -0.2288  0.2535
  105OSM    H6S10705   2.057   4.192   9.715  0.1683 -1.3976 -0.9542
  105OSM    H6T10706   2.120   4.035   9.741 -1.8866 -0.0557  0.2526
  105OSM    C7S10707   2.275   4.190   9.745 -0.1441  0.8259  0.4268
  105OSM    H7S10708   2.361   4.138   9.792  0.4404  1.6847  0.3393
  105OSM    H7T10709   2.284   4.297   9.774  0.4120  0.7942  0.3885
  105OSM    C8S10710   2.298   4.169   9.592 -0.2293 -0.4168 -0.2810
  105OSM    H8S10711   2.227   4.239   9.542 -1.5815 -0.2975  1.7017
  105OSM    H8T10712   2.272   4.067   9.557 -1.3721 -0.7386  1.3712
  105OSM    C9S10713   2.449   4.201   9.562  0.3195  0.1690  0.0819
  105OSM    H9S10714   2.511   4.172   9.650  0.9312 -0.7630 -0.6451
  105OSM    H9T10715   2.456   4.312   9.554 -0.9183  0.2146 -0.6787
  105OSM   C10S10716   2.503   4.131   9.439  0.4483 -0.1709 -0.5143
  105OSM   H10S10717   2.510   4.022   9.461  2.9148  0.1979  0.7890
  105OSM   H10T10718   2.607   4.169   9.430  1.1516 -2.1020 -0.9284
  105OSM   C11S10719   2.427   4.157   9.312  0.1253 -0.0053  0.7036
  105OSM   H11S10720   2.423   4.265   9.290 -0.9290 -0.3523 -1.0614
  105OSM   H11T10721   2.324   4.115   9.311  0.1528 -0.0926 -1.0615
  105OSM   C12S10722   2.498   4.093   9.189 -0.0447 -0.1692  0.2150
  105OSM   H12S10723   2.482   3.983   9.188  0.7792 -0.3422  1.9989
  105OSM   H12T10724   2.609   4.097   9.194  0.0250  2.0931 -1.4703
  105OSM   C13S10725   2.443   4.139   9.052 -0.1686 -0.6325 -0.3987
  105OSM   H13S10726   2.445   4.250   9.053 -3.2942 -0.4624 -0.6959
  105OSM   H13T10727   2.334   4.113   9.050 -0.5149  0.7618 -0.7016
  105OSM   C14S10728   2.511   4.068   8.932  0.0221  1.4362 -1.5102
  105OSM   H14S10729   2.507   3.958   8.948  1.6108  1.6813  1.1797
  105OSM   H14T10730   2.614   4.108   8.934  0.0471  1.3914  0.9206
  105OSM   C15S10731   2.467   4.112   8.794  0.1173  0.3085  0.5289
  105OSM   H15S10732   2.475   4.223   8.794 -0.5086  0.3607  1.1322
  105OSM   H15T10733   2.358   4.090   8.788  0.1564 -0.3503  1.9312
  105OSM   C16S10734   2.557   4.068   8.675  0.1094  0.1124 -0.1533
  105OSM   H16S10735   2.512   4.115   8.585  0.6260  1.1298  0.1074
  105OSM   H16T10736   2.563   3.957   8.674 -0.5400  0.0661  0.0296
  105OSM   C17S10737   2.703   4.110   8.690 -0.5625 -0.2711  0.8237
  105OSM   H17S10738   2.752   4.045   8.765 -2.1507 -2.1618  0.3085
  105OSM   H17T10739   2.703   4.215   8.727 -0.2055  0.4007 -0.9669
  105OSM   C18S10740   2.788   4.113   8.551  0.1282 -0.7249 -0.8849
  105OSM   H18S10741   2.727   4.182   8.488 -1.1833 -1.7121 -0.7391
  105OSM   H18T10742   2.792   4.011   8.508 -2.0215 -1.8537  1.2920
  105OSM   H18U10743   2.883   4.159   8.583 -0.1622  1.0672 -2.4193
  105OSM    C1F10744   2.291   3.940  10.283  0.2664 -0.1895  0.5586
  105OSM     OF10745   2.206   3.851  10.297 -0.3032 -0.8842  0.0048
  105OSM    C2F10746   2.440   3.914  10.288  0.4592  0.1099  0.2322
  105OSM    H2F10747   2.467   3.850  10.374  1.4071 -0.8766 -0.7605
  105OSM    H2G10748   2.501   4.008  10.284 -0.5535  0.7450 -1.4089
  105OSM    C3F10749   2.487   3.817  10.165  0.6417 -0.3192 -0.7187
  105OSM    H3F10750   2.463   3.874  10.072 -0.9357 -0.9243 -0.7010
  105OSM    H3G10751   2.433   3.721  10.158  1.7841 -1.0489  0.0664
  105OSM    C4F10752   2.637   3.793  10.166  0.6163  0.2062 -0.2709
  105OSM    H4F10753   2.651   3.718  10.247  1.1719  0.8685  0.2571
  105OSM    H4G10754   2.692   3.883  10.202 -2.8404  2.2582  0.3839
  105OSM    C5F10755   2.698   3.740  10.031  0.5212  0.4158 -0.3825
  105OSM    H5F10756   2.654   3.639  10.037 -0.7353  1.0107  3.2206
  105OSM    H5G10757   2.804   3.738  10.064  0.4026 -0.8681 -0.0381
  105OSM    C6F10758   2.677   3.829   9.901 -0.0837  0.6051 -0.2170
  105OSM    H6F10759   2.747   3.913   9.921  0.1850  0.7719 -1.7466
  105OSM    H6G10760   2.570   3.861   9.897 -0.2746  0.2339  1.2470
  105OSM    C7F10761   2.724   3.744   9.780 -0.2958 -0.9572  0.3368
  105OSM    H7F10762   2.683   3.642   9.792 -1.3376 -0.5865  0.0871
  105OSM    H7G10763   2.834   3.730   9.787 -0.1713  0.2060  1.0271
  105OSM    C8F10764   2.680   3.800   9.644 -0.1026 -0.1669 -0.2638
  105OSM    H8F10765   2.570   3.800   9.631 -0.2069 -2.2352  0.2964
  105OSM    H8G10766   2.713   3.719   9.575  0.7578 -1.5016  1.6044
  105OSM    C9F10767   2.743   3.938   9.621 -0.1498  0.3540  0.3753
  105OSM    H9F10768   2.725   4.006   9.706  1.3341 -1.1165  1.9414
  105OSM   C10F10769   2.826   3.971   9.519  0.1920 -0.5835  0.3574
  105OSM   H10F10770   2.848   4.078   9.503  0.8864 -0.4931  1.7692
  105OSM   C11F10771   2.857   3.876   9.411  0.4343  0.2094  0.5365
  105OSM   H11F10772   2.915   3.786   9.441  0.5257 -1.1379 -3.1945
  105OSM   H11G10773   2.938   3.920   9.349 -1.1379 -1.9247 -3.3444
  105OSM   C12F10774   2.751   3.840   9.312 -0.2035  0.9279  0.0948
  105OSM   H12F10775   2.716   3.938   9.274 -1.7600  0.4428  0.2324
  105OSM   H12G10776   2.670   3.779   9.356 -0.2161 -0.0191 -1.1846
  105OSM   C13F10777   2.810   3.755   9.201 -0.2807  0.0628 -0.3271
  105OSM   H13F10778   2.846   3.658   9.241  0.7564 -0.1976 -1.7698
  105OSM   H13G10779   2.900   3.791   9.147 -0.6736  0.4778 -0.7210
  105OSM   C14F10780   2.700   3.706   9.097  0.2717  0.2970  0.1947
  105OSM   H14F10781   2.677   3.789   9.027  3.4107  0.4715 -0.8195
  105OSM   H14G10782   2.612   3.688   9.162  1.3678  2.1722  2.3534
  105OSM   C15F10783   2.735   3.576   9.021 -0.1373  0.7010  0.8226
  105OSM   H15F10784   2.638   3.528   8.997 -0.3348  2.6111 -2.9417
  105OSM   H15G10785   2.794   3.505   9.084  1.2790  0.8430 -0.2721
  105OSM   C16F10786   2.814   3.605   8.892 -0.3767  0.0176 -0.4051
  105OSM   H16F10787   2.860   3.509   8.858  0.2196 -0.8988  2.6999
  105OSM   H16G10788   2.894   3.678   8.914  2.6385 -1.5327 -4.8469
  105OSM   C17F10789   2.730   3.663   8.779 -0.3481 -0.0767 -0.5292
  105OSM   H17F10790   2.672   3.754   8.806 -2.0852 -1.5369  0.8312
  105OSM   H17G10791   2.660   3.589   8.737  1.3868 -1.1266 -1.6721
  105OSM   C18F10792   2.831   3.713   8.671 -0.4970  0.3477 -0.5762
  105OSM   H18F10793   2.901   3.633   8.638 -0.6668  0.1634 -0.4923
  105OSM   H18G10794   2.891   3.797   8.712 -0.5255  0.6205 -1.0802
  105OSM   H18H10795   2.788   3.752   8.576 -2.4692  0.2814  0.2451
  106OSM      N10796   2.209   1.821  10.669  0.4576 -0.0801  0.3255
  106OSM    C1510797   2.252   1.957  10.697  0.0683 -1.0827  0.0292
  106OSM   H15A10798   2.208   1.977  10.794 -0.6082 -2.0753 -0.0593
  106OSM   H15B10799   2.223   2.036  10.630 -3.3252  1.0697  3.6242
  106OSM   H15C10800   2.360   1.964  10.708  0.0425 -0.2661 -0.2215
  106OSM    C1410801   2.251   1.774  10.535  0.2566 -0.0003 -0.8222
  106OSM   H14A10802   2.357   1.753  10.535  0.7115  2.0360 -1.1213
  106OSM   H14B10803   2.231   1.844  10.455 -1.0735 -0.7374 -1.1763
  106OSM   H14C10804   2.206   1.679  10.509  1.8251 -0.9493 -0.1571
  106OSM    C1310805   2.268   1.736  10.770 -0.0336  0.2917 -0.0281
  106OSM   H13A10806   2.231   1.635  10.760 -2.2492  1.0315  0.1885
  106OSM   H13B10807   2.231   1.763  10.868 -0.8817 -2.4968  0.5251
  106OSM   H13C10808   2.375   1.740  10.763  0.2744 -3.1130  0.6174
  106OSM    C1210809   2.057   1.822  10.671  0.3078 -0.6322  0.1943
  106OSM   H12A10810   2.030   1.718  10.664 -0.8805 -0.4682  1.9613
  106OSM   H12B10811   2.029   1.869  10.578  2.1062 -0.3369 -0.2280
  106OSM    C1110812   1.988   1.878  10.792 -1.0055 -0.3959  0.5604
  106OSM   H11A10813   2.018   1.825  10.885  0.2494 -0.0857  0.3487
  106OSM   H11B10814   1.879   1.862  10.776 -0.6378 -0.3119 -2.6516
  106OSM      P10815   1.946   2.123  10.721  0.2330 -0.0372 -0.2941
  106OSM    O1310816   1.824   2.162  10.791  0.2062 -0.1063  0.4106
  106OSM    O1410817   2.044   2.226  10.685  0.0021  0.2214 -0.1908
  106OSM    O1110818   1.897   2.052  10.592  0.2682  0.3411  0.1352
  106OSM    O1210819   2.017   2.012  10.811  0.6721  0.4006 -0.1214
  106OSM    C1S10820   1.757   2.055  10.555 -0.4821  0.1500  0.6946
  106OSM    H1S10821   1.707   2.152  10.581 -1.2968 -0.9293  3.5803
  106OSM    H1T10822   1.703   1.970  10.601 -1.1208  0.5438  0.6961
  106OSM     NF10823   1.606   2.027  10.355 -0.2706 -0.1423 -0.4353
  106OSM    HNF10824   1.570   1.935  10.344 -0.8019  0.0753 -0.5527
  106OSM    C2S10825   1.742   2.038  10.395  0.0869  0.7282 -0.1038
  106OSM    H2S10826   1.783   2.130  10.347 -0.1165  0.4201 -0.8851
  106OSM    C3S10827   1.852   1.932  10.339 -0.2900  0.2713  0.2665
  106OSM    H3S10828   1.834   1.835  10.391 -0.2477 -0.8147 -1.6344
  106OSM     O310829   1.987   1.972  10.369 -0.1402 -0.1126  0.0852
  106OSM    HO310830   1.973   2.037  10.438 -0.5024 -0.8096  0.6862
  106OSM    C4S10831   1.853   1.916  10.194 -0.9694  0.1854  1.3029
  106OSM    H4S10832   1.897   1.992  10.128 -2.2222 -1.0769 -1.1164
  106OSM    C5S10833   1.797   1.801  10.134  0.4877 -0.6426  0.5073
  106OSM    H5S10834   1.749   1.742  10.214 -0.9838 -0.0419  0.0956
  106OSM    C6S10835   1.789   1.757   9.995  0.1096  0.4554 -0.2744
  106OSM    H6S10836   1.686   1.717   9.982  1.0788 -1.9945 -1.0933
  106OSM    H6T10837   1.861   1.676   9.971 -0.8765 -0.6344  0.3473
  106OSM    C7S10838   1.814   1.876   9.896  0.2848  0.7653 -0.2793
  106OSM    H7S10839   1.915   1.918   9.914  1.4270 -1.7978 -0.3113
  106OSM    H7T10840   1.740   1.956   9.918  0.1065  0.4155  0.4286
  106OSM    C8S10841   1.790   1.839   9.751  0.7682 -0.1353 -0.2706
  106OSM    H8S10842   1.691   1.788   9.748  2.3564 -3.5033  0.2643
  106OSM    H8T10843   1.866   1.762   9.723 -1.3112 -1.7094 -1.9533
  106OSM    C9S10844   1.790   1.963   9.656  0.0826 -0.5661 -0.7500
  106OSM    H9S10845   1.887   2.016   9.652  0.2456 -0.6472  1.2399
  106OSM    H9T10846   1.704   2.029   9.679 -0.4992 -2.2781  2.6254
  106OSM   C10S10847   1.774   1.909   9.509  0.7200 -0.2876 -0.3274
  106OSM   H10S10848   1.672   1.868   9.503  0.4634  0.0095  1.5393
  106OSM   H10T10849   1.849   1.828   9.499  0.2155 -0.5397 -2.5874
  106OSM   C11S10850   1.789   2.014   9.401  0.0324  0.2398  0.1322
  106OSM   H11S10851   1.898   2.036   9.403  0.0249  0.1989  1.7269
  106OSM   H11T10852   1.727   2.104   9.422  0.6585  0.7582 -0.1978
  106OSM   C12S10853   1.747   1.953   9.267 -0.1771  0.4199 -0.2979
  106OSM   H12S10854   1.655   1.893   9.272  0.9702 -1.3130  1.5715
  106OSM   H12T10855   1.830   1.887   9.234 -1.6491 -1.9060  0.4379
  106OSM   C13S10856   1.745   2.055   9.150 -0.1253  0.4633  0.1223
  106OSM   H13S10857   1.844   2.094   9.118  0.7281 -1.6344  0.0648
  106OSM   H13T10858   1.681   2.141   9.181 -0.6846 -0.6455  2.1943
  106OSM   C14S10859   1.692   1.999   9.027 -0.2467  0.6047 -0.8587
  106OSM   H14S10860   1.599   1.941   9.044 -0.2140  0.4515 -1.2010
  106OSM   H14T10861   1.768   1.924   8.998 -0.5288 -0.3889  0.8511
  106OSM   C15S10862   1.678   2.105   8.923 -0.4274  0.2629  0.5379
  106OSM   H15S10863   1.786   2.133   8.915 -0.7356  1.9154  1.5412
  106OSM   H15T10864   1.622   2.199   8.940  0.8737  1.7102 -2.4700
  106OSM   C16S10865   1.633   2.032   8.788  0.9893 -0.7626  0.2311
  106OSM   H16S10866   1.538   1.987   8.823  0.1063  0.3148 -0.6776
  106OSM   H16T10867   1.700   1.946   8.766  0.8482 -1.4703  2.3645
  106OSM   C17S10868   1.635   2.131   8.671  0.2647  0.2223 -0.1506
  106OSM   H17S10869   1.569   2.215   8.700 -0.1763 -0.3655  0.5979
  106OSM   H17T10870   1.594   2.074   8.585 -0.8571  1.8276 -0.7288
  106OSM   C18S10871   1.774   2.180   8.643  0.1461 -0.0065  0.2068
  106OSM   H18S10872   1.848   2.098   8.657 -0.6245 -0.6978  0.3036
  106OSM   H18T10873   1.813   2.253   8.717 -0.6372  1.6414 -0.9389
  106OSM   H18U10874   1.777   2.212   8.536 -2.0365 -0.5946 -0.0890
  106OSM    C1F10875   1.519   2.130  10.361  0.1856  0.0111  0.0197
  106OSM     OF10876   1.557   2.247  10.392  0.4394  0.0588 -0.2467
  106OSM    C2F10877   1.372   2.104  10.341 -0.1269  0.1778  0.0155
  106OSM    H2F10878   1.325   2.123  10.440  0.1129 -0.1715  0.1986
  106OSM    H2G10879   1.358   1.999  10.308 -1.1778  0.5158 -0.6685
  106OSM    C3F10880   1.316   2.192  10.226  0.4713 -0.5855  0.2192
  106OSM    H3F10881   1.296   2.297  10.257  0.3600 -0.1017 -1.3792
  106OSM    H3G10882   1.218   2.148  10.197  0.9699 -1.7434  0.2511
  106OSM    C4F10883   1.414   2.192  10.107  0.4646  0.2943 -0.0146
  106OSM    H4F10884   1.436   2.086  10.085  0.1806  0.4076 -0.8448
  106OSM    H4G10885   1.507   2.253  10.120  0.3514  0.7696 -1.3050
  106OSM    C5F10886   1.348   2.247   9.977  0.2435  0.1367  0.0632
  106OSM    H5F10887   1.311   2.348  10.006  1.0366  0.2842  0.5976
  106OSM    H5G10888   1.259   2.185   9.952  0.1024  0.5801 -0.5454
  106OSM    C6F10889   1.430   2.261   9.855  0.4998  0.5136  0.8591
  106OSM    H6F10890   1.466   2.158   9.834 -1.1333  0.3251 -1.3607
  106OSM    H6G10891   1.521   2.316   9.886  2.9848 -2.4079 -0.7317
  106OSM    C7F10892   1.366   2.332   9.734  0.7329 -0.5128 -0.8800
  106OSM    H7F10893   1.301   2.414   9.771  1.1275  0.8741 -3.0576
  106OSM    H7G10894   1.293   2.275   9.673 -0.4531 -1.3539  1.2237
  106OSM    C8F10895   1.475   2.401   9.651 -0.0138 -1.2593  0.7888
  106OSM    H8F10896   1.554   2.439   9.720  1.3990  1.0045 -1.8718
  106OSM    H8G10897   1.423   2.489   9.606  0.5547 -1.6873 -0.7564
  106OSM    C9F10898   1.517   2.318   9.534  0.0152 -0.1862  0.5373
  106OSM    H9F10899   1.543   2.219   9.574 -2.4814 -1.3135 -0.4377
  106OSM   C10F10900   1.539   2.335   9.401  0.5522 -0.0754  0.8462
  106OSM   H10F10901   1.565   2.249   9.338 -2.9920 -1.7095  1.3626
  106OSM   C11F10902   1.510   2.458   9.320 -0.6180 -0.6573  0.8952
  106OSM   H11F10903   1.593   2.489   9.254  0.3278 -2.0931  1.3563
  106OSM   H11G10904   1.486   2.537   9.394 -0.6264  0.2605 -0.0699
  106OSM   C12F10905   1.380   2.440   9.233 -0.6475  0.1210  0.3103
  106OSM   H12F10906   1.355   2.539   9.189  0.7769 -0.0886 -1.0730
  106OSM   H12G10907   1.296   2.395   9.289 -1.1383 -1.9028 -1.9353
  106OSM   C13F10908   1.414   2.342   9.114  0.2480 -0.1931  0.2102
  106OSM   H13F10909   1.423   2.241   9.159 -1.2625 -0.2888  0.3381
  106OSM   H13G10910   1.514   2.367   9.072 -1.2196  2.1002 -2.2604
  106OSM   C14F10911   1.300   2.333   9.004 -1.1207  0.0140  0.1299
  106OSM   H14F10912   1.300   2.432   8.954  1.0176 -1.1546 -2.4495
  106OSM   H14G10913   1.199   2.323   9.049 -2.7737  2.6176 -2.5925
  106OSM   C15F10914   1.314   2.217   8.905 -0.3910 -0.2977  0.1450
  106OSM   H15F10915   1.338   2.123   8.960  1.0281 -0.5006 -0.7617
  106OSM   H15G10916   1.401   2.232   8.838  1.4773 -1.9727  2.0385
  106OSM   C16F10917   1.183   2.200   8.828  0.6048 -0.7091  0.8467
  106OSM   H16F10918   1.103   2.205   8.905  1.6498 -0.2960  1.9192
  106OSM   H16G10919   1.166   2.100   8.781 -0.7201 -0.4340  0.6916
  106OSM   C17F10920   1.159   2.306   8.718  0.2021  0.0324  0.4729
  106OSM   H17F10921   1.230   2.276   8.637  1.5595 -0.4739  1.7983
  106OSM   H17G10922   1.188   2.410   8.743  2.5993 -0.2344 -0.8858
  106OSM   C18F10923   1.020   2.290   8.653 -0.1133  0.7146  0.7145
  106OSM   H18F10924   1.020   2.322   8.546  0.3194 -1.9906 -0.1699
  106OSM   H18G10925   0.940   2.345   8.707  1.1180  0.4118  2.9694
  106OSM   H18H10926   1.004   2.182   8.669 -2.1613  1.0053  0.8550
  107OSM      N10927   4.938   6.627  10.425  0.4745  0.3027  0.1085
  107OSM    C1510928   5.074   6.576  10.462 -0.4467 -0.2412  0.5868
  107OSM   H15A10929   5.084   6.468  10.461 -1.1470 -0.3192 -0.9076
  107OSM   H15B10930   5.101   6.617  10.558  1.2629  0.3618 -0.1246
  107OSM   H15C10931   5.155   6.602  10.395 -1.1494 -2.4214 -1.2388
  107OSM    C1410932   4.939   6.777  10.429 -0.2448  1.0874 -0.5784
  107OSM   H14A10933   4.845   6.816  10.392 -1.1816 -0.4198  0.0890
  107OSM   H14B10934   5.022   6.811  10.369  1.1817 -0.9692  0.1251
  107OSM   H14C10935   4.954   6.814  10.529  1.1786  2.3907 -1.2384
  107OSM    C1310936   4.906   6.586  10.282  0.1312 -0.0639 -0.1908
  107OSM   H13A10937   4.895   6.480  10.265  0.3382  0.1495 -1.8078
  107OSM   H13B10938   4.983   6.605  10.209 -0.2226  0.5951 -0.4036
  107OSM   H13C10939   4.818   6.634  10.242  0.1034 -0.1718 -0.2601
  107OSM    C1210940   4.839   6.570  10.527 -0.4084  0.7159  0.3269
  107OSM   H12A10941   4.844   6.462  10.526 -1.0543  0.6810 -0.1705
  107OSM   H12B10942   4.744   6.603  10.486 -0.3015  0.7541  0.1050
  107OSM    C1110943   4.855   6.592  10.675 -0.5978 -0.6851 -0.0486
  107OSM   H11A10944   4.960   6.577  10.710 -0.5588  1.6647  1.0897
  107OSM   H11B10945   4.799   6.512  10.727 -1.1206 -0.4182 -0.1950
  107OSM      P10946   4.655   6.730  10.730  0.1163 -0.0632 -0.1656
  107OSM    O1310947   4.591   6.615  10.793  0.5426 -0.5174  0.0985
  107OSM    O1410948   4.632   6.855  10.800 -0.4470  0.1741 -0.1861
  107OSM    O1110949   4.618   6.746  10.575 -0.3781  0.0917  0.4254
  107OSM    O1210950   4.811   6.719  10.720 -0.1887 -0.1482  0.1664
  107OSM    C1S10951   4.625   6.872  10.506  0.6503  0.0839 -0.0097
  107OSM    H1S10952   4.729   6.893  10.471  1.1014  0.3823  1.4505
  107OSM    H1T10953   4.587   6.956  10.567 -2.5065 -0.1326 -1.4793
  107OSM     NF10954   4.535   6.985  10.307 -0.4477 -0.4254 -0.1301
  107OSM    HNF10955   4.457   7.046  10.316  0.3569  0.4578  1.3507
  107OSM    C2S10956   4.528   6.866  10.386 -0.9853 -0.8884  0.1827
  107OSM    H2S10957   4.551   6.782  10.318  0.9820 -0.2265 -0.0145
  107OSM    C3S10958   4.381   6.840  10.437 -0.1811  0.1294 -0.0007
  107OSM    H3S10959   4.355   6.930  10.497  0.2627 -1.0913  2.1071
  107OSM     O310960   4.353   6.734  10.527  0.2288 -0.0531 -0.2401
  107OSM    HO310961   4.430   6.701  10.574 -0.7635 -1.0759  0.7118
  107OSM    C4S10962   4.285   6.830  10.322  0.3625  0.0085  0.9401
  107OSM    H4S10963   4.321   6.776  10.233 -1.0072  0.0439  0.3432
  107OSM    C5S10964   4.163   6.880  10.331  0.5554 -0.3397 -0.2202
  107OSM    H5S10965   4.123   6.926  10.422  0.1780 -0.4348 -0.3317
  107OSM    C6S10966   4.063   6.874  10.216  0.8134 -0.2206 -0.5040
  107OSM    H6S10967   3.980   6.946  10.230 -0.8670 -2.0009 -0.8102
  107OSM    H6T10968   4.013   6.775  10.229  0.5493 -0.0711 -0.3766
  107OSM    C7S10969   4.130   6.885  10.082  0.3595 -0.5780  0.7150
  107OSM    H7S10970   4.211   6.810  10.068  0.1570 -0.7287  0.3267
  107OSM    H7T10971   4.173   6.987  10.086 -1.2109  0.1306  0.3752
  107OSM    C8S10972   4.041   6.855   9.956 -0.1218  0.7731  0.1630
  107OSM    H8S10973   4.102   6.870   9.865  0.0076 -0.7089 -0.0131
  107OSM    H8T10974   3.952   6.921   9.946 -0.0032  1.3008  2.1623
  107OSM    C9S10975   4.006   6.703   9.945  0.3000  1.1128 -0.6451
  107OSM    H9S10976   3.949   6.682  10.038 -2.2648 -2.7256 -2.8174
  107OSM    H9T10977   4.095   6.637   9.934 -0.7242 -1.1753  3.0832
  107OSM   C10S10978   3.898   6.661   9.836 -0.1318 -0.4551 -0.0072
  107OSM   H10S10979   3.804   6.720   9.841 -0.0450 -0.1580 -1.2981
  107OSM   H10T10980   3.862   6.560   9.866 -1.1437 -0.1435 -0.1319
  107OSM   C11S10981   3.967   6.669   9.699  0.7533  0.0331  0.6915
  107OSM   H11S10982   4.041   6.586   9.698  0.0041 -0.6870  1.7441
  107OSM   H11T10983   4.026   6.762   9.688  3.2081 -1.4865  0.1673
  107OSM   C12S10984   3.865   6.668   9.585 -0.8393 -0.1568  0.0412
  107OSM   H12S10985   3.805   6.762   9.581 -0.5601 -0.0342 -2.0478
  107OSM   H12T10986   3.800   6.580   9.603 -0.1125 -0.7957 -0.4667
  107OSM   C13S10987   3.932   6.666   9.453 -1.0170  0.4079 -0.8280
  107OSM   H13S10988   4.010   6.587   9.461 -2.7139 -1.2332  0.3955
  107OSM   H13T10989   3.991   6.758   9.434  0.0966  0.6152  2.9047
  107OSM   C14S10990   3.840   6.647   9.335 -0.4999  0.1939 -0.5322
  107OSM   H14S10991   3.754   6.717   9.343 -0.4956  0.1257  0.2006
  107OSM   H14T10992   3.796   6.546   9.348 -1.4139  0.2094 -2.9791
  107OSM   C15S10993   3.909   6.655   9.196 -0.6387 -0.4930  0.1819
  107OSM   H15S10994   3.984   6.574   9.186  1.9548  1.6850  0.6492
  107OSM   H15T10995   3.972   6.747   9.191  3.2795 -2.9659 -3.1658
  107OSM   C16S10996   3.804   6.660   9.089 -0.1105 -0.5547 -0.3437
  107OSM   H16S10997   3.725   6.729   9.125  0.8463  0.2582  0.2438
  107OSM   H16T10998   3.748   6.565   9.074  0.6171 -0.8178 -1.5558
  107OSM   C17S10999   3.867   6.716   8.961  0.0940  0.0589  0.5190
  107OSM   H17S11000   3.913   6.811   8.993 -3.3072  1.4936  1.5910
  107OSM   H17T11001   3.783   6.738   8.891  1.2074  0.7159 -0.6475
  107OSM   C18S11002   3.963   6.614   8.903  0.2443 -0.0858 -0.9570
  107OSM   H18S11003   4.018   6.658   8.817  1.8721 -1.4930 -0.7010
  107OSM   H18T11004   3.912   6.531   8.850 -1.5507  0.4166 -0.0959
  107OSM   H18U11005   4.042   6.569   8.967  0.0499 -4.4294 -3.4010
  107OSM    C1F11006   4.645   7.020  10.244 -0.2516 -0.0690 -0.3838
  107OSM     OF11007   4.744   6.950  10.248 -0.4573 -0.3733  0.2883
  107OSM    C2F11008   4.642   7.146  10.187 -0.4299 -0.0128  0.6004
  107OSM    H2F11009   4.685   7.214  10.263 -1.8460  0.0177  1.4088
  107OSM    H2G11010   4.541   7.183  10.159 -0.0432 -0.7127 -1.9957
  107OSM    C3F11011   4.732   7.147  10.060 -0.1859  0.1664  0.4520
  107OSM    H3F11012   4.719   7.067   9.983 -3.5825  0.8870  0.1238
  107OSM    H3G11013   4.841   7.142  10.081  0.1348  1.2258 -0.8070
  107OSM    C4F11014   4.708   7.277   9.982  0.2016  0.4163  0.3912
  107OSM    H4F11015   4.753   7.359  10.043 -2.0129  1.7920  0.2937
  107OSM    H4G11016   4.600   7.300   9.971  0.5681  1.5784 -1.2658
  107OSM    C5F11017   4.765   7.271   9.837 -0.3210  0.3224  0.4279
  107OSM    H5F11018   4.731   7.176   9.790  0.8401  0.3129 -0.4142
  107OSM    H5G11019   4.876   7.272   9.839 -0.1963 -1.1528 -1.8306
  107OSM    C6F11020   4.705   7.378   9.739 -0.4516 -0.1008  0.6021
  107OSM    H6F11021   4.751   7.472   9.773 -0.9538  0.1908  0.4916
  107OSM    H6G11022   4.595   7.379   9.754 -0.6458 -1.2545 -0.4928
  107OSM    C7F11023   4.741   7.352   9.590 -0.3742  0.4009 -0.5115
  107OSM    H7F11024   4.723   7.244   9.569 -2.8555  0.7896 -0.6577
  107OSM    H7G11025   4.851   7.365   9.587 -0.1293 -1.4536 -1.1584
  107OSM    C8F11026   4.674   7.442   9.489 -0.2515 -0.6334  0.8064
  107OSM    H8F11027   4.569   7.421   9.457 -0.0657  0.1601 -0.4120
  107OSM    H8G11028   4.732   7.410   9.400  2.3754 -0.7657  2.4791
  107OSM    C9F11029   4.687   7.590   9.507 -0.4221 -0.3892  0.0217
  107OSM    H9F11030   4.683   7.625   9.611  1.1225 -3.3084  1.1941
  107OSM   C10F11031   4.705   7.686   9.424  0.1695 -0.2987  0.8927
  107OSM   H10F11032   4.707   7.792   9.455 -0.5614 -0.2755  0.8873
  107OSM   C11F11033   4.712   7.663   9.273 -1.1875 -0.5507 -0.1048
  107OSM   H11F11034   4.649   7.736   9.219 -1.3312  0.0584  0.8638
  107OSM   H11G11035   4.695   7.554   9.255  3.5361 -2.1652  3.2748
  107OSM   C12F11036   4.860   7.675   9.229 -0.6880  0.0550  0.3439
  107OSM   H12F11037   4.917   7.580   9.243  0.0458 -0.2895 -3.8314
  107OSM   H12G11038   4.930   7.746   9.278 -0.0826  1.9435 -3.0097
  107OSM   C13F11039   4.877   7.705   9.083 -0.1117 -0.0704 -0.0413
  107OSM   H13F11040   4.899   7.813   9.068 -2.4965  0.5278  0.3628
  107OSM   H13G11041   4.779   7.682   9.036 -1.0507  2.1813  0.6682
  107OSM   C14F11042   4.991   7.623   9.018 -0.0388 -0.2828  0.1063
  107OSM   H14F11043   4.954   7.520   9.035 -0.7574  0.3286  2.6149
  107OSM   H14G11044   5.085   7.636   9.076  0.3173 -0.3091 -0.4544
  107OSM   C15F11045   4.987   7.658   8.866 -0.0345  1.0358 -0.4189
  107OSM   H15F11046   4.970   7.767   8.865  0.1702  1.0972 -2.5784
  107OSM   H15G11047   4.900   7.608   8.819  0.1398  1.6010 -1.3848
  107OSM   C16F11048   5.114   7.604   8.793  0.1282 -0.1785  0.1067
  107OSM   H16F11049   5.116   7.494   8.809  0.4027 -0.2301 -0.2762
  107OSM   H16G11050   5.206   7.642   8.841  1.2816 -2.5345 -0.0851
  107OSM   C17F11051   5.103   7.634   8.642  0.3253 -0.2569 -0.3307
  107OSM   H17F11052   5.203   7.653   8.597  0.8439  2.3616  1.6883
  107OSM   H17G11053   5.049   7.729   8.628  3.6903  1.5995 -1.8125
  107OSM   C18F11054   5.024   7.522   8.562  0.1070 -0.0006 -0.1258
  107OSM   H18F11055   5.081   7.483   8.475 -0.1934 -1.1253  0.1603
  107OSM   H18G11056   4.921   7.554   8.535 -0.6822  0.1707  2.7143
  107OSM   H18H11057   5.012   7.440   8.636  0.1244  0.1999  0.0988
  108OSM      N11058   5.926   2.792  11.055 -0.2609 -0.3431  0.0484
  108OSM    C1511059   5.913   2.663  10.976  0.9444  0.6232 -0.3613
  108OSM   H15A11060   5.820   2.659  10.922  0.1859 -2.6110  0.9374
  108OSM   H15B11061   5.932   2.574  11.036 -2.7190  0.3736  0.6770
  108OSM   H15C11062   5.989   2.667  10.899  1.6487  2.4743  0.3704
  108OSM    C1411063   5.798   2.804  11.138 -0.1346 -0.1310 -0.2271
  108OSM   H14A11064   5.797   2.906  11.175  0.3784 -0.0938 -0.3118
  108OSM   H14B11065   5.804   2.730  11.216 -0.0089 -1.0907 -1.1342
  108OSM   H14C11066   5.701   2.791  11.092  0.3644 -0.6039 -1.1681
  108OSM    C1311067   6.051   2.797  11.142 -0.2727  0.0848 -0.2479
  108OSM   H13A11068   6.055   2.892  11.193  0.3779  0.1077 -0.3376
  108OSM   H13B11069   6.135   2.786  11.075  0.0132 -0.4274  0.1902
  108OSM   H13C11070   6.055   2.716  11.213 -0.5498  0.4560  0.1947
  108OSM    C1211071   5.929   2.904  10.951  0.4785 -0.1323 -0.0115
  108OSM   H12A11072   5.909   2.992  11.010 -0.2981 -0.9105  0.9126
  108OSM   H12B11073   5.844   2.898  10.886  0.5718  2.4394 -0.4500
  108OSM    C1111074   6.055   2.922  10.871  0.0004 -0.0363  0.1126
  108OSM   H11A11075   6.026   2.975  10.778  0.2475 -1.2730 -0.6901
  108OSM   H11B11076   6.094   2.827  10.831 -2.7355 -1.2895  0.2030
  108OSM      P11077   6.298   3.007  10.893  0.2125 -0.0324 -0.5860
  108OSM    O1311078   6.344   3.146  10.921 -0.2893 -0.0932  0.4468
  108OSM    O1411079   6.372   2.902  10.963  0.0891  0.3824  0.3952
  108OSM    O1111080   6.288   2.980  10.735 -0.3482 -0.0439  0.4909
  108OSM    O1211081   6.146   2.994  10.947  0.1530 -0.3992  0.0686
  108OSM    C1S11082   6.236   3.081  10.644  0.2051 -1.2911 -0.5334
  108OSM    H1S11083   6.266   3.184  10.672  0.3537 -0.7451 -2.5333
  108OSM    H1T11084   6.126   3.085  10.655  0.3335  0.1136  0.4635
  108OSM     NF11085   6.256   3.180  10.419 -0.2177  0.3223 -0.4834
  108OSM    HNF11086   6.188   3.171  10.346  1.0741 -2.5110 -1.4961
  108OSM    C2S11087   6.285   3.060  10.500  0.1860  0.1125  0.4656
  108OSM    H2S11088   6.396   3.056  10.501  0.3651  2.7008 -1.1596
  108OSM    C3S11089   6.225   2.933  10.432 -0.0792  0.0581  0.1074
  108OSM    H3S11090   6.122   2.963  10.405 -0.5099 -0.4868  1.1165
  108OSM     O311091   6.215   2.825  10.523  0.2444  0.1859 -0.3003
  108OSM    HO311092   6.233   2.861  10.610 -0.7035  0.5475 -0.2489
  108OSM    C4S11093   6.301   2.903  10.302 -0.2834 -0.0498  0.0595
  108OSM    H4S11094   6.287   2.971  10.217  2.5053  0.8427  0.2244
  108OSM    C5S11095   6.406   2.818  10.294 -0.0858 -0.0060 -0.4755
  108OSM    H5S11096   6.436   2.751  10.376  2.3996 -0.5663 -1.7434
  108OSM    C6S11097   6.471   2.793  10.161 -0.1992 -0.2740 -0.5573
  108OSM    H6S11098   6.489   2.683  10.172 -2.1258 -0.3975  2.2888
  108OSM    H6T11099   6.565   2.851  10.159  0.1161 -0.7807 -0.9896
  108OSM    C7S11100   6.405   2.809  10.026  0.8839  0.3598 -0.0376
  108OSM    H7S11101   6.340   2.899  10.036 -0.1815 -0.4189  0.3146
  108OSM    H7T11102   6.334   2.725  10.014  0.9391  0.4864 -1.3620
  108OSM    C8S11103   6.499   2.812   9.910 -0.3881 -0.2748  0.2176
  108OSM    H8S11104   6.578   2.736   9.931 -2.3121 -2.5095 -0.1406
  108OSM    H8T11105   6.549   2.911   9.918 -0.2891 -0.4611  3.2132
  108OSM    C9S11106   6.420   2.797   9.780 -0.3783 -0.3967  0.4548
  108OSM    H9S11107   6.324   2.853   9.775  0.0325  0.2360 -1.5608
  108OSM    H9T11108   6.387   2.691   9.782  0.2010 -0.6922 -2.0450
  108OSM   C10S11109   6.496   2.834   9.658 -0.7726 -0.0332  0.6944
  108OSM   H10S11110   6.593   2.781   9.649 -0.9881 -0.1064 -2.3981
  108OSM   H10T11111   6.502   2.945   9.647  0.1908 -0.1431  0.0002
  108OSM   C11S11112   6.427   2.796   9.523  0.8170  0.0674  0.6944
  108OSM   H11S11113   6.324   2.838   9.529  0.3659 -0.6727 -1.0919
  108OSM   H11T11114   6.414   2.686   9.527 -1.9734  0.3166  0.9170
  108OSM   C12S11115   6.498   2.829   9.392 -0.9844  0.2127  0.7174
  108OSM   H12S11116   6.588   2.764   9.388 -1.4491 -0.4267  0.5080
  108OSM   H12T11117   6.524   2.937   9.386 -0.9362  0.1254 -0.9406
  108OSM   C13S11118   6.401   2.793   9.278  0.2444  0.1675 -0.6255
  108OSM   H13S11119   6.302   2.840   9.295  1.1454  1.3038  2.0919
  108OSM   H13T11120   6.398   2.684   9.261 -0.3859  0.3198 -1.5793
  108OSM   C14S11121   6.462   2.856   9.156 -0.5664  0.5118 -0.5209
  108OSM   H14S11122   6.570   2.831   9.154 -1.1158 -2.4159  0.8189
  108OSM   H14T11123   6.440   2.963   9.179 -1.3886  0.1674  0.3735
  108OSM   C15S11124   6.393   2.828   9.019 -0.7116 -0.1250 -0.3184
  108OSM   H15S11125   6.284   2.850   9.008 -0.6778  0.0921 -0.2199
  108OSM   H15T11126   6.408   2.722   8.989 -0.8302 -0.0859 -0.5177
  108OSM   C16S11127   6.466   2.911   8.912 -0.8432 -0.3588  0.0034
  108OSM   H16S11128   6.575   2.907   8.930 -1.3521 -2.5982  3.4078
  108OSM   H16T11129   6.436   3.018   8.923 -0.2017 -0.3930  2.7203
  108OSM   C17S11130   6.450   2.867   8.771 -0.4953 -0.6982  0.9322
  108OSM   H17S11131   6.485   2.763   8.759 -0.5526 -0.5940 -0.2520
  108OSM   H17T11132   6.519   2.923   8.706  0.0223 -0.7051  1.4680
  108OSM   C18S11133   6.305   2.871   8.733  0.9916  0.4548 -0.3023
  108OSM   H18S11134   6.261   2.788   8.792  1.2751  1.1491  0.9172
  108OSM   H18T11135   6.279   2.853   8.626 -0.3596  2.3435 -0.3438
  108OSM   H18U11136   6.258   2.967   8.764  2.9476  1.2804  0.2749
  108OSM    C1F11137   6.328   3.289  10.425 -0.2209 -0.2107  0.0025
  108OSM     OF11138   6.434   3.294  10.489 -0.3524 -0.1099  0.0321
  108OSM    C2F11139   6.277   3.403  10.339 -0.1762 -0.3000  0.1427
  108OSM    H2F11140   6.175   3.430  10.371  0.3790  1.0308  0.8617
  108OSM    H2G11141   6.262   3.356  10.239  0.8193  2.1137 -1.2507
  108OSM    C3F11142   6.376   3.514  10.312  0.1200  0.4421  0.0376
  108OSM    H3F11143   6.474   3.466  10.288 -0.2975  1.0713 -3.5421
  108OSM    H3G11144   6.378   3.574  10.405 -2.0359  1.6677 -0.6414
  108OSM    C4F11145   6.344   3.606  10.192 -0.5765  0.2335 -0.3537
  108OSM    H4F11146   6.414   3.693  10.188 -1.8739  1.2960 -3.4539
  108OSM    H4G11147   6.236   3.629  10.201 -0.5403  0.1867  0.2234
  108OSM    C5F11148   6.368   3.533  10.061 -0.1520 -0.8998  0.3872
  108OSM    H5F11149   6.300   3.445  10.057 -0.9623 -0.3030  0.7955
  108OSM    H5G11150   6.469   3.485  10.054  0.4692  0.3825  0.2673
  108OSM    C6F11151   6.350   3.619   9.941 -0.2409  0.0205 -0.8797
  108OSM    H6F11152   6.435   3.689   9.928 -0.7535  1.0184  0.7840
  108OSM    H6G11153   6.259   3.682   9.953  0.8558  1.4592  0.2539
  108OSM    C7F11154   6.324   3.544   9.813 -0.3029  0.4108  0.0056
  108OSM    H7F11155   6.225   3.494   9.816  0.2610 -0.8454 -1.1325
  108OSM    H7G11156   6.389   3.454   9.803 -2.6978 -1.2467 -1.8698
  108OSM    C8F11157   6.334   3.644   9.689  0.1258 -0.0429  0.5241
  108OSM    H8F11158   6.436   3.677   9.659 -0.1021  0.6707  0.5136
  108OSM    H8G11159   6.290   3.743   9.716  1.7644  1.0004 -0.4349
  108OSM    C9F11160   6.250   3.580   9.578  0.2714 -0.0597  0.7426
  108OSM    H9F11161   6.142   3.572   9.595  0.2829 -0.9785  0.4468
  108OSM   C10F11162   6.296   3.534   9.462  0.1234 -0.3152  0.4761
  108OSM   H10F11163   6.231   3.476   9.395  0.2633  0.0406  0.0211
  108OSM   C11F11164   6.439   3.537   9.419  0.3094  0.4269 -0.7603
  108OSM   H11F11165   6.490   3.536   9.517  0.4522  0.7328 -0.8303
  108OSM   H11G11166   6.473   3.626   9.361  0.3758 -0.0770 -1.5161
  108OSM   C12F11167   6.491   3.416   9.340 -0.0632 -0.4153  0.8958
  108OSM   H12F11168   6.461   3.322   9.390 -1.8253 -0.5067 -0.2290
  108OSM   H12G11169   6.601   3.420   9.348 -0.1283 -1.2104  2.6130
  108OSM   C13F11170   6.446   3.414   9.192  0.0616  0.0535  0.2171
  108OSM   H13F11171   6.468   3.507   9.136 -1.6407  0.3887  0.0567
  108OSM   H13G11172   6.336   3.426   9.190  0.2580  2.8474  1.2647
  108OSM   C14F11173   6.485   3.284   9.126 -0.2931  1.0760  0.1216
  108OSM   H14F11174   6.431   3.290   9.029 -1.1762 -0.4684  0.4717
  108OSM   H14G11175   6.443   3.195   9.178  2.1435 -0.9888 -1.2300
  108OSM   C15F11176   6.640   3.273   9.107 -0.0821  0.1344 -0.7354
  108OSM   H15F11177   6.662   3.179   9.053  1.7374  0.1090 -0.0102
  108OSM   H15G11178   6.694   3.260   9.203  0.2954  1.5395 -0.7356
  108OSM   C16F11179   6.700   3.380   9.015 -0.2123  0.6646  0.0040
  108OSM   H16F11180   6.710   3.460   9.090  1.6368 -0.6091  1.2100
  108OSM   H16G11181   6.641   3.420   8.929  1.9629  2.2599 -0.8227
  108OSM   C17F11182   6.834   3.330   8.974  0.3675  0.3072 -0.7022
  108OSM   H17F11183   6.812   3.262   8.889  2.0581 -1.5016  0.2067
  108OSM   H17G11184   6.870   3.265   9.056 -0.4198 -0.9030 -1.2770
  108OSM   C18F11185   6.941   3.428   8.940 -0.1801  0.1185 -0.2212
  108OSM   H18F11186   7.036   3.371   8.941 -0.1779  0.1139  0.9936
  108OSM   H18G11187   6.964   3.497   9.025  1.5326 -0.2560 -0.3404
  108OSM   H18H11188   6.923   3.482   8.845 -2.4696 -1.8435 -0.9810
  109OSM      N11189   2.144   4.804  10.835 -0.4189 -0.3432  0.1088
  109OSM    C1511190   2.247   4.838  10.728  0.2020 -0.9887  0.5484
  109OSM   H15A11191   2.254   4.771  10.643  5.0924 -0.4731  0.2698
  109OSM   H15B11192   2.349   4.851  10.762  0.9391 -0.6051 -1.6305
  109OSM   H15C11193   2.220   4.932  10.684 -0.0276 -0.7853  1.1150
  109OSM    C1411194   2.180   4.665  10.900 -0.7293  0.4670  0.4004
  109OSM   H14A11195   2.162   4.585  10.830 -0.0356  0.4524  0.2268
  109OSM   H14B11196   2.116   4.651  10.985 -0.1350 -0.6073  0.6819
  109OSM   H14C11197   2.285   4.678  10.925  0.2499  0.4833 -3.0611
  109OSM    C1311198   2.156   4.902  10.948  0.0334  0.3893  0.4835
  109OSM   H13A11199   2.137   5.003  10.914 -0.3258 -0.1218 -0.8998
  109OSM   H13B11200   2.259   4.897  10.978  0.8023  1.1041 -1.8369
  109OSM   H13C11201   2.087   4.883  11.030  0.9038 -0.2951  1.0770
  109OSM    C1211202   2.008   4.798  10.771 -0.1512 -0.2175 -0.1318
  109OSM   H12A11203   1.938   4.788  10.852 -0.5737  0.4150 -0.4140
  109OSM   H12B11204   1.998   4.716  10.701 -2.8929  0.9136 -1.1980
  109OSM    C1111205   1.967   4.918  10.686  0.4263 -0.4692 -0.1383
  109OSM   H11A11206   1.864   4.907  10.646  1.1429 -1.3536 -1.8045
  109OSM   H11B11207   2.036   4.920  10.599  1.1074  0.9606  0.3919
  109OSM      P11208   2.043   5.170  10.731 -0.2200 -0.0651 -0.0869
  109OSM    O1311209   1.937   5.273  10.731  0.3878 -0.5004 -0.6378
  109OSM    O1411210   2.162   5.199  10.818  0.3645  0.4748  0.4488
  109OSM    O1111211   2.087   5.163  10.577  0.1752 -0.5063  0.0876
  109OSM    O1211212   1.977   5.034  10.764  0.9767  0.5876 -0.3061
  109OSM    C1S11213   1.983   5.167  10.483  0.2773 -0.1868  0.5051
  109OSM    H1S11214   1.924   5.261  10.479 -1.7499 -1.3522  1.5935
  109OSM    H1T11215   1.912   5.087  10.513 -0.7582 -0.2610 -1.9013
  109OSM     NF11216   1.936   5.171  10.237  0.3782 -0.9066 -0.3129
  109OSM    HNF11217   1.893   5.085  10.213  3.1281 -2.9219  1.3018
  109OSM    C2S11218   2.042   5.158  10.341  1.0049 -0.1918 -0.3109
  109OSM    H2S11219   2.114   5.239  10.318  1.0470 -0.5836 -1.7031
  109OSM    C3S11220   2.122   5.024  10.315  0.2203  1.1736  0.0507
  109OSM    H3S11221   2.054   4.945  10.352  0.5098 -0.0376 -1.8230
  109OSM     O311222   2.247   4.993  10.379  0.6544 -0.3019  0.6613
  109OSM    HO311223   2.260   5.069  10.436  0.3673  1.3877 -1.4060
  109OSM    C4S11224   2.140   5.007  10.173 -0.2334  0.1419 -0.6977
  109OSM    H4S11225   2.082   4.928  10.124  0.1748 -0.6839  0.1173
  109OSM    C5S11226   2.241   5.054  10.104  0.4686 -0.2579 -0.7797
  109OSM    H5S11227   2.301   5.133  10.151 -3.3970  1.1942  2.3047
  109OSM    C6S11228   2.263   5.024   9.960 -0.2082  0.6959 -0.0008
  109OSM    H6S11229   2.275   4.914   9.970 -1.5126  0.6048  0.7140
  109OSM    H6T11230   2.358   5.061   9.915  0.3157 -1.4892 -0.8192
  109OSM    C7S11231   2.150   5.053   9.858  0.2064  0.0497 -0.5900
  109OSM    H7S11232   2.108   5.155   9.874 -0.0163 -0.2409  0.8396
  109OSM    H7T11233   2.071   4.978   9.881  0.6499 -0.1907  0.1985
  109OSM    C8S11234   2.194   5.025   9.717  0.3815 -0.2926 -0.0595
  109OSM    H8S11235   2.261   4.936   9.711  0.5138 -0.3293  1.6316
  109OSM    H8T11236   2.248   5.112   9.674 -1.7221  0.0018 -2.3048
  109OSM    C9S11237   2.081   4.991   9.622  0.0074 -0.3140  0.1234
  109OSM    H9S11238   1.994   5.054   9.650 -0.7594 -1.8165  1.3337
  109OSM    H9T11239   2.048   4.885   9.615 -0.4737 -0.4773  3.2688
  109OSM   C10S11240   2.124   5.024   9.480 -0.3902 -0.7272  0.5473
  109OSM   H10S11241   2.200   4.945   9.460  0.3993  0.1053  0.2307
  109OSM   H10T11242   2.170   5.125   9.482  0.9545 -1.2950 -0.0916
  109OSM   C11S11243   2.023   5.003   9.370 -0.0161  0.1404  0.3748
  109OSM   H11S11244   1.933   5.064   9.391  0.1407  0.9453 -1.1330
  109OSM   H11T11245   2.004   4.894   9.371  1.0151 -0.0796 -0.9129
  109OSM   C12S11246   2.074   5.036   9.230  0.5831  0.3239  0.5710
  109OSM   H12S11247   2.150   4.957   9.214  1.3197  1.0958  0.1898
  109OSM   H12T11248   2.127   5.133   9.235 -0.6936  1.1311 -0.8461
  109OSM   C13S11249   1.962   5.046   9.124  0.2680  0.0455 -0.3391
  109OSM   H13S11250   1.924   5.150   9.140  0.4779 -0.3131  3.1877
  109OSM   H13T11251   1.874   4.986   9.156  0.7759  0.3343  1.6857
  109OSM   C14S11252   2.005   5.010   8.986  0.1802 -0.0336  0.1753
  109OSM   H14S11253   2.059   4.914   8.982 -0.3527 -0.3431  0.3237
  109OSM   H14T11254   2.081   5.085   8.955 -0.9899  0.5079 -1.6380
  109OSM   C15S11255   1.892   5.024   8.877 -0.1086 -0.0923  0.0354
  109OSM   H15S11256   1.868   5.132   8.874  1.5555  0.4048  1.9455
  109OSM   H15T11257   1.800   4.966   8.900 -0.1690 -0.1104 -0.2537
  109OSM   C16S11258   1.946   4.989   8.735 -0.3066  0.4977  0.6048
  109OSM   H16S11259   1.986   4.886   8.724 -2.3614 -0.1477 -1.7429
  109OSM   H16T11260   2.028   5.061   8.711 -0.2927 -0.0688 -1.2255
  109OSM   C17S11261   1.838   5.005   8.625  0.3614 -0.5862 -0.2925
  109OSM   H17S11262   1.781   5.100   8.616 -2.5298 -2.1918 -0.0597
  109OSM   H17T11263   1.747   4.951   8.658 -0.6208  2.1537  2.0060
  109OSM   C18S11264   1.889   4.951   8.489  0.8091  0.2891 -0.1221
  109OSM   H18S11265   1.961   5.019   8.439  0.0227  1.3128  0.0998
  109OSM   H18T11266   1.800   4.946   8.423  0.2304 -2.0987  0.7167
  109OSM   H18U11267   1.940   4.853   8.500 -0.1797 -0.1680  0.5384
  109OSM    C1F11268   1.874   5.288  10.217  0.6707 -0.0166 -0.6281
  109OSM     OF11269   1.908   5.386  10.284 -0.3493 -0.0993 -0.1837
  109OSM    C2F11270   1.763   5.288  10.122  0.0265  0.2468  0.4593
  109OSM    H2F11271   1.668   5.284  10.180  0.0904  0.2118  0.5634
  109OSM    H2G11272   1.768   5.200  10.055  0.0315  0.4446  0.1997
  109OSM    C3F11273   1.752   5.402  10.023  0.5587  0.4390 -0.4804
  109OSM    H3F11274   1.773   5.495  10.081  0.8435 -1.0392  1.9157
  109OSM    H3G11275   1.651   5.405   9.978  0.0811  2.3025  0.5918
  109OSM    C4F11276   1.842   5.381   9.900  0.3482  0.2135  0.0523
  109OSM    H4F11277   1.808   5.293   9.842 -0.0068 -0.1841  0.8377
  109OSM    H4G11278   1.948   5.367   9.928  0.3254  0.9753  0.5628
  109OSM    C5F11279   1.829   5.498   9.798 -0.4682  0.3758  0.2350
  109OSM    H5F11280   1.825   5.602   9.836  1.7636  0.3915  0.5285
  109OSM    H5G11281   1.730   5.480   9.751 -0.6909  0.2183  0.7555
  109OSM    C6F11282   1.931   5.488   9.684  0.5291  0.3730 -0.0988
  109OSM    H6F11283   2.028   5.508   9.733 -0.0914 -0.4363  1.5345
  109OSM    H6G11284   1.908   5.569   9.611 -0.0453  0.2114 -0.1068
  109OSM    C7F11285   1.944   5.354   9.604  0.4635  0.1361 -0.0706
  109OSM    H7F11286   1.837   5.325   9.590 -0.5571  2.4367  2.0654
  109OSM    H7G11287   1.984   5.276   9.672  0.2408  0.2676  0.2163
  109OSM    C8F11288   2.006   5.376   9.469  0.4334  0.7401 -0.6204
  109OSM    H8F11289   1.952   5.448   9.404 -0.9901  0.1916 -0.0814
  109OSM    H8G11290   2.009   5.282   9.409 -3.0823  1.1696 -1.6465
  109OSM    C9F11291   2.152   5.408   9.501 -0.7234 -0.0210  0.4634
  109OSM    H9F11292   2.181   5.406   9.607  2.9741  1.1533 -0.3685
  109OSM   C10F11293   2.254   5.430   9.408  0.3659  0.3698 -0.3966
  109OSM   H10F11294   2.361   5.449   9.428  0.3781 -0.1122  0.0013
  109OSM   C11F11295   2.235   5.441   9.260 -0.8898 -0.3417  0.4127
  109OSM   H11F11296   2.133   5.417   9.223  0.4271  0.0887 -4.0888
  109OSM   H11G11297   2.298   5.357   9.222 -2.1153 -0.3394 -1.7648
  109OSM   C12F11298   2.296   5.557   9.182  0.4987  0.2110  0.6033
  109OSM   H12F11299   2.396   5.585   9.221  0.3430  0.8924  0.5242
  109OSM   H12G11300   2.229   5.645   9.191 -0.8645 -0.6995 -0.2538
  109OSM   C13F11301   2.312   5.516   9.030  0.1516  0.2742 -0.2395
  109OSM   H13F11302   2.215   5.485   8.986 -0.1020 -0.3273  0.6964
  109OSM   H13G11303   2.369   5.420   9.031 -1.1993 -0.6006 -1.6976
  109OSM   C14F11304   2.361   5.631   8.939 -0.0460  0.9983 -0.5112
  109OSM   H14F11305   2.373   5.588   8.837  0.4917  0.2742 -0.1523
  109OSM   H14G11306   2.462   5.666   8.968  1.1697 -0.9725 -2.1599
  109OSM   C15F11307   2.261   5.746   8.938  0.3323 -0.8236  0.0629
  109OSM   H15F11308   2.254   5.798   9.036  1.1015 -0.6969  0.0577
  109OSM   H15G11309   2.162   5.702   8.914  0.0466 -0.4866  0.5822
  109OSM   C16F11310   2.295   5.849   8.835 -0.1063  0.2720  0.8462
  109OSM   H16F11311   2.398   5.889   8.846  0.7057 -1.4314  0.0153
  109OSM   H16G11312   2.226   5.934   8.849 -0.4027 -0.2443  2.8016
  109OSM   C17F11313   2.297   5.796   8.681  0.5202  0.2836 -0.5582
  109OSM   H17F11314   2.382   5.725   8.669  0.9329  0.6957 -0.1359
  109OSM   H17G11315   2.316   5.888   8.622 -0.4687  0.8284 -0.0476
  109OSM   C18F11316   2.155   5.736   8.634 -0.5767 -0.2555  0.1964
  109OSM   H18F11317   2.151   5.701   8.529 -0.9302  0.2820  0.0260
  109OSM   H18G11318   2.071   5.806   8.653  1.0331  1.6419  0.6419
  109OSM   H18H11319   2.135   5.642   8.689  1.2015 -0.6323  0.2584
  110OSM      N11320   1.231   4.847  10.575  0.1007  0.1449  0.0476
  110OSM    C1511321   1.099   4.837  10.633  0.2415  1.1069 -0.3687
  110OSM   H15A11322   1.086   4.753  10.699 -0.7255  0.9256 -0.7759
  110OSM   H15B11323   1.027   4.828  10.553 -0.3160 -3.1538  0.3589
  110OSM   H15C11324   1.089   4.925  10.694 -1.2866  0.4404  0.4138
  110OSM    C1411325   1.258   4.971  10.494  0.1937 -0.0311  0.1353
  110OSM   H14A11326   1.354   4.969  10.446  0.2276  1.5555  0.0796
  110OSM   H14B11327   1.247   5.062  10.552 -0.8012  1.7306 -2.5696
  110OSM   H14C11328   1.184   4.995  10.419  2.0471  1.8482 -1.2066
  110OSM    C1311329   1.330   4.859  10.689  0.1924  0.0377  0.1629
  110OSM   H13A11330   1.429   4.855  10.646 -0.0531  2.7784 -0.7905
  110OSM   H13B11331   1.318   4.774  10.756 -0.8802  0.0828  0.0396
  110OSM   H13C11332   1.313   4.949  10.746 -2.1626 -1.0209  1.2838
  110OSM    C1211333   1.251   4.714  10.494 -0.3623  0.6201 -0.3930
  110OSM   H12A11334   1.178   4.713  10.415 -0.2389 -1.8272 -0.5252
  110OSM   H12B11335   1.221   4.634  10.559  2.9384 -1.5511 -1.2821
  110OSM    C1111336   1.387   4.687  10.427 -0.3952 -0.4825 -0.5858
  110OSM   H11A11337   1.397   4.756  10.340 -1.6878  0.1469 -0.2674
  110OSM   H11B11338   1.395   4.590  10.374 -1.1944 -0.1965 -1.2455
  110OSM      P11339   1.570   4.601  10.606 -0.0691  0.1893 -0.0417
  110OSM    O1311340   1.585   4.666  10.742 -0.6607  0.7452  0.2807
  110OSM    O1411341   1.490   4.474  10.603  0.6235  0.7620  0.6390
  110OSM    O1111342   1.714   4.571  10.553  0.3101 -0.3923 -0.1958
  110OSM    O1211343   1.508   4.712  10.508  0.0655  0.1847  0.9967
  110OSM    C1S11344   1.726   4.538  10.406 -0.0039  0.2443 -0.4725
  110OSM    H1S11345   1.645   4.581  10.344  1.1405 -0.3553 -2.4581
  110OSM    H1T11346   1.730   4.429  10.383 -1.4738  0.2631 -0.8972
  110OSM     NF11347   1.873   4.550  10.202  0.2667  0.8547 -0.0798
  110OSM    HNF11348   1.906   4.457  10.192  1.2017  1.0484  1.0970
  110OSM    C2S11349   1.861   4.590  10.346 -0.1898  0.3449 -0.0891
  110OSM    H2S11350   1.861   4.701  10.346  0.7986  0.3674 -1.1549
  110OSM    C3S11351   1.990   4.552  10.422  0.7705  0.2907 -0.4048
  110OSM    H3S11352   2.000   4.442  10.410  1.3465  0.3224 -0.2568
  110OSM     O311353   1.975   4.578  10.564 -0.1110  0.1950 -0.0417
  110OSM    HO311354   1.881   4.584  10.579 -0.0903 -0.6118  0.4668
  110OSM    C4S11355   2.110   4.621  10.363  0.2048 -0.3400  0.4493
  110OSM    H4S11356   2.077   4.723  10.338 -1.9867 -1.1044 -0.0398
  110OSM    C5S11357   2.233   4.576  10.335  0.4681  0.4368  1.0600
  110OSM    H5S11358   2.255   4.468  10.338 -0.7108  0.1010 -0.6337
  110OSM    C6S11359   2.338   4.659  10.267 -1.0139 -0.1569  0.1371
  110OSM    H6S11360   2.430   4.656  10.330  0.6194  1.4235 -2.0395
  110OSM    H6T11361   2.314   4.767  10.255 -1.8265 -0.2815  0.5723
  110OSM    C7S11362   2.359   4.592  10.130 -0.6283  0.1172 -0.3486
  110OSM    H7S11363   2.373   4.482  10.139  1.1437  0.3558  0.1370
  110OSM    H7T11364   2.453   4.630  10.086  1.4664 -0.9044  2.9018
  110OSM    C8S11365   2.240   4.619  10.035 -0.4446 -0.3513  0.1164
  110OSM    H8S11366   2.207   4.725  10.035 -0.2147 -0.2716 -0.6112
  110OSM    H8T11367   2.156   4.560  10.078  0.2156 -0.7866  0.8218
  110OSM    C9S11368   2.261   4.604   9.887 -0.6125 -0.1688 -0.4916
  110OSM    H9S11369   2.300   4.502   9.869  0.8567  0.0795  1.0263
  110OSM    H9T11370   2.342   4.674   9.856 -0.3914 -0.4506 -0.5598
  110OSM   C10S11371   2.129   4.615   9.814 -0.4023  0.0594  1.1330
  110OSM   H10S11372   2.091   4.719   9.827 -2.5946 -0.3857 -0.9381
  110OSM   H10T11373   2.055   4.539   9.848 -0.4633  0.0274  0.9293
  110OSM   C11S11374   2.165   4.577   9.668 -0.5456  0.3148  0.0875
  110OSM   H11S11375   2.199   4.472   9.675 -0.6665  0.3444  1.2908
  110OSM   H11T11376   2.249   4.642   9.633  0.5976 -0.6217  0.9929
  110OSM   C12S11377   2.039   4.589   9.585  0.2157 -0.1695  0.2299
  110OSM   H12S11378   2.019   4.697   9.570  0.4681 -0.3454 -1.5878
  110OSM   H12T11379   1.959   4.538   9.644 -1.1520  1.8791  0.2418
  110OSM   C13S11380   2.047   4.527   9.442  0.0960 -0.4578 -0.6269
  110OSM   H13S11381   1.946   4.525   9.396 -0.0002  5.1929 -1.2782
  110OSM   H13T11382   2.092   4.426   9.448 -1.3769 -1.0440  2.4328
  110OSM   C14S11383   2.120   4.621   9.345 -0.0421 -0.4938  1.0269
  110OSM   H14S11384   2.231   4.618   9.356  0.7675  0.6698 -4.0754
  110OSM   H14T11385   2.096   4.729   9.355 -1.7469 -0.4234 -2.4101
  110OSM   C15S11386   2.104   4.581   9.196 -0.0586 -0.7108 -0.2325
  110OSM   H15S11387   2.167   4.659   9.148 -1.9049  2.0695  1.4741
  110OSM   H15T11388   1.998   4.587   9.161 -0.7424 -2.0134  1.4803
  110OSM   C16S11389   2.156   4.446   9.158 -0.5132 -0.4070  0.1428
  110OSM   H16S11390   2.118   4.375   9.235  0.4119 -2.2204 -0.9955
  110OSM   H16T11391   2.266   4.431   9.168 -0.8409 -2.1985  1.4355
  110OSM   C17S11392   2.105   4.389   9.027  0.7338 -0.6203 -0.3332
  110OSM   H17S11393   1.994   4.386   9.038  0.6039  1.7375 -0.4976
  110OSM   H17T11394   2.149   4.287   9.022  2.3938 -0.0138  0.9658
  110OSM   C18S11395   2.138   4.471   8.903  0.0016  0.0494 -0.4985
  110OSM   H18S11396   2.124   4.408   8.812  1.1225 -0.3790 -0.3911
  110OSM   H18T11397   2.243   4.507   8.903 -0.2522  0.8532  0.6182
  110OSM   H18U11398   2.062   4.551   8.891 -1.0371 -0.5325  1.7303
  110OSM    C1F11399   1.788   4.598  10.113  0.4167 -0.1957 -0.6395
  110OSM     OF11400   1.716   4.693  10.140  0.2626  0.2113 -0.4069
  110OSM    C2F11401   1.795   4.544   9.974  0.4688 -0.4948 -0.0846
  110OSM    H2F11402   1.742   4.447   9.987 -1.5968  0.6746  0.5709
  110OSM    H2G11403   1.897   4.524   9.936  0.1790 -4.3981  0.6514
  110OSM    C3F11404   1.711   4.634   9.883  0.0512  0.4684 -0.1174
  110OSM    H3F11405   1.760   4.733   9.868 -0.5322  0.8140  0.2409
  110OSM    H3G11406   1.614   4.671   9.921  0.8548  1.8089  0.6885
  110OSM    C4F11407   1.696   4.571   9.741 -0.1842  0.2896  0.0651
  110OSM    H4F11408   1.600   4.516   9.739  0.3582 -0.6796 -1.3389
  110OSM    H4G11409   1.774   4.493   9.726  0.7765  0.9589  1.3773
  110OSM    C5F11410   1.691   4.676   9.626 -0.1462 -0.2979 -0.2184
  110OSM    H5F11411   1.785   4.735   9.623 -0.7075  0.6239  0.2421
  110OSM    H5G11412   1.604   4.742   9.645 -0.5955 -1.4233  1.9178
  110OSM    C6F11413   1.663   4.614   9.489 -0.1252 -0.1833  0.1269
  110OSM    H6F11414   1.569   4.556   9.505 -0.3378  0.1245  0.0193
  110OSM    H6G11415   1.747   4.545   9.470  0.4165  0.3975  0.3700
  110OSM    C7F11416   1.651   4.708   9.367  0.1983  0.5658 -0.7101
  110OSM    H7F11417   1.754   4.750   9.362  1.0413 -1.1923  0.6531
  110OSM    H7G11418   1.587   4.791   9.403  0.2653 -0.2071  1.3615
  110OSM    C8F11419   1.605   4.651   9.231  0.2552  0.7264 -0.3355
  110OSM    H8F11420   1.586   4.736   9.162 -2.4862  1.1545  0.8555
  110OSM    H8G11421   1.505   4.608   9.250 -0.7488  2.2998 -1.7573
  110OSM    C9F11422   1.696   4.543   9.172 -0.0977  0.3931  0.0629
  110OSM    H9F11423   1.771   4.520   9.250 -1.6043  0.8303  1.7111
  110OSM   C10F11424   1.695   4.480   9.044 -0.4784  0.3163 -0.2177
  110OSM   H10F11425   1.776   4.408   9.023 -1.1597 -0.4513 -0.2418
  110OSM   C11F11426   1.606   4.498   8.932 -0.1312 -0.2969 -0.0064
  110OSM   H11F11427   1.509   4.537   8.968 -0.3958  0.0674 -1.0882
  110OSM   H11G11428   1.587   4.399   8.885 -2.3731  0.8312 -1.6715
  110OSM   C12F11429   1.670   4.591   8.820  0.6251  0.6633 -0.7108
  110OSM   H12F11430   1.717   4.683   8.859  0.1524  0.6991 -0.2237
  110OSM   H12G11431   1.590   4.619   8.748  1.6451 -0.0476 -2.1841
  110OSM   C13F11432   1.774   4.511   8.733 -0.2533 -0.4652 -0.4011
  110OSM   H13F11433   1.711   4.441   8.674 -0.8037 -1.2260  1.0469
  110OSM   H13G11434   1.832   4.443   8.799  1.7077 -1.0727 -2.5966
  110OSM   C14F11435   1.875   4.595   8.659  0.6561  0.1279  1.2438
  110OSM   H14F11436   1.932   4.660   8.729 -1.7699  3.4503  0.4010
  110OSM   H14G11437   1.816   4.658   8.589  0.6949 -1.2745 -0.0971
  110OSM   C15F11438   1.971   4.509   8.574  0.5267  0.6663 -0.1696
  110OSM   H15F11439   1.995   4.419   8.634  1.7554  0.6013 -0.7429
  110OSM   H15G11440   2.061   4.570   8.554  2.9262 -1.9866  1.6775
  110OSM   C16F11441   1.921   4.484   8.437 -0.6106  0.5131  0.2604
  110OSM   H16F11442   1.950   4.573   8.377  2.6037  1.6213  3.1629
  110OSM   H16G11443   1.818   4.447   8.422  0.5355 -2.4027 -1.1085
  110OSM   C17F11444   2.007   4.370   8.378  0.3478  0.1046  0.0091
  110OSM   H17F11445   1.983   4.282   8.442  1.1839 -0.7730 -0.8497
  110OSM   H17G11446   2.109   4.410   8.398  1.0555  0.3758 -3.5038
  110OSM   C18F11447   1.979   4.347   8.232  0.5121  0.5246  0.5007
  110OSM   H18F11448   2.051   4.268   8.203  1.3108  1.5660 -0.4370
  110OSM   H18G11449   1.995   4.441   8.174  1.1915  0.0467 -0.1047
  110OSM   H18H11450   1.873   4.322   8.209  0.2837  2.3857 -0.7041
  111OSM      N11451   2.159   0.302  10.465 -0.9855  0.2216 -0.2938
  111OSM    C1511452   2.204   0.396  10.567  0.3418  0.1677  0.0747
  111OSM   H15A11453   2.129   0.435  10.634  0.9982 -0.8990  1.4968
  111OSM   H15B11454   2.245   0.486  10.524  2.3990  0.2237  1.9277
  111OSM   H15C11455   2.284   0.350  10.624  2.7660  2.9705 -0.7907
  111OSM    C1411456   2.060   0.215  10.530  0.5744  0.5720 -0.0777
  111OSM   H14A11457   1.973   0.265  10.570 -0.1112 -1.6240  1.3658
  111OSM   H14B11458   2.102   0.179  10.623  1.1685  1.3557 -0.0380
  111OSM   H14C11459   2.035   0.135  10.462  2.0444  1.8480 -2.2265
  111OSM    C1311460   2.099   0.372  10.345  0.1136  0.2903  0.3006
  111OSM   H13A11461   2.040   0.303  10.287 -1.1294  0.4815  1.2883
  111OSM   H13B11462   2.175   0.417  10.283  0.1529  1.6109  1.2629
  111OSM   H13C11463   2.034   0.452  10.378 -1.4682 -0.3565 -1.0691
  111OSM    C1211464   2.274   0.221  10.425  0.3706  0.9649 -0.2873
  111OSM   H12A11465   2.239   0.158  10.344  0.9104  1.5273 -0.9770
  111OSM   H12B11466   2.294   0.150  10.504 -0.9782  0.5999 -0.2451
  111OSM    C1111467   2.407   0.285  10.385 -0.9442 -0.3443  0.3434
  111OSM   H11A11468   2.394   0.349  10.295  0.4714  0.2393  0.5360
  111OSM   H11B11469   2.472   0.198  10.363  0.9785  0.4629  2.4580
  111OSM      P11470   2.605   0.340  10.546  0.4233 -0.3703  0.0407
  111OSM    O1311471   2.619   0.407  10.676 -0.3119  0.1691 -0.5009
  111OSM    O1411472   2.641   0.194  10.532  0.2245  0.1498 -0.0741
  111OSM    O1111473   2.702   0.420  10.453 -0.2784 -0.3159  0.5735
  111OSM    O1211474   2.466   0.370  10.488  0.2201 -0.5587  0.4924
  111OSM    C1S11475   2.814   0.355  10.381  0.1348  0.5044 -0.8606
  111OSM    H1S11476   2.849   0.265  10.436 -0.5011  0.6507 -0.2057
  111OSM    H1T11477   2.903   0.421  10.384  1.4142 -1.1717 -0.6310
  111OSM     NF11478   2.915   0.249  10.178  0.6528 -0.2545  0.5936
  111OSM    HNF11479   2.972   0.319  10.136 -1.2183  0.4121 -0.9910
  111OSM    C2S11480   2.799   0.319  10.236 -0.2894 -0.0146  0.1357
  111OSM    H2S11481   2.721   0.240  10.241  1.0742 -1.3263  2.8415
  111OSM    C3S11482   2.749   0.440  10.155 -0.4793  0.7938  0.1547
  111OSM    H3S11483   2.834   0.511  10.170  1.1975 -0.7207 -1.5507
  111OSM     O311484   2.621   0.498  10.200 -0.5932  0.6264 -0.2328
  111OSM    HO311485   2.615   0.460  10.288 -0.5029  1.2258  0.0383
  111OSM    C4S11486   2.740   0.402  10.010  1.2996  0.3260 -0.1564
  111OSM    H4S11487   2.683   0.310   9.990  2.3894 -0.0128 -1.8865
  111OSM    C5S11488   2.805   0.455   9.912 -0.0008 -0.3725 -0.3908
  111OSM    H5S11489   2.849   0.556   9.910 -1.7179  0.3988 -1.8331
  111OSM    C6S11490   2.779   0.414   9.770 -0.0342  0.3270  0.3910
  111OSM    H6S11491   2.715   0.323   9.767  0.3757  0.0494 -0.0308
  111OSM    H6T11492   2.875   0.371   9.736  0.2475  1.8426 -0.8471
  111OSM    C7S11493   2.733   0.528   9.672 -0.3137  0.4559 -0.7650
  111OSM    H7S11494   2.763   0.629   9.707 -2.3425  1.3396 -1.4192
  111OSM    H7T11495   2.623   0.534   9.655  0.1281  2.0671 -3.6255
  111OSM    C8S11496   2.790   0.494   9.531 -0.6191 -0.3248  0.2669
  111OSM    H8S11497   2.749   0.392   9.516  0.8609 -1.0558  1.0191
  111OSM    H8T11498   2.901   0.499   9.527 -0.4750  0.5698  3.0373
  111OSM    C9S11499   2.720   0.588   9.422 -0.4708 -0.2100  0.5742
  111OSM    H9S11500   2.721   0.690   9.466 -0.1744 -0.1273  0.3828
  111OSM    H9T11501   2.614   0.566   9.399 -1.0575  1.1078  1.8162
  111OSM   C10S11502   2.804   0.592   9.292 -0.4716  0.0001  0.2479
  111OSM   H10S11503   2.846   0.489   9.285  0.7453  0.4812  0.1528
  111OSM   H10T11504   2.887   0.665   9.282 -1.6962  1.5209  0.8838
  111OSM   C11S11505   2.720   0.612   9.166 -0.0509 -0.1413 -0.1713
  111OSM   H11S11506   2.671   0.711   9.174 -0.4100 -0.4167  1.1597
  111OSM   H11T11507   2.647   0.529   9.159  0.3125 -0.4328 -0.6357
  111OSM   C12S11508   2.808   0.598   9.038 -0.0636 -0.3707 -0.1911
  111OSM   H12S11509   2.881   0.514   9.049  0.6075  0.1506 -0.6326
  111OSM   H12T11510   2.869   0.690   9.044  0.7430 -0.9760  3.1302
  111OSM   C13S11511   2.728   0.579   8.913 -0.2737 -0.2024 -0.2846
  111OSM   H13S11512   2.652   0.658   8.899 -0.8621 -1.0586 -2.2605
  111OSM   H13T11513   2.666   0.488   8.925 -1.2601  0.2723 -1.5576
  111OSM   C14S11514   2.806   0.568   8.787 -0.1247  1.1006 -0.0031
  111OSM   H14S11515   2.871   0.656   8.766  2.4452 -0.8235 -0.5912
  111OSM   H14T11516   2.733   0.548   8.706  2.4552 -0.5901 -2.0597
  111OSM   C15S11517   2.894   0.437   8.788 -0.4874  0.2763  0.8557
  111OSM   H15S11518   2.831   0.346   8.796  1.2128 -0.9011  1.4012
  111OSM   H15T11519   2.982   0.425   8.855  2.4447 -0.0433 -2.7478
  111OSM   C16S11520   2.948   0.431   8.644  0.6679 -0.1707  0.3535
  111OSM   H16S11521   3.004   0.519   8.606  0.2268  0.5203  1.2861
  111OSM   H16T11522   2.859   0.427   8.579  0.9553  1.2120 -0.1509
  111OSM   C17S11523   3.021   0.300   8.620  0.5209 -0.5466  0.2206
  111OSM   H17S11524   3.008   0.287   8.510  0.7388 -0.2795  0.1606
  111OSM   H17T11525   2.966   0.222   8.676 -1.0726  1.6935  1.9878
  111OSM   C18S11526   3.171   0.302   8.657 -0.5677 -0.4179  0.0856
  111OSM   H18S11527   3.183   0.368   8.744  0.9859  1.8850 -1.7559
  111OSM   H18T11528   3.232   0.344   8.574 -2.1157 -1.6101 -1.7634
  111OSM   H18U11529   3.214   0.202   8.679  0.5237 -0.4728 -2.0298
  111OSM    C1F11530   2.950   0.122  10.205  0.2403  0.0311 -1.2644
  111OSM     OF11531   2.882   0.054  10.283 -0.0533 -0.3757  0.7588
  111OSM    C2F11532   3.082   0.082  10.162 -0.8553 -0.3843  0.4615
  111OSM    H2F11533   3.136   0.023  10.239  0.5691 -1.5832 -1.3785
  111OSM    H2G11534   3.142   0.170  10.129 -0.2863 -1.3184 -1.0918
  111OSM    C3F11535   3.065  -0.017  10.042  0.2380  0.0863 -0.0891
  111OSM    H3F11536   2.989  -0.086  10.085 -0.9237 -0.1315 -2.2962
  111OSM    H3G11537   3.161  -0.072  10.030 -0.3555 -1.0503  0.2033
  111OSM    C4F11538   3.027   0.043   9.911  0.6607 -0.0041 -0.5819
  111OSM    H4F11539   3.097   0.116   9.867  0.3990  0.3524 -0.4076
  111OSM    H4G11540   2.934   0.101   9.927  0.5581 -0.9415  3.5719
  111OSM    C5F11541   3.008  -0.059   9.797  0.2070 -0.1108 -0.4604
  111OSM    H5F11542   2.939  -0.141   9.825  0.8128  0.1021  1.8094
  111OSM    H5G11543   3.107  -0.108   9.784  1.0622  0.7975  2.1161
  111OSM    C6F11544   2.960   0.016   9.674 -0.0888  0.3107 -0.5695
  111OSM    H6F11545   3.027   0.102   9.651  2.6600 -1.4517  0.2221
  111OSM    H6G11546   2.856   0.054   9.680 -0.5261 -0.7660 -1.1701
  111OSM    C7F11547   2.975  -0.076   9.551  0.0806  0.3437 -0.3365
  111OSM    H7F11548   2.934  -0.174   9.582  0.9502 -0.3496 -1.3001
  111OSM    H7G11549   3.083  -0.088   9.532  0.4107  2.0286  0.2991
  111OSM    C8F11550   2.907  -0.017   9.421 -0.4267  0.6634 -0.9603
  111OSM    H8F11551   2.958  -0.066   9.335  0.2072  0.4099 -0.4465
  111OSM    H8G11552   2.940   0.088   9.409  1.3833  0.3905  0.9667
  111OSM    C9F11553   2.756  -0.029   9.405 -0.3736  0.2313  0.1737
  111OSM    H9F11554   2.719  -0.120   9.453  0.5143 -0.1530  0.1509
  111OSM   C10F11555   2.676   0.052   9.333  0.7020  0.3065  0.1510
  111OSM   H10F11556   2.569   0.029   9.348  1.2019 -0.9925  2.0624
  111OSM   C11F11557   2.711   0.176   9.258 -0.4155  0.0184  0.8406
  111OSM   H11F11558   2.784   0.235   9.318 -0.5279  1.0743 -0.0257
  111OSM   H11G11559   2.625   0.244   9.241  0.4231  0.6836 -1.0688
  111OSM   C12F11560   2.777   0.149   9.116  0.0718  0.0884 -0.5962
  111OSM   H12F11561   2.860   0.076   9.121  0.7381  0.8664  0.0367
  111OSM   H12G11562   2.801   0.249   9.073 -3.0557  1.2175 -0.0053
  111OSM   C13F11563   2.675   0.078   9.025  0.0789  0.0094 -0.0935
  111OSM   H13F11564   2.599   0.029   9.089  0.5672  1.9048  2.0758
  111OSM   H13G11565   2.715   0.017   8.941 -0.3114  1.7227 -1.5943
  111OSM   C14F11566   2.587   0.177   8.955 -0.1470  0.1900  0.3703
  111OSM   H14F11567   2.647   0.251   8.898  1.9520 -0.4075  1.7033
  111OSM   H14G11568   2.530   0.233   9.033 -2.0360 -0.8919 -0.1784
  111OSM   C15F11569   2.499   0.128   8.850  0.6805  0.3140  0.5651
  111OSM   H15F11570   2.431   0.050   8.891 -3.4055  2.4659 -1.5603
  111OSM   H15G11571   2.568   0.088   8.772 -1.7026  2.8530 -3.1775
  111OSM   C16F11572   2.425   0.250   8.792  0.0040 -0.5261  0.1311
  111OSM   H16F11573   2.506   0.312   8.748 -0.6855  0.7606  0.6037
  111OSM   H16G11574   2.374   0.305   8.875 -0.5730 -0.4968 -0.2414
  111OSM   C17F11575   2.317   0.225   8.691 -0.5001 -0.2201 -0.6992
  111OSM   H17F11576   2.378   0.182   8.608 -1.1702 -1.3153 -0.6425
  111OSM   H17G11577   2.265   0.316   8.656  0.5759  0.4979 -0.4698
  111OSM   C18F11578   2.210   0.135   8.729  0.7031  0.9584  0.0165
  111OSM   H18F11579   2.130   0.127   8.653  0.5738 -0.1196  0.2464
  111OSM   H18G11580   2.156   0.155   8.825  0.8106  0.3627  0.2062
  111OSM   H18H11581   2.251   0.032   8.740  1.4765  1.1911 -0.6390
  112OSM      N11582   3.979   5.187  10.850 -0.4411  0.0357 -0.0058
  112OSM    C1511583   3.972   5.335  10.839 -0.2046 -0.6999 -0.0303
  112OSM   H15A11584   4.069   5.382  10.846 -0.0338 -1.0927  0.3127
  112OSM   H15B11585   3.917   5.366  10.927 -1.3864  0.4074 -1.1261
  112OSM   H15C11586   3.924   5.376  10.751  0.2798 -0.8557 -0.3697
  112OSM    C1411587   4.055   5.135  10.734  0.2787  0.6949  0.5121
  112OSM   H14A11588   4.005   5.165  10.643 -0.5117 -0.2571  0.6207
  112OSM   H14B11589   4.060   5.028  10.747 -0.1276  0.8008  1.6742
  112OSM   H14C11590   4.157   5.170  10.736  0.4032  0.3262  0.7526
  112OSM    C1311591   4.034   5.144  10.981  0.7719  0.0710 -0.7784
  112OSM   H13A11592   4.138   5.169  10.996  0.7427 -0.0185 -0.3987
  112OSM   H13B11593   4.039   5.037  10.991  0.8423 -0.0376 -1.8733
  112OSM   H13C11594   3.965   5.179  11.057  1.6033  0.4143 -0.1519
  112OSM    C1211595   3.832   5.138  10.832  0.0084 -0.3087 -0.1200
  112OSM   H12A11596   3.812   5.163  10.728 -1.8923 -0.5855  0.1440
  112OSM   H12B11597   3.771   5.187  10.906 -2.4360 -0.3102 -1.9831
  112OSM    C1111598   3.798   4.980  10.837 -0.4213 -0.3978  0.6085
  112OSM   H11A11599   3.827   4.930  10.742 -2.1883 -2.1568  0.9198
  112OSM   H11B11600   3.689   4.969  10.855 -1.0043  3.2727  0.1608
  112OSM      P11601   3.962   4.794  10.949  0.3556  0.3319  0.2356
  112OSM    O1311602   4.077   4.848  11.035 -0.0314 -0.4784 -0.1979
  112OSM    O1411603   3.891   4.676  10.999 -0.1063  0.1172  0.0416
  112OSM    O1111604   4.000   4.779  10.793 -0.2671  0.1186 -0.5802
  112OSM    O1211605   3.867   4.915  10.948 -0.3703 -0.2905 -0.1524
  112OSM    C1S11606   3.923   4.693  10.706  0.2192 -0.1528 -0.0568
  112OSM    H1S11607   3.816   4.717  10.690 -0.4285 -3.2663 -1.3055
  112OSM    H1T11608   3.941   4.583  10.714  2.1677 -0.0968 -2.3381
  112OSM     NF11609   3.883   4.647  10.461 -0.2812 -0.0482 -0.4203
  112OSM    HNF11610   3.924   4.574  10.408 -2.6933  0.2156 -2.8541
  112OSM    C2S11611   3.967   4.720  10.561  0.1946  0.3172  0.2175
  112OSM    H2S11612   3.966   4.830  10.544  0.6039  0.4606  1.0792
  112OSM    C3S11613   4.120   4.686  10.540 -0.1276 -0.1762  0.1740
  112OSM    H3S11614   4.122   4.575  10.530 -1.9428 -0.1427 -0.8710
  112OSM     O311615   4.207   4.722  10.647 -0.1460  0.3845  0.7526
  112OSM    HO311616   4.147   4.750  10.717  0.1268 -1.7702  1.9227
  112OSM    C4S11617   4.165   4.743  10.410  0.3531  0.6919 -0.5353
  112OSM    H4S11618   4.172   4.659  10.340 -2.4072 -0.1803  0.1187
  112OSM    C5S11619   4.191   4.873  10.372  0.0264 -0.0125  0.2266
  112OSM    H5S11620   4.160   4.964  10.426 -2.7122  1.0889 -2.8644
  112OSM    C6S11621   4.250   4.906  10.239  0.3367  0.4422 -0.0062
  112OSM    H6S11622   4.303   5.003  10.251  1.5989 -0.2975  0.6749
  112OSM    H6T11623   4.167   4.927  10.168  0.0409 -1.0172 -0.1242
  112OSM    C7S11624   4.334   4.803  10.166 -0.4466  0.2131 -0.0497
  112OSM    H7S11625   4.268   4.716  10.144 -1.7646  1.7847 -2.9313
  112OSM    H7T11626   4.419   4.768  10.227 -0.3340 -0.8071 -0.7573
  112OSM    C8S11627   4.386   4.852  10.025  0.2305  0.4139  0.1894
  112OSM    H8S11628   4.472   4.922  10.038 -0.6752  1.5186  0.4103
  112OSM    H8T11629   4.302   4.904   9.974  1.7388  1.6590 -1.1311
  112OSM    C9S11630   4.435   4.741   9.928 -0.2933 -0.5402 -0.0541
  112OSM    H9S11631   4.349   4.674   9.906 -0.9005  0.6417 -1.5254
  112OSM    H9T11632   4.516   4.686   9.980  1.2874  1.2777 -0.4609
  112OSM   C10S11633   4.492   4.793   9.802 -0.0932  0.3772  0.8476
  112OSM   H10S11634   4.570   4.867   9.829  1.1891 -0.5548 -0.2297
  112OSM   H10T11635   4.412   4.852   9.752  2.8253  2.2369 -2.0620
  112OSM   C11S11636   4.537   4.684   9.703  0.5547 -0.3574  0.8398
  112OSM   H11S11637   4.461   4.605   9.681  1.2451 -0.4949 -1.3148
  112OSM   H11T11638   4.617   4.638   9.764 -0.5141 -0.6574  2.0583
  112OSM   C12S11639   4.611   4.725   9.574 -0.3930  0.4729 -0.1174
  112OSM   H12S11640   4.715   4.757   9.594  0.5661 -3.3099  1.7680
  112OSM   H12T11641   4.546   4.806   9.533  0.4011  1.3308  0.2911
  112OSM   C13S11642   4.618   4.628   9.457  0.4597 -0.5887 -1.3184
  112OSM   H13S11643   4.518   4.586   9.434  0.6371 -2.7886  1.4262
  112OSM   H13T11644   4.685   4.545   9.488  1.6329  1.1246  1.0237
  112OSM   C14S11645   4.672   4.699   9.342 -0.3734  0.4421  1.0149
  112OSM   H14S11646   4.773   4.741   9.363  0.1197  0.0503 -0.4492
  112OSM   H14T11647   4.613   4.786   9.304 -0.8402  1.2844  3.4913
  112OSM   C15S11648   4.675   4.597   9.220 -0.1235  0.1679  0.1478
  112OSM   H15S11649   4.569   4.564   9.209 -0.3027  0.6530  0.3988
  112OSM   H15T11650   4.731   4.510   9.261  0.4269 -0.6691 -2.2168
  112OSM   C16S11651   4.727   4.650   9.094  0.7628 -0.4261  0.1344
  112OSM   H16S11652   4.833   4.683   9.090  0.1769  1.5974  0.3844
  112OSM   H16T11653   4.670   4.741   9.069  0.8045  0.2731  2.3159
  112OSM   C17S11654   4.698   4.559   8.977  0.2083  0.3354 -0.1119
  112OSM   H17S11655   4.592   4.527   8.986  0.5212 -0.5487  0.6486
  112OSM   H17T11656   4.757   4.465   8.987 -0.2613 -0.3369 -2.8237
  112OSM   C18S11657   4.742   4.632   8.851  0.3944  0.2564  0.2421
  112OSM   H18S11658   4.847   4.667   8.854  1.0202 -1.2849 -1.5449
  112OSM   H18T11659   4.673   4.718   8.838  0.4857  0.2928 -0.0176
  112OSM   H18U11660   4.725   4.569   8.761 -2.1777  0.0090  0.8171
  112OSM    C1F11661   3.759   4.679  10.450  0.7138  0.2515  0.2461
  112OSM     OF11662   3.725   4.792  10.483  0.7238 -0.2273  0.4389
  112OSM    C2F11663   3.667   4.578  10.384 -0.8294 -0.6827  0.0745
  112OSM    H2F11664   3.566   4.625  10.379 -0.5558 -0.2055 -1.8028
  112OSM    H2G11665   3.669   4.490  10.452  1.8332 -0.1322  0.8056
  112OSM    C3F11666   3.709   4.544  10.238  0.6814  0.4676  0.1222
  112OSM    H3F11667   3.622   4.485  10.202  0.4421  0.4812  0.6765
  112OSM    H3G11668   3.795   4.473  10.238  0.6755  0.2971  3.5335
  112OSM    C4F11669   3.725   4.669  10.140  0.5702 -0.3579  0.3747
  112OSM    H4F11670   3.824   4.712  10.170  0.1797 -1.2229  3.2421
  112OSM    H4G11671   3.639   4.735  10.162 -0.6313 -0.5165 -3.2997
  112OSM    C5F11672   3.726   4.626   9.988 -0.5237 -0.3345 -0.5954
  112OSM    H5F11673   3.644   4.555   9.960 -3.0339  2.3814 -0.6109
  112OSM    H5G11674   3.817   4.563   9.975 -0.6383 -0.7350  0.4146
  112OSM    C6F11675   3.719   4.751   9.903  0.5891  0.8234 -0.0039
  112OSM    H6F11676   3.803   4.822   9.918  0.6986  0.8176 -0.5986
  112OSM    H6G11677   3.620   4.792   9.932  0.3228 -0.2629  0.7108
  112OSM    C7F11678   3.711   4.719   9.755  0.0487 -0.8459 -0.1206
  112OSM    H7F11679   3.670   4.616   9.753 -3.7748  0.4938  0.2888
  112OSM    H7G11680   3.816   4.730   9.721 -0.1582  2.3873  0.0033
  112OSM    C8F11681   3.617   4.796   9.661  0.7448  0.9265 -0.2920
  112OSM    H8F11682   3.521   4.794   9.718  0.8889 -0.2782 -0.0620
  112OSM    H8G11683   3.603   4.745   9.563  2.6451 -0.2568  0.0025
  112OSM    C9F11684   3.655   4.939   9.649 -0.6455  0.6663  0.5276
  112OSM    H9F11685   3.666   4.995   9.743  0.4461  2.9712 -0.8808
  112OSM   C10F11686   3.655   5.006   9.530 -0.2035 -0.3803 -0.4975
  112OSM   H10F11687   3.673   5.114   9.537 -2.9464  0.1088  0.3766
  112OSM   C11F11688   3.630   4.955   9.391  0.0094 -0.0916  0.2169
  112OSM   H11F11689   3.534   4.993   9.350  1.1559  0.3669 -2.2237
  112OSM   H11G11690   3.627   4.844   9.390 -1.6984 -0.0589 -0.5816
  112OSM   C12F11691   3.740   5.013   9.303  0.6215  0.3254  0.2221
  112OSM   H12F11692   3.840   4.983   9.342  1.3108  2.3808  0.1706
  112OSM   H12G11693   3.729   5.123   9.297  1.5291  0.4407  0.4362
  112OSM   C13F11694   3.712   4.969   9.151 -0.5665 -0.6838  0.0719
  112OSM   H13F11695   3.627   5.022   9.104 -1.3018 -1.0200  0.9891
  112OSM   H13G11696   3.676   4.864   9.150 -1.5706 -0.5057  3.8085
  112OSM   C14F11697   3.837   4.988   9.066 -0.5793 -0.3272  0.0288
  112OSM   H14F11698   3.895   4.894   9.081  0.7806  0.2592 -1.2861
  112OSM   H14G11699   3.894   5.074   9.106 -0.4137 -0.3064 -0.2500
  112OSM   C15F11700   3.802   5.016   8.920 -0.3572  0.0222  1.1836
  112OSM   H15F11701   3.741   5.109   8.918  0.5442  0.7487 -3.4887
  112OSM   H15G11702   3.735   4.934   8.885  0.9523 -0.8885  0.7399
  112OSM   C16F11703   3.916   5.047   8.829 -0.4078 -0.5207  0.2741
  112OSM   H16F11704   3.976   4.966   8.783  1.5503  1.0083 -0.0079
  112OSM   H16G11705   3.989   5.092   8.899  2.1619 -2.6385 -0.8835
  112OSM   C17F11706   3.884   5.147   8.717 -0.8209 -0.3248  0.7411
  112OSM   H17F11707   3.788   5.200   8.735 -1.2331 -1.3854  1.8582
  112OSM   H17G11708   3.871   5.083   8.627  1.0864 -1.6875  1.3495
  112OSM   C18F11709   4.000   5.258   8.707 -0.5445 -0.8209 -0.7095
  112OSM   H18F11710   3.951   5.350   8.667 -0.8663 -1.6068 -2.1976
  112OSM   H18G11711   4.096   5.219   8.669  0.6100  0.4354  0.7703
  112OSM   H18H11712   4.030   5.275   8.813  0.2582 -0.8815 -0.9216
  113OSM      N11713   0.041   1.780  10.643  0.4416  0.1740  0.3650
  113OSM    C1511714   0.092   1.639  10.645  0.3968  0.4591  0.5939
  113OSM   H15A11715   0.160   1.614  10.725  1.6973 -2.7759 -1.3387
  113OSM   H15B11716   0.142   1.621  10.551  0.3366 -1.2434  0.8704
  113OSM   H15C11717   0.010   1.569  10.650 -0.3253  0.9703 -2.2047
  113OSM    C1411718   0.057   1.827  10.778 -0.3450  0.7852 -0.6488
  113OSM   H14A11719   0.076   1.933  10.779  0.7291  0.5904  0.2692
  113OSM   H14B11720   0.136   1.784  10.837 -1.4378  0.2079  0.4535
  113OSM   H14C11721  -0.029   1.812  10.843  0.6021 -1.8538  0.1357
  113OSM    C1311722   0.135   1.862  10.559  0.1524 -0.0020 -0.4064
  113OSM   H13A11723   0.112   1.967  10.571 -1.7524 -0.3649 -0.6794
  113OSM   H13B11724   0.136   1.825  10.457 -0.4198 -0.1800 -0.3493
  113OSM   H13C11725   0.232   1.844  10.603  0.6453 -2.0510 -2.1885
  113OSM    C1211726  -0.103   1.770  10.578 -0.3001 -0.6830  0.5764
  113OSM   H12A11727  -0.098   1.720  10.483  0.7253  3.6190 -1.9179
  113OSM   H12B11728  -0.139   1.870  10.556 -0.1101 -1.2649 -3.0799
  113OSM    C1111729  -0.216   1.719  10.671  0.8139  0.2473  0.4462
  113OSM   H11A11730  -0.195   1.617  10.709 -0.1958 -0.6041 -1.1837
  113OSM   H11B11731  -0.315   1.706  10.621  1.0900  1.4034 -0.4357
  113OSM      P11732  -0.365   1.894  10.805  0.5441  0.0544  0.4391
  113OSM    O1311733  -0.485   1.809  10.803 -0.0472 -0.4563  0.4194
  113OSM    O1411734  -0.351   1.974  10.927 -0.0538 -0.0520 -0.2924
  113OSM    O1111735  -0.371   1.991  10.680 -0.1955  0.4178  0.6899
  113OSM    O1211736  -0.238   1.813  10.783  0.0135 -0.0411  0.1144
  113OSM    C1S11737  -0.261   2.076  10.642  0.4632  0.5920  0.3906
  113OSM    H1S11738  -0.170   2.016  10.624 -0.6429 -0.4044 -2.3230
  113OSM    H1T11739  -0.245   2.157  10.717  0.6177  2.6785 -1.7660
  113OSM     NF11740  -0.184   2.221  10.461 -0.2305  0.8473 -0.2391
  113OSM    HNF11741  -0.172   2.318  10.479 -2.7385  1.1530 -0.0054
  113OSM    C2S11742  -0.297   2.150  10.514  0.2819 -0.2565 -0.1077
  113OSM    H2S11743  -0.331   2.071  10.443  1.0635  0.1742 -0.9870
  113OSM    C3S11744  -0.417   2.247  10.530 -0.2918  0.3275 -0.2248
  113OSM    H3S11745  -0.374   2.331  10.588 -0.1908 -0.1198  0.3510
  113OSM     O311746  -0.519   2.194  10.614 -0.6242  0.4992 -0.3652
  113OSM    HO311747  -0.472   2.116  10.645 -2.2413 -0.7681 -0.9612
  113OSM    C4S11748  -0.479   2.296  10.403 -0.3225  0.0049 -0.1319
  113OSM    H4S11749  -0.520   2.397  10.393 -1.6735 -0.3579  1.2961
  113OSM    C5S11750  -0.520   2.216  10.295 -0.9425  0.3680 -0.8338
  113OSM    H5S11751  -0.501   2.108  10.284  2.0568  0.8057 -0.6214
  113OSM    C6S11752  -0.588   2.276  10.169  0.0817  0.4773  0.1657
  113OSM    H6S11753  -0.570   2.386  10.164 -0.4786  0.5558 -0.2559
  113OSM    H6T11754  -0.698   2.256  10.165  0.4955 -2.6161  1.4878
  113OSM    C7S11755  -0.534   2.222  10.032 -0.3837 -0.5463  0.1474
  113OSM    H7S11756  -0.537   2.112  10.041  0.0514 -0.7305 -1.6100
  113OSM    H7T11757  -0.427   2.250  10.016 -1.2816  1.1148 -4.7520
  113OSM    C8S11758  -0.590   2.263   9.895  0.8768 -0.8924  0.2753
  113OSM    H8S11759  -0.701   2.265   9.904  0.7240 -0.4835 -1.3426
  113OSM    H8T11760  -0.550   2.190   9.822  0.7018  0.5521 -1.3429
  113OSM    C9S11761  -0.551   2.412   9.851 -0.3751 -0.4338 -0.8154
  113OSM    H9S11762  -0.441   2.397   9.856 -0.1887  0.7092 -1.1165
  113OSM    H9T11763  -0.564   2.488   9.931  1.6239 -2.3971  1.5577
  113OSM   C10S11764  -0.614   2.451   9.719 -0.1786  0.2092 -0.3485
  113OSM   H10S11765  -0.636   2.559   9.712 -0.2362  0.1377 -1.4543
  113OSM   H10T11766  -0.711   2.397   9.724 -0.0364  0.0497  0.9769
  113OSM   C11S11767  -0.537   2.398   9.601  0.1796  0.3951 -0.1605
  113OSM   H11S11768  -0.511   2.290   9.604  1.8259  0.7956  1.2018
  113OSM   H11T11769  -0.433   2.436   9.610  0.2774  0.0421  0.2124
  113OSM   C12S11770  -0.623   2.429   9.475  0.3629 -1.0337 -0.3771
  113OSM   H12S11771  -0.640   2.539   9.470  1.0406 -0.9667 -1.5932
  113OSM   H12T11772  -0.729   2.399   9.488  0.3014 -0.3671  0.8495
  113OSM   C13S11773  -0.564   2.371   9.344 -0.0229  0.1346 -0.2477
  113OSM   H13S11774  -0.542   2.262   9.353  1.1940  0.2097 -1.8190
  113OSM   H13T11775  -0.467   2.422   9.325  1.8309 -3.1598 -0.4204
  113OSM   C14S11776  -0.648   2.392   9.212 -0.3957  0.6556  0.3449
  113OSM   H14S11777  -0.686   2.496   9.208 -3.6425 -0.4541 -1.0125
  113OSM   H14T11778  -0.741   2.332   9.218 -0.8323  1.2567 -0.2428
  113OSM   C15S11779  -0.579   2.343   9.077  0.3025 -0.6061  0.3217
  113OSM   H15S11780  -0.657   2.354   8.999 -1.5798  0.0676  2.1893
  113OSM   H15T11781  -0.553   2.235   9.083  2.4000 -0.6282 -4.8086
  113OSM   C16S11782  -0.451   2.417   9.042 -0.0429 -0.5269  0.2876
  113OSM   H16S11783  -0.352   2.376   9.073  0.9057  0.1307 -1.6645
  113OSM   H16T11784  -0.446   2.522   9.079  1.0611 -0.8233  1.0281
  113OSM   C17S11785  -0.431   2.443   8.886 -0.3357 -0.1866 -0.3825
  113OSM   H17S11786  -0.504   2.519   8.850 -0.3854 -0.5520 -1.0627
  113OSM   H17T11787  -0.444   2.353   8.822 -0.7421  0.5625 -1.4041
  113OSM   C18S11788  -0.294   2.502   8.843 -0.0246  0.1630  0.3072
  113OSM   H18S11789  -0.282   2.599   8.895 -0.0625  0.5993 -0.4835
  113OSM   H18T11790  -0.299   2.525   8.734 -2.2214  1.8230  0.6870
  113OSM   H18U11791  -0.207   2.441   8.878 -0.0344  0.3446  0.6518
  113OSM    C1F11792  -0.087   2.150  10.404  0.5218  0.2661  0.1214
  113OSM     OF11793  -0.093   2.029  10.403  0.3895 -0.0182 -0.1292
  113OSM    C2F11794   0.020   2.221  10.327  0.6596  0.2724 -0.4628
  113OSM    H2F11795   0.030   2.319  10.378 -0.5788 -0.4716  1.3090
  113OSM    H2G11796  -0.032   2.245  10.231 -1.4684 -0.4731  0.4419
  113OSM    C3F11797   0.147   2.148  10.295  0.4257  0.2117  0.1794
  113OSM    H3F11798   0.121   2.048  10.253 -1.1790 -0.0184  1.6127
  113OSM    H3G11799   0.202   2.140  10.391  3.1909 -1.2259 -1.3962
  113OSM    C4F11800   0.240   2.223  10.201  0.0144 -0.0156  0.5792
  113OSM    H4F11801   0.333   2.164  10.189 -0.1418 -0.5075  1.6492
  113OSM    H4G11802   0.260   2.325  10.241 -3.1309  0.9296  0.0219
  113OSM    C5F11803   0.180   2.241  10.058  0.6299 -0.4009 -0.2590
  113OSM    H5F11804   0.095   2.313  10.058 -0.2413 -1.4012 -0.4593
  113OSM    H5G11805   0.140   2.140  10.034  0.3602 -0.4833  0.5310
  113OSM    C6F11806   0.281   2.294   9.958 -0.3606  0.8613  0.7674
  113OSM    H6F11807   0.232   2.295   9.858 -0.0157  0.6412  0.5924
  113OSM    H6G11808   0.354   2.210   9.954 -0.2836  0.8694  1.7267
  113OSM    C7F11809   0.343   2.436   9.983 -0.0924 -0.3183  0.0932
  113OSM    H7F11810   0.422   2.449  10.061  0.5783  2.0593 -0.9149
  113OSM    H7G11811   0.255   2.498  10.009  0.1102  0.1319 -0.2856
  113OSM    C8F11812   0.409   2.500   9.860  0.4297 -0.7468  0.8792
  113OSM    H8F11813   0.457   2.431   9.787  3.1124 -0.3577  2.1665
  113OSM    H8G11814   0.502   2.552   9.890  0.9786 -0.7953 -0.6904
  113OSM    C9F11815   0.325   2.608   9.795  0.4165 -1.1926  0.0707
  113OSM    H9F11816   0.301   2.697   9.855 -0.8536 -0.8006 -0.9715
  113OSM   C10F11817   0.273   2.601   9.671  0.0510  0.2816  0.5434
  113OSM   H10F11818   0.224   2.695   9.643  0.4836  0.6916  1.1484
  113OSM   C11F11819   0.289   2.498   9.560 -0.7255  0.6121 -0.0268
  113OSM   H11F11820   0.188   2.459   9.535 -0.0921 -0.6257 -0.7528
  113OSM   H11G11821   0.350   2.411   9.590 -1.2682  0.3237  0.2507
  113OSM   C12F11822   0.349   2.553   9.429 -0.0813  0.0777 -0.1282
  113OSM   H12F11823   0.446   2.603   9.446 -0.5528  1.3718 -1.1420
  113OSM   H12G11824   0.281   2.625   9.379  1.3977  0.7318 -1.2356
  113OSM   C13F11825   0.381   2.426   9.341  0.0140  0.1676 -0.0278
  113OSM   H13F11826   0.283   2.381   9.314  0.4059 -0.1534 -0.9588
  113OSM   H13G11827   0.442   2.354   9.398 -1.1748 -0.8575 -0.0078
  113OSM   C14F11828   0.456   2.468   9.222 -0.5388 -0.2710  0.3133
  113OSM   H14F11829   0.546   2.514   9.269 -1.1378  1.5194 -0.2168
  113OSM   H14G11830   0.400   2.541   9.160  1.3501 -1.2413 -2.7792
  113OSM   C15F11831   0.518   2.360   9.136  0.0616 -0.3836  0.1677
  113OSM   H15F11832   0.440   2.292   9.097 -0.2677 -1.1121  1.9962
  113OSM   H15G11833   0.567   2.280   9.195  0.1422 -0.5359 -0.1049
  113OSM   C16F11834   0.595   2.432   9.020 -0.2055  0.0808 -0.5768
  113OSM   H16F11835   0.539   2.513   8.969  0.4980  0.2914 -1.0331
  113OSM   H16G11836   0.612   2.355   8.941 -1.0986  0.1473 -0.8455
  113OSM   C17F11837   0.729   2.502   9.043  0.3268  0.2550  0.0371
  113OSM   H17F11838   0.804   2.427   9.075  0.7019  0.0277 -1.3082
  113OSM   H17G11839   0.720   2.579   9.122  0.1879  2.6103 -2.1536
  113OSM   C18F11840   0.774   2.568   8.915 -0.2031  0.7322  0.2781
  113OSM   H18F11841   0.800   2.488   8.843 -0.5314 -0.4346  1.4141
  113OSM   H18G11842   0.858   2.640   8.926 -0.2251  0.9032 -0.6003
  113OSM   H18H11843   0.689   2.616   8.862  0.3721  1.0353 -0.3865
  114OSM      N11844   3.386   4.846  11.047 -0.0341  0.0018 -0.4241
  114OSM    C1511845   3.518   4.855  11.111 -1.2194  0.0391 -0.3755
  114OSM   H15A11846   3.591   4.824  11.037  0.0501  1.3664  0.2777
  114OSM   H15B11847   3.513   4.795  11.200 -0.7513  1.4494  0.6386
  114OSM   H15C11848   3.549   4.952  11.146  0.8628 -0.9991  0.8673
  114OSM    C1411849   3.391   4.923  10.922  0.3002 -0.4279  0.1607
  114OSM   H14A11850   3.292   4.942  10.883 -0.5826 -1.5741  1.7168
  114OSM   H14B11851   3.453   4.868  10.853 -0.4647  0.3941 -1.2210
  114OSM   H14C11852   3.433   5.018  10.951 -0.2459 -0.3334  0.6600
  114OSM    C1311853   3.354   4.699  11.017 -0.1261 -0.1780 -0.4143
  114OSM   H13A11854   3.253   4.687  10.980 -0.6167  0.2456  0.7324
  114OSM   H13B11855   3.374   4.628  11.096  2.9564  0.4707 -0.5120
  114OSM   H13C11856   3.424   4.661  10.944 -0.0221 -0.9068  0.0541
  114OSM    C1211857   3.282   4.900  11.143 -0.7727  1.0188 -0.2338
  114OSM   H12A11858   3.306   4.998  11.181  0.2650 -0.2693  2.7030
  114OSM   H12B11859   3.290   4.838  11.231  1.4693 -0.8816 -1.6348
  114OSM    C1111860   3.142   4.913  11.089  0.2813 -0.1033  0.0987
  114OSM   H11A11861   3.140   4.989  11.008 -1.2511 -2.8103 -2.5585
  114OSM   H11B11862   3.089   4.952  11.179 -0.2640 -1.6504  0.4718
  114OSM      P11863   2.969   4.785  10.950  0.2344  0.0041  0.2077
  114OSM    O1311864   2.965   4.645  10.901  0.2495 -0.1509  0.0770
  114OSM    O1411865   2.845   4.829  11.004  0.2616 -0.5772 -0.7862
  114OSM    O1111866   3.002   4.884  10.833 -0.1316 -0.7199 -0.0640
  114OSM    O1211867   3.082   4.788  11.054 -0.3924  0.9983  0.6303
  114OSM    C1S11868   3.073   4.836  10.714  0.3833  0.1757  0.3620
  114OSM    H1S11869   3.100   4.728  10.722 -0.2279  0.0096  0.2554
  114OSM    H1T11870   3.156   4.900  10.677 -0.4635 -0.3033 -2.6438
  114OSM     NF11871   3.044   4.741  10.484  0.1114  0.0845 -0.2795
  114OSM    HNF11872   3.084   4.792  10.408 -0.6148 -0.8749 -1.3354
  114OSM    C2S11873   2.973   4.812  10.597  0.4756  0.6321  0.3679
  114OSM    H2S11874   2.890   4.747  10.630  0.5656  0.4890  0.3118
  114OSM    C3S11875   2.915   4.943  10.550 -0.1705  1.0856 -0.0259
  114OSM    H3S11876   3.001   5.005  10.517  0.9867 -1.4760 -2.1883
  114OSM     O311877   2.854   5.021  10.659  0.4157 -0.2184  0.2684
  114OSM    HO311878   2.869   4.969  10.738 -0.1559  3.3400  3.0102
  114OSM    C4S11879   2.809   4.924  10.445  0.3443 -0.3158  0.0120
  114OSM    H4S11880   2.715   4.880  10.483  0.6317 -0.3187  0.7444
  114OSM    C5S11881   2.799   4.968  10.314  0.6257  0.1227 -0.4092
  114OSM    H5S11882   2.882   5.030  10.277  0.5946 -0.1458 -0.9390
  114OSM    C6S11883   2.672   4.962  10.224 -0.0891  0.5075  0.4075
  114OSM    H6S11884   2.604   5.049  10.234 -2.6283 -0.7886 -3.1192
  114OSM    H6T11885   2.611   4.874  10.254 -0.5084  0.9096  0.7354
  114OSM    C7S11886   2.710   4.959  10.076 -0.1581 -0.2363 -0.2279
  114OSM    H7S11887   2.749   4.858  10.050  1.2893  0.4920 -1.0324
  114OSM    H7T11888   2.784   5.036  10.045 -0.9793  0.4255 -0.6039
  114OSM    C8S11889   2.594   4.978   9.975  0.2671 -0.0079  0.2934
  114OSM    H8S11890   2.543   5.076   9.984  0.3722  0.0158  0.6381
  114OSM    H8T11891   2.511   4.909  10.002  0.0648  0.1890  0.1809
  114OSM    C9S11892   2.646   4.958   9.835 -0.0136 -0.2375 -0.5756
  114OSM    H9S11893   2.656   4.848   9.821  1.7141 -0.4677  1.8962
  114OSM    H9T11894   2.750   4.996   9.834 -0.1606  0.1863 -0.1321
  114OSM   C10S11895   2.553   5.017   9.728 -0.3623 -1.1690 -0.2859
  114OSM   H10S11896   2.529   5.124   9.746 -2.2798 -1.8948  1.9385
  114OSM   H10T11897   2.453   4.970   9.733 -0.8477 -0.4066 -2.1284
  114OSM   C11S11898   2.606   5.000   9.584 -0.3713  0.0856  0.3994
  114OSM   H11S11899   2.641   4.895   9.576 -1.0473 -0.1258  0.0849
  114OSM   H11T11900   2.690   5.069   9.563 -1.9559  1.3558 -2.2806
  114OSM   C12S11901   2.504   5.029   9.474  0.9660  0.7997 -0.5265
  114OSM   H12S11902   2.491   5.138   9.460 -0.0121  1.0235  1.6138
  114OSM   H12T11903   2.407   4.986   9.507  1.1621  0.5916 -0.2093
  114OSM   C13S11904   2.556   4.989   9.337  0.5691  0.2765 -0.2810
  114OSM   H13S11905   2.571   4.879   9.337 -1.2598 -0.0343  1.3220
  114OSM   H13T11906   2.655   5.033   9.312  1.0814 -0.0729  1.0830
  114OSM   C14S11907   2.468   5.016   9.216  0.1693  0.2544 -0.1585
  114OSM   H14S11908   2.456   5.126   9.211 -0.6146  0.3730  2.7435
  114OSM   H14T11909   2.365   4.976   9.231 -0.1980  1.4856  0.7883
  114OSM   C15S11910   2.532   4.964   9.082  0.3072  0.6373 -0.0464
  114OSM   H15S11911   2.545   4.855   9.095 -0.2526  0.7370  1.6999
  114OSM   H15T11912   2.627   5.011   9.050  0.7090  0.0657  0.3056
  114OSM   C16S11913   2.429   4.977   8.965 -0.2428  0.2837  1.0334
  114OSM   H16S11914   2.325   4.977   9.004 -0.6913  0.6489 -0.1291
  114OSM   H16T11915   2.446   4.893   8.895  1.3994  2.1157 -0.9054
  114OSM   C17S11916   2.446   5.109   8.883  0.0942  0.4418  0.0352
  114OSM   H17S11917   2.551   5.113   8.849 -0.0231  1.5097 -0.2366
  114OSM   H17T11918   2.423   5.195   8.949 -0.9700 -1.4786  2.3713
  114OSM   C18S11919   2.355   5.113   8.760 -0.2729  0.6239  0.2174
  114OSM   H18S11920   2.249   5.098   8.791  0.3720 -1.4219  1.5991
  114OSM   H18T11921   2.376   5.019   8.705 -1.5186  0.2487  0.3373
  114OSM   H18U11922   2.367   5.201   8.692  0.5032  0.0851 -0.3525
  114OSM    C1F11923   3.088   4.615  10.491 -0.5587  0.0381 -0.0559
  114OSM     OF11924   3.044   4.541  10.576 -0.2308 -0.6713 -0.8408
  114OSM    C2F11925   3.199   4.575  10.400  0.0803  0.5562  0.3793
  114OSM    H2F11926   3.293   4.612  10.446 -2.7399  4.6163  3.5400
  114OSM    H2G11927   3.200   4.633  10.305  0.0332  1.6135  1.0101
  114OSM    C3F11928   3.190   4.423  10.368 -0.8831  0.0676  0.4038
  114OSM    H3F11929   3.108   4.401  10.296 -0.9103  1.8795 -0.1681
  114OSM    H3G11930   3.169   4.363  10.459  2.5187 -1.1646  0.5357
  114OSM    C4F11931   3.325   4.370  10.296  0.6496  0.7390 -0.4089
  114OSM    H4F11932   3.304   4.262  10.286 -0.5373  0.9621 -0.4462
  114OSM    H4G11933   3.407   4.379  10.370 -0.8131  2.3420  1.1211
  114OSM    C5F11934   3.362   4.445  10.164  0.0375  0.0482 -0.0920
  114OSM    H5F11935   3.454   4.404  10.116  0.0762  0.2367 -0.1838
  114OSM    H5G11936   3.398   4.544  10.202  1.0087 -1.0027  1.8805
  114OSM    C6F11937   3.248   4.443  10.062 -0.5521  0.0670  0.5661
  114OSM    H6F11938   3.167   4.510  10.099 -2.0042 -1.7080  0.7759
  114OSM    H6G11939   3.205   4.341  10.061 -2.6379  0.8690  1.5189
  114OSM    C7F11940   3.293   4.480   9.922  0.2318 -0.4750 -0.4750
  114OSM    H7F11941   3.366   4.402   9.892 -0.0183 -1.1365  0.5710
  114OSM    H7G11942   3.351   4.575   9.928  0.2033 -0.4652 -0.3397
  114OSM    C8F11943   3.184   4.501   9.815 -0.2458  0.0674 -0.0497
  114OSM    H8F11944   3.225   4.525   9.715  0.5931 -1.4798 -0.1109
  114OSM    H8G11945   3.116   4.582   9.851  0.2374  0.6457 -0.4340
  114OSM    C9F11946   3.117   4.371   9.794 -0.1836  0.2683  0.7056
  114OSM    H9F11947   3.053   4.346   9.880  0.4065  0.2066  1.1262
  114OSM   C10F11948   3.121   4.282   9.697 -0.4779  0.3742 -0.2931
  114OSM   H10F11949   3.069   4.187   9.713  0.4356  0.0761  1.0878
  114OSM   C11F11950   3.199   4.285   9.567  0.0402  0.1007  0.9205
  114OSM   H11F11951   3.274   4.205   9.585 -0.9578 -0.6106  2.0887
  114OSM   H11G11952   3.253   4.378   9.540 -1.5728  0.5188 -1.1193
  114OSM   C12F11953   3.105   4.250   9.439 -0.1718  0.3140 -0.6906
  114OSM   H12F11954   3.027   4.328   9.450  1.5942  2.0980 -0.1704
  114OSM   H12G11955   3.060   4.149   9.439  0.4056 -0.0286  2.2147
  114OSM   C13F11956   3.175   4.274   9.306  0.2319 -0.1322  0.7480
  114OSM   H13F11957   3.261   4.204   9.299 -1.1486 -2.1104  2.5435
  114OSM   H13G11958   3.208   4.380   9.309 -0.2073 -0.0124  1.8999
  114OSM   C14F11959   3.084   4.267   9.181  0.9673  0.7281 -0.5527
  114OSM   H14F11960   2.989   4.322   9.195 -0.3729 -0.8617 -2.7213
  114OSM   H14G11961   3.057   4.159   9.185  0.7791  0.8148  1.0831
  114OSM   C15F11962   3.150   4.294   9.047  0.6943 -0.3962  0.1053
  114OSM   H15F11963   3.244   4.236   9.038 -0.0347 -1.4585 -0.8378
  114OSM   H15G11964   3.176   4.402   9.047  0.0375 -0.2146 -1.3586
  114OSM   C16F11965   3.064   4.254   8.920 -0.0709  0.1456  0.6669
  114OSM   H16F11966   3.118   4.295   8.832 -1.2142 -2.1428 -1.2223
  114OSM   H16G11967   2.969   4.310   8.931  0.4706  1.3798 -0.6215
  114OSM   C17F11968   3.035   4.105   8.886  0.2299 -0.4906  0.2929
  114OSM   H17F11969   3.135   4.060   8.905  0.4337 -0.4315 -0.5904
  114OSM   H17G11970   3.017   4.083   8.778  1.8105 -1.4500  0.1799
  114OSM   C18F11971   2.928   4.034   8.978  0.2343 -0.1893 -0.1105
  114OSM   H18F11972   2.977   4.001   9.072 -0.7846  0.6583  0.7391
  114OSM   H18G11973   2.876   3.949   8.928  0.2509 -0.8271  0.9385
  114OSM   H18H11974   2.852   4.112   9.002  0.7013  0.6175 -1.1859
  115OSM      N11975   5.562   5.057  11.008 -0.3784 -0.3586 -0.4183
  115OSM    C1511976   5.556   5.137  11.136  0.4874 -0.3575  1.0048
  115OSM   H15A11977   5.656   5.173  11.157  0.3038 -0.3029  1.8194
  115OSM   H15B11978   5.533   5.068  11.216  0.1354  2.3143  3.3960
  115OSM   H15C11979   5.480   5.214  11.138  1.7203  0.9421 -0.2545
  115OSM    C1411980   5.657   4.945  11.008 -0.2021 -0.3626 -0.2854
  115OSM   H14A11981   5.643   4.871  11.086  0.8816 -1.3854 -1.0216
  115OSM   H14B11982   5.756   4.981  11.032  0.2171 -0.4225 -1.7990
  115OSM   H14C11983   5.657   4.884  10.919  1.3150 -0.8143 -0.0125
  115OSM    C1311984   5.426   5.003  10.989 -0.0604 -0.0174  0.0529
  115OSM   H13A11985   5.388   4.936  11.065  0.0475  2.2273  2.2176
  115OSM   H13B11986   5.418   4.970  10.887  0.4561  2.4810 -0.8683
  115OSM   H13C11987   5.356   5.085  10.988  0.0261  0.0831  0.9590
  115OSM    C1211988   5.597   5.153  10.889 -0.2370  0.5663  0.2836
  115OSM   H12A11989   5.589   5.091  10.800 -0.6445 -0.6410  1.1287
  115OSM   H12B11990   5.700   5.183  10.877  0.5838 -1.2296  2.0736
  115OSM    C1111991   5.503   5.274  10.864  0.4124 -0.4172 -0.3339
  115OSM   H11A11992   5.553   5.342  10.791 -1.9237  2.7071  0.7709
  115OSM   H11B11993   5.505   5.342  10.952 -0.9710 -1.6545  0.7008
  115OSM      P11994   5.307   5.211  10.702 -0.3041  0.3670  0.2904
  115OSM    O1311995   5.225   5.086  10.703  0.3726 -0.2776  0.2437
  115OSM    O1411996   5.250   5.336  10.649 -0.5058  0.0680  0.0144
  115OSM    O1111997   5.435   5.186  10.612 -0.0211 -0.8811 -0.0230
  115OSM    O1211998   5.363   5.243  10.842 -0.4726 -0.5522 -0.5588
  115OSM    C1S11999   5.447   5.061  10.542  0.3296  0.0160 -0.8281
  115OSM    H1S12000   5.392   4.982  10.596  0.1170  1.3737  1.0413
  115OSM    H1T12001   5.555   5.036  10.536  0.2897 -0.0837 -1.1812
  115OSM     NF12002   5.404   4.950  10.328 -0.3375  0.0526  0.0141
  115OSM    HNF12003   5.461   4.935  10.247  0.1361  0.1259  0.3260
  115OSM    C2S12004   5.401   5.076  10.391  0.6808 -0.7259  0.6637
  115OSM    H2S12005   5.293   5.105  10.397  0.9569  0.5399 -0.2169
  115OSM    C3S12006   5.483   5.194  10.323  0.4837  1.3151  0.7287
  115OSM    H3S12007   5.587   5.155  10.314  0.4426  1.5533 -1.1899
  115OSM     O312008   5.480   5.317  10.395  0.3734 -0.5262 -0.3156
  115OSM    HO312009   5.476   5.270  10.478  1.5286 -1.1706 -0.6069
  115OSM    C4S12010   5.440   5.219  10.177  0.2465 -0.1031  0.2006
  115OSM    H4S12011   5.515   5.183  10.104  1.6294  0.3169  1.3759
  115OSM    C5S12012   5.342   5.307  10.142 -0.4032 -0.4237  0.1962
  115OSM    H5S12013   5.288   5.355  10.225  0.4263 -1.6451  1.4857
  115OSM    C6S12014   5.312   5.355  10.002 -0.3416  0.5471  0.6725
  115OSM    H6S12015   5.367   5.451   9.994 -0.0474  0.4233  1.1449
  115OSM    H6T12016   5.203   5.353   9.979 -0.1358 -0.6536 -0.3142
  115OSM    C7S12017   5.351   5.263   9.878 -0.2678 -0.2865 -0.0283
  115OSM    H7S12018   5.305   5.162   9.883 -1.8270  0.3450 -1.0531
  115OSM    H7T12019   5.462   5.260   9.887 -0.1987  0.2438 -0.6150
  115OSM    C8S12020   5.307   5.320   9.739  1.0696 -0.5782 -0.2372
  115OSM    H8S12021   5.332   5.428   9.733 -1.1054  0.0412  0.7030
  115OSM    H8T12022   5.197   5.317   9.725  1.0617  0.9105 -0.6720
  115OSM    C9S12023   5.381   5.259   9.627  0.0121  0.2669  0.5629
  115OSM    H9S12024   5.360   5.150   9.628  1.8819 -0.1563 -0.8746
  115OSM    H9T12025   5.488   5.278   9.647  0.2706 -1.2626  0.7496
  115OSM   C10S12026   5.355   5.311   9.478 -0.0486 -0.6101 -0.3944
  115OSM   H10S12027   5.370   5.421   9.480 -0.9027 -0.4034  3.7163
  115OSM   H10T12028   5.252   5.292   9.440 -0.5250 -2.0092  1.4263
  115OSM   C11S12029   5.465   5.250   9.392  0.3928 -0.1229  0.2278
  115OSM   H11S12030   5.444   5.145   9.362 -0.6459  0.0217  0.3989
  115OSM   H11T12031   5.558   5.254   9.453 -0.1058  2.1291  0.9438
  115OSM   C12S12032   5.492   5.336   9.258 -0.1570 -0.1251  0.2202
  115OSM   H12S12033   5.564   5.421   9.267 -0.5977  0.7296 -3.1785
  115OSM   H12T12034   5.401   5.381   9.213  1.3358  1.5395 -1.2754
  115OSM   C13S12035   5.547   5.237   9.152 -0.0695  0.2319 -1.4097
  115OSM   H13S12036   5.470   5.159   9.130  0.9778 -2.2856  2.8352
  115OSM   H13T12037   5.628   5.184   9.207 -1.1259  1.0921  1.1041
  115OSM   C14S12038   5.578   5.307   9.031 -0.3420 -0.7327 -0.6859
  115OSM   H14S12039   5.642   5.393   9.061  1.9370 -2.5601 -0.0681
  115OSM   H14T12040   5.476   5.345   9.006 -1.0779 -1.9945  0.2686
  115OSM   C15S12041   5.639   5.227   8.913  0.0115 -0.4914  0.3505
  115OSM   H15S12042   5.576   5.144   8.875  0.0555  0.3253 -1.6162
  115OSM   H15T12043   5.734   5.177   8.943 -0.8242 -1.1892  1.9363
  115OSM   C16S12044   5.664   5.304   8.781 -0.2922 -0.2982 -0.3930
  115OSM   H16S12045   5.740   5.374   8.820 -2.5892 -0.7855  6.1160
  115OSM   H16T12046   5.572   5.361   8.754 -1.1859 -1.0769  0.8841
  115OSM   C17S12047   5.702   5.230   8.653  0.6964 -0.1102 -0.0224
  115OSM   H17S12048   5.705   5.318   8.585 -4.0229  0.2905 -0.0682
  115OSM   H17T12049   5.615   5.171   8.617  0.2216  0.6973 -0.2221
  115OSM   C18S12050   5.829   5.145   8.666  0.0563  0.8787  0.1830
  115OSM   H18S12051   5.917   5.198   8.710  1.1880  0.7767 -1.8548
  115OSM   H18T12052   5.881   5.121   8.571  2.6876 -1.2062  2.0103
  115OSM   H18U12053   5.822   5.047   8.718  0.9806  1.4354  1.4232
  115OSM    C1F12054   5.324   4.853  10.361  0.0040 -0.1858 -0.3983
  115OSM     OF12055   5.241   4.870  10.445 -0.1533  0.5879 -0.3702
  115OSM    C2F12056   5.342   4.720  10.290 -0.3441 -0.0319  0.1430
  115OSM    H2F12057   5.357   4.640  10.366  0.4920 -0.7149 -0.7242
  115OSM    H2G12058   5.438   4.738  10.237  1.5759 -2.4321  2.5081
  115OSM    C3F12059   5.230   4.676  10.185 -0.3885  0.0074 -0.7673
  115OSM    H3F12060   5.205   4.764  10.123 -0.5656  0.0053 -0.7005
  115OSM    H3G12061   5.131   4.653  10.232  0.1236  0.6756  0.6840
  115OSM    C4F12062   5.280   4.561  10.100  0.1660  0.2076  0.0539
  115OSM    H4F12063   5.267   4.464  10.153  1.6106 -1.5287 -2.4959
  115OSM    H4G12064   5.383   4.573  10.059 -0.1143 -1.8138 -1.4010
  115OSM    C5F12065   5.192   4.560   9.975  0.1719 -0.7305 -0.2154
  115OSM    H5F12066   5.190   4.657   9.919 -1.9841 -1.5873 -1.7804
  115OSM    H5G12067   5.093   4.532  10.015 -0.7599  0.7432 -1.3633
  115OSM    C6F12068   5.232   4.443   9.875  0.4257 -1.3136  0.0990
  115OSM    H6F12069   5.252   4.358   9.944  0.8201  0.0865  1.7921
  115OSM    H6G12070   5.330   4.472   9.831  0.3953 -1.1646  0.1275
  115OSM    C7F12071   5.131   4.399   9.765  0.1766 -0.6621  0.0332
  115OSM    H7F12072   5.036   4.371   9.815  0.0293 -1.3351 -0.6018
  115OSM    H7G12073   5.173   4.312   9.710  1.4926 -0.0463  0.0276
  115OSM    C8F12074   5.112   4.512   9.660  0.4370  0.0127 -0.4189
  115OSM    H8F12075   5.209   4.546   9.619  0.6100 -0.3963 -0.3571
  115OSM    H8G12076   5.074   4.597   9.720 -0.7627 -0.3207 -0.6858
  115OSM    C9F12077   5.020   4.476   9.554  0.1311 -0.0318  0.2509
  115OSM    H9F12078   4.924   4.437   9.590  1.2619 -2.1368  1.1626
  115OSM   C10F12079   5.038   4.473   9.421 -0.4192  0.7231  0.3902
  115OSM   H10F12080   4.956   4.449   9.350 -1.0987 -0.1225  1.4282
  115OSM   C11F12081   5.161   4.508   9.337 -0.6992  0.5505  0.5909
  115OSM   H11F12082   5.253   4.515   9.399  1.1237 -0.1852 -1.8709
  115OSM   H11G12083   5.143   4.614   9.307  1.0305  0.3574 -1.3517
  115OSM   C12F12084   5.212   4.411   9.224  0.7414 -0.0849 -0.4883
  115OSM   H12F12085   5.243   4.313   9.265 -0.6192 -0.3073  0.0548
  115OSM   H12G12086   5.299   4.456   9.171  0.8733  0.4754  0.1936
  115OSM   C13F12087   5.095   4.387   9.128 -0.3428 -0.5087  0.5330
  115OSM   H13F12088   5.042   4.483   9.106  0.5274  0.0609  0.8369
  115OSM   H13G12089   5.014   4.319   9.160 -1.9953  0.4711 -1.3601
  115OSM   C14F12090   5.146   4.324   8.998  0.4923 -0.0815 -0.2199
  115OSM   H14F12091   5.206   4.234   9.025 -1.4997 -1.0432  1.2489
  115OSM   H14G12092   5.213   4.390   8.938  2.2832 -1.2917  0.3309
  115OSM   C15F12093   5.026   4.285   8.908  0.3209  0.0501  0.8116
  115OSM   H15F12094   4.960   4.371   8.883  2.1567  1.6306  1.1305
  115OSM   H15G12095   4.958   4.213   8.959  0.6107 -0.2493  0.7818
  115OSM   C16F12096   5.084   4.206   8.788 -0.3452  0.0723 -0.2362
  115OSM   H16F12097   5.152   4.269   8.727 -0.8805 -0.5743 -1.5174
  115OSM   H16G12098   4.994   4.187   8.728  0.1022  1.1575 -1.2874
  115OSM   C17F12099   5.146   4.066   8.817  0.0991  0.1534 -0.1234
  115OSM   H17F12100   5.065   4.005   8.861 -0.1452  0.4587 -0.1411
  115OSM   H17G12101   5.232   4.079   8.886 -0.8705 -1.1072  1.3693
  115OSM   C18F12102   5.183   3.981   8.699 -0.0828 -0.4673  0.3232
  115OSM   H18F12103   5.242   4.044   8.630  0.3709  0.5606  1.6161
  115OSM   H18G12104   5.097   3.950   8.635 -0.2412 -0.9622  0.7639
  115OSM   H18H12105   5.240   3.888   8.724 -0.6375 -0.5303  1.4224
  116OSM      N12106   2.645   5.911  11.150  0.2713 -0.1197 -0.1975
  116OSM    C1512107   2.759   5.815  11.162 -0.3092 -0.4074 -0.3656
  116OSM   H15A12108   2.818   5.816  11.072  0.4936 -0.1304  0.1475
  116OSM   H15B12109   2.721   5.715  11.173 -0.9420 -0.2808 -1.3692
  116OSM   H15C12110   2.818   5.845  11.248 -2.2160  0.8979  0.5428
  116OSM    C1412111   2.551   5.886  11.272  0.0402 -0.1865 -0.1984
  116OSM   H14A12112   2.529   5.782  11.290  0.9161 -0.0809  1.8827
  116OSM   H14B12113   2.454   5.932  11.260 -0.0599 -0.4806 -0.5256
  116OSM   H14C12114   2.588   5.916  11.369  0.0266  0.8782 -0.5108
  116OSM    C1312115   2.700   6.048  11.165 -0.5643  0.1099  0.3612
  116OSM   H13A12116   2.630   6.130  11.168 -0.6267  0.0718  0.0347
  116OSM   H13B12117   2.768   6.072  11.085  0.4000 -1.0857  0.7998
  116OSM   H13C12118   2.760   6.050  11.255 -1.0601 -1.5563  0.7642
  116OSM    C1212119   2.578   5.887  11.012 -0.0050 -1.2186 -0.4063
  116OSM   H12A12120   2.481   5.934  11.012 -0.5731 -2.3412 -0.6415
  116OSM   H12B12121   2.573   5.779  11.011  2.1828 -1.4436  1.9499
  116OSM    C1112122   2.654   5.941  10.892 -0.6444 -0.6014 -0.5298
  116OSM   H11A12123   2.675   6.050  10.898 -1.1640 -0.5085 -0.2803
  116OSM   H11B12124   2.579   5.942  10.809  0.0502  1.3620 -1.1786
  116OSM      P12125   2.913   5.928  10.846  0.1829  0.0346  0.0530
  116OSM    O1312126   2.903   6.070  10.885  0.3669  0.2495 -0.5445
  116OSM    O1412127   3.015   5.853  10.923  0.2459  0.1187 -0.5683
  116OSM    O1112128   2.948   5.912  10.692  0.5102  0.2664  0.4596
  116OSM    O1212129   2.771   5.861  10.858  0.5950  0.2919 -0.3083
  116OSM    C1S12130   2.875   5.990  10.599  0.6739 -0.1519  0.2877
  116OSM    H1S12131   2.888   6.099  10.616  0.3029 -0.1041  0.2812
  116OSM    H1T12132   2.767   5.963  10.598  0.5063  0.5090 -0.1566
  116OSM     NF12133   2.848   6.059  10.367  0.3791 -0.4537 -0.4874
  116OSM    HNF12134   2.791   6.009  10.303 -0.1117 -2.2718  1.2708
  116OSM    C2S12135   2.933   5.979  10.454  0.2821 -0.2061  0.2567
  116OSM    H2S12136   3.032   6.028  10.453  0.7268 -1.0619  0.5620
  116OSM    C3S12137   2.944   5.825  10.410 -0.4056 -0.1282 -0.2807
  116OSM    H3S12138   2.842   5.781  10.416 -0.5590  0.3861  1.6169
  116OSM     O312139   3.013   5.742  10.501 -0.2069  0.0226 -0.0706
  116OSM    HO312140   3.007   5.794  10.581 -3.2586  0.5490 -0.5343
  116OSM    C4S12141   2.994   5.814  10.265 -0.2656  0.4205  0.1013
  116OSM    H4S12142   2.915   5.819  10.189  0.6043 -1.5837 -1.0302
  116OSM    C5S12143   3.118   5.809  10.214 -0.4647 -0.0616 -0.6277
  116OSM    H5S12144   3.203   5.810  10.284 -0.6571  2.1281 -0.3455
  116OSM    C6S12145   3.155   5.787  10.068  0.3125  0.2042  0.2087
  116OSM    H6S12146   3.189   5.681  10.074  1.4125  0.6017  1.5394
  116OSM    H6T12147   3.241   5.853  10.043  0.4922  0.3889  1.2550
  116OSM    C7S12148   3.044   5.807   9.962  0.5813  0.6238  0.2296
  116OSM    H7S12149   2.986   5.902   9.969 -2.2900 -0.7272 -2.5086
  116OSM    H7T12150   2.968   5.728   9.980  1.6652 -0.4701  0.0459
  116OSM    C8S12151   3.099   5.786   9.822  0.4964 -0.4375  0.2480
  116OSM    H8S12152   3.081   5.678   9.802  0.4832 -0.6591  1.3981
  116OSM    H8T12153   3.203   5.822   9.804  0.5488 -0.4524  0.5139
  116OSM    C9S12154   3.015   5.863   9.723  0.4928  0.3225  0.2499
  116OSM    H9S12155   2.985   5.964   9.759 -0.0377  1.0568 -2.0507
  116OSM    H9T12156   2.917   5.814   9.708 -0.3642  2.4844 -1.8935
  116OSM   C10S12157   3.084   5.868   9.587 -0.4952 -0.5683  0.2853
  116OSM   H10S12158   3.105   5.764   9.555  2.0111  0.1648 -0.6780
  116OSM   H10T12159   3.182   5.919   9.595 -0.4054 -0.7320  0.2188
  116OSM   C11S12160   3.000   5.924   9.468 -0.2988 -0.2204 -0.3376
  116OSM   H11S12161   2.958   6.026   9.487 -0.4346 -0.3069 -0.1608
  116OSM   H11T12162   2.903   5.870   9.463 -0.9778  0.9217 -0.0081
  116OSM   C12S12163   3.070   5.931   9.329  0.4423  0.2176  0.1597
  116OSM   H12S12164   3.071   5.826   9.291  0.5624  0.1919  0.2345
  116OSM   H12T12165   3.174   5.966   9.350 -0.0315  1.1536  1.0589
  116OSM   C13S12166   3.014   6.026   9.226  0.1703  0.4147 -0.1812
  116OSM   H13S12167   3.013   6.126   9.276 -0.4064 -0.2482  1.1872
  116OSM   H13T12168   2.907   5.997   9.214  0.4954 -1.0082  0.2387
  116OSM   C14S12169   3.096   6.036   9.106 -0.2426  0.0085  0.8302
  116OSM   H14S12170   3.207   6.044   9.116  0.1822  0.0716 -2.5299
  116OSM   H14T12171   3.054   6.119   9.046 -0.7264 -1.3324 -0.7761
  116OSM   C15S12172   3.063   5.915   9.013 -0.9519 -0.2489  0.2437
  116OSM   H15S12173   2.954   5.929   8.995 -0.4394  1.9504 -1.4712
  116OSM   H15T12174   3.074   5.818   9.067  0.1418 -0.7821 -0.8673
  116OSM   C16S12175   3.138   5.908   8.879  0.7032 -0.1763  0.0234
  116OSM   H16S12176   3.093   5.819   8.829  0.6316 -1.0741  1.6228
  116OSM   H16T12177   3.247   5.889   8.893  1.5985  0.8654 -4.0346
  116OSM   C17S12178   3.134   6.033   8.789  0.1900  0.5264  0.1446
  116OSM   H17S12179   3.173   6.116   8.851  0.2433  0.7416 -0.1733
  116OSM   H17T12180   3.029   6.061   8.762 -0.3323 -1.4492 -0.0846
  116OSM   C18S12181   3.207   6.006   8.658 -0.4535  0.0289 -0.6519
  116OSM   H18S12182   3.175   5.913   8.606  1.7287 -0.7723 -0.6680
  116OSM   H18T12183   3.316   6.007   8.681 -0.8306 -1.9054  1.6240
  116OSM   H18U12184   3.187   6.096   8.595 -5.0198  0.8445  1.5774
  116OSM    C1F12185   2.855   6.193  10.369  0.1695 -1.0812 -0.3938
  116OSM     OF12186   2.954   6.256  10.417  0.3524  0.8691 -0.2932
  116OSM    C2F12187   2.743   6.271  10.311 -0.0167 -0.1439 -0.2041
  116OSM    H2F12188   2.684   6.309  10.397  1.0213  0.5725  0.2187
  116OSM    H2G12189   2.687   6.201  10.246  0.4262 -0.8708  0.1822
  116OSM    C3F12190   2.792   6.393  10.231 -0.9060  0.1103 -0.3461
  116OSM    H3F12191   2.850   6.354  10.145 -1.8262 -0.8900 -0.5285
  116OSM    H3G12192   2.850   6.465  10.293 -1.2190  1.5615 -1.6854
  116OSM    C4F12193   2.672   6.483  10.180  0.1755 -0.0461 -0.3456
  116OSM    H4F12194   2.620   6.502  10.277  0.5638  1.3250 -0.3816
  116OSM    H4G12195   2.607   6.410  10.127 -0.2993 -1.9353  2.6285
  116OSM    C5F12196   2.699   6.606  10.099 -0.3603 -0.0422  0.3625
  116OSM    H5F12197   2.764   6.577  10.014  0.2150  0.7745  0.5093
  116OSM    H5G12198   2.752   6.689  10.150  1.0028 -0.6722  0.0003
  116OSM    C6F12199   2.565   6.673  10.049 -0.3037  0.8510 -0.2953
  116OSM    H6F12200   2.497   6.679  10.137 -1.2931 -0.7417 -0.9019
  116OSM    H6G12201   2.521   6.597   9.982  0.3384 -2.8436  3.0776
  116OSM    C7F12202   2.585   6.805   9.972  0.0300  0.1001 -1.1853
  116OSM    H7F12203   2.655   6.867  10.032 -0.9520 -1.2384  1.4767
  116OSM    H7G12204   2.486   6.856   9.970  0.3276  0.6743 -2.7104
  116OSM    C8F12205   2.628   6.786   9.827  0.6283 -0.4781  0.0456
  116OSM    H8F12206   2.712   6.714   9.818  1.6352  0.3984  1.8210
  116OSM    H8G12207   2.669   6.885   9.797  2.4669 -0.6936  1.6656
  116OSM    C9F12208   2.507   6.746   9.742  0.1065 -0.2610 -0.1560
  116OSM    H9F12209   2.465   6.650   9.776 -1.5183 -0.3788 -2.3088
  116OSM   C10F12210   2.438   6.823   9.649 -0.6994  0.6920 -0.6775
  116OSM   H10F12211   2.349   6.783   9.599 -0.2377 -1.1020 -0.1313
  116OSM   C11F12212   2.472   6.968   9.609  0.2179 -0.0216  0.5910
  116OSM   H11F12213   2.548   6.972   9.528  0.8113  0.4032  1.1572
  116OSM   H11G12214   2.512   7.026   9.696  0.4005 -0.5755  0.8802
  116OSM   C12F12215   2.352   7.054   9.566  0.2076  0.7646 -0.1192
  116OSM   H12F12216   2.372   7.161   9.588  0.7670  0.6348  0.0453
  116OSM   H12G12217   2.268   7.022   9.631 -0.2135  1.5604 -0.2660
  116OSM   C13F12218   2.311   7.028   9.421 -0.5617 -0.6451  0.3776
  116OSM   H13F12219   2.297   6.925   9.383  0.8283  0.0623 -2.2722
  116OSM   H13G12220   2.394   7.065   9.358  0.8813  1.4687  3.2700
  116OSM   C14F12221   2.191   7.118   9.372  0.0104  0.0439  0.1717
  116OSM   H14F12222   2.198   7.211   9.433  1.6509  0.5245 -0.6904
  116OSM   H14G12223   2.089   7.081   9.398  1.4614 -2.6644  2.6323
  116OSM   C15F12224   2.210   7.159   9.224  0.6570 -0.3402 -0.7525
  116OSM   H15F12225   2.303   7.213   9.197 -0.1880  1.1909 -0.6973
  116OSM   H15G12226   2.143   7.243   9.197 -1.1248 -1.9376 -1.5999
  116OSM   C16F12227   2.157   7.044   9.139 -0.0969  0.3689 -0.8275
  116OSM   H16F12228   2.210   6.946   9.144 -1.1885 -0.2301 -0.7468
  116OSM   H16G12229   2.172   7.081   9.035  0.7835  0.1199 -0.7985
  116OSM   C17F12230   2.005   7.028   9.142  0.2473 -0.2662 -0.1912
  116OSM   H17F12231   1.951   7.120   9.174 -0.0670 -0.6453  0.3684
  116OSM   H17G12232   1.967   6.953   9.215 -1.9138  1.5605  0.7064
  116OSM   C18F12233   1.940   7.004   9.008 -0.0185  0.7266 -0.3855
  116OSM   H18F12234   1.972   6.911   8.957  0.6183 -0.2780  1.7090
  116OSM   H18G12235   1.977   7.084   8.940 -1.3704  0.3147 -1.6559
  116OSM   H18H12236   1.830   7.007   9.023  0.1736  4.7660  1.6605
  117OSM      N12237   6.711   0.574  10.790 -0.6424  0.2828  0.2580
  117OSM    C1512238   6.742   0.572  10.643 -0.3961 -0.1071 -0.3328
  117OSM   H15A12239   6.807   0.659  10.635  0.4376 -0.1781  3.5797
  117OSM   H15B12240   6.653   0.589  10.585 -1.2474 -0.7732  0.7464
  117OSM   H15C12241   6.791   0.486  10.600  1.4371  1.3050 -1.2292
  117OSM    C1412242   6.626   0.461  10.819 -0.2729  0.3243 -0.6552
  117OSM   H14A12243   6.568   0.468  10.909 -0.6527 -0.2742 -0.8506
  117OSM   H14B12244   6.674   0.365  10.835  0.2420  0.5704 -0.7008
  117OSM   H14C12245   6.558   0.455  10.735 -0.7129  1.9740 -0.4507
  117OSM    C1312246   6.843   0.557  10.861 -0.1407 -0.1506 -0.2654
  117OSM   H13A12247   6.906   0.481  10.818  1.2886  1.8514 -1.9209
  117OSM   H13B12248   6.835   0.546  10.968 -1.2092  2.1240 -0.0516
  117OSM   H13C12249   6.896   0.651  10.854  0.6417 -0.2563  2.8795
  117OSM    C1212250   6.647   0.705  10.827 -0.6240  0.3919  0.3390
  117OSM   H12A12251   6.573   0.689  10.904  0.4163 -1.1409  1.0657
  117OSM   H12B12252   6.599   0.729  10.733 -0.0715  0.3325  0.0358
  117OSM    C1112253   6.735   0.828  10.867 -0.4174  0.2246  0.0449
  117OSM   H11A12254   6.817   0.805  10.939 -0.2580  1.1156  0.1627
  117OSM   H11B12255   6.680   0.905  10.926  0.2648 -0.1417  1.1919
  117OSM      P12256   6.693   0.992  10.676  0.0174 -0.0889  0.0161
  117OSM    O1312257   6.564   0.939  10.636  0.7076 -0.2868 -0.0501
  117OSM    O1412258   6.698   1.105  10.766  0.3733 -0.1683  0.4663
  117OSM    O1112259   6.777   1.028  10.545 -0.6286  0.2423 -0.2047
  117OSM    O1212260   6.786   0.882  10.746 -0.7014 -0.3827 -0.0693
  117OSM    C1S12261   6.806   0.926  10.451  0.0977 -0.1650  0.8489
  117OSM    H1S12262   6.750   0.833  10.471 -1.0490 -0.5279 -3.2409
  117OSM    H1T12263   6.914   0.897  10.454  0.0619 -0.2848  3.5550
  117OSM     NF12264   6.771   0.849  10.209 -0.5439  0.3126  0.6254
  117OSM    HNF12265   6.856   0.850  10.158 -0.0604  0.1669  1.4090
  117OSM    C2S12266   6.753   0.959  10.303 -0.6890  0.1795 -0.1511
  117OSM    H2S12267   6.645   0.988  10.302 -0.6835  0.2082 -0.8918
  117OSM    C3S12268   6.826   1.087  10.257  0.0447 -0.6398  0.0079
  117OSM    H3S12269   6.930   1.062  10.227 -0.5827 -2.0203 -1.1530
  117OSM     O312270   6.822   1.193  10.352  0.5615 -0.0037  0.4235
  117OSM    HO312271   6.790   1.139  10.426 -0.9532 -2.1551 -1.6338
  117OSM    C4S12272   6.782   1.139  10.116 -0.2208 -0.1881  0.3696
  117OSM    H4S12273   6.804   1.067  10.035  1.4178  0.2317  0.4074
  117OSM    C5S12274   6.719   1.250  10.073  0.0065  0.4088 -0.1595
  117OSM    H5S12275   6.696   1.326  10.149 -0.7957  0.5231 -0.4987
  117OSM    C6S12276   6.692   1.294   9.933 -0.4486  0.5805  0.3628
  117OSM    H6S12277   6.757   1.382   9.915 -1.0841  1.6070  2.6187
  117OSM    H6T12278   6.589   1.334   9.922  0.3926  2.4547 -1.2457
  117OSM    C7S12279   6.714   1.203   9.813 -0.1707  0.3617 -0.0556
  117OSM    H7S12280   6.633   1.127   9.819 -0.3506  0.4863 -0.7601
  117OSM    H7T12281   6.813   1.152   9.823 -0.0644  0.8366  1.4188
  117OSM    C8S12282   6.712   1.273   9.677 -0.3050  0.3995  0.2420
  117OSM    H8S12283   6.766   1.369   9.680  0.0692  0.2003 -0.0031
  117OSM    H8T12284   6.609   1.314   9.671 -0.5617 -0.1302  0.7987
  117OSM    C9S12285   6.748   1.200   9.546 -0.1897  0.6706  0.1213
  117OSM    H9S12286   6.845   1.150   9.568  0.2434  1.6780  0.5836
  117OSM    H9T12287   6.767   1.269   9.461  0.2685 -0.3917 -0.6542
  117OSM   C10S12288   6.659   1.075   9.509  0.1787  0.1585  0.2988
  117OSM   H10S12289   6.555   1.111   9.492  0.4964 -0.0806 -2.5115
  117OSM   H10T12290   6.664   0.994   9.585 -1.1928 -0.8751 -0.6797
  117OSM   C11S12291   6.710   1.016   9.375  0.2877 -0.9024 -0.3475
  117OSM   H11S12292   6.643   0.933   9.346  1.0469 -0.8522 -2.4665
  117OSM   H11T12293   6.811   0.971   9.382  0.7918  0.1840 -0.3248
  117OSM   C12S12294   6.709   1.113   9.247 -0.1093  0.0910  0.0948
  117OSM   H12S12295   6.788   1.191   9.254  1.2445 -1.1989 -0.1011
  117OSM   H12T12296   6.612   1.166   9.249 -1.7974 -2.6633  3.1796
  117OSM   C13S12297   6.735   1.036   9.117 -0.2652 -0.0810 -0.3969
  117OSM   H13S12298   6.637   0.988   9.094  0.3676 -1.6538  0.0497
  117OSM   H13T12299   6.811   0.955   9.127  0.2814  0.3056 -1.3090
  117OSM   C14S12300   6.780   1.134   9.005 -0.3723  1.0632  0.8816
  117OSM   H14S12301   6.883   1.173   9.019 -0.5122  1.3417  1.1424
  117OSM   H14T12302   6.713   1.222   8.994 -2.3669 -0.4938 -0.0690
  117OSM   C15S12303   6.779   1.066   8.865 -0.8051  0.7828 -0.5352
  117OSM   H15S12304   6.771   1.146   8.789 -0.0536  0.7154 -0.6971
  117OSM   H15T12305   6.697   0.991   8.861  0.3820 -0.9534  3.1090
  117OSM   C16S12306   6.913   0.990   8.837  0.9570  0.1060 -0.1613
  117OSM   H16S12307   6.924   0.909   8.913  0.6858 -0.0593 -0.2986
  117OSM   H16T12308   7.003   1.053   8.854  0.3136  1.3017 -0.9761
  117OSM   C17S12309   6.925   0.941   8.689  0.5372  0.8789  0.3917
  117OSM   H17S12310   6.925   1.015   8.607 -0.4543 -0.0052 -0.4240
  117OSM   H17T12311   6.837   0.875   8.675  0.2411  1.3612 -0.0111
  117OSM   C18S12312   7.056   0.852   8.677  0.0705 -0.0493 -0.0434
  117OSM   H18S12313   7.146   0.910   8.706  0.9336 -1.1191 -0.5250
  117OSM   H18T12314   7.074   0.830   8.570  3.4405 -3.0598  0.9325
  117OSM   H18U12315   7.048   0.759   8.737 -0.1283  0.1105  0.1789
  117OSM    C1F12316   6.678   0.748  10.205 -0.1218 -0.6681  0.1537
  117OSM     OF12317   6.578   0.756  10.278  0.3510  0.3986  0.5158
  117OSM    C2F12318   6.707   0.623  10.118 -0.1282  0.6245  0.3870
  117OSM    H2F12319   6.711   0.533  10.184  1.6956  1.6704  1.8064
  117OSM    H2G12320   6.812   0.623  10.083 -0.1283 -0.8946  0.3132
  117OSM    C3F12321   6.607   0.609  10.002 -0.2712 -0.2139  0.1119
  117OSM    H3F12322   6.505   0.629  10.041 -0.9825 -4.6885  1.0572
  117OSM    H3G12323   6.608   0.505   9.962 -0.6801 -0.5347  0.9213
  117OSM    C4F12324   6.643   0.692   9.877  0.5232  0.8146  0.2425
  117OSM    H4F12325   6.679   0.796   9.896  1.7983  0.5078 -0.3794
  117OSM    H4G12326   6.562   0.710   9.803  0.7101 -0.6457 -0.3447
  117OSM    C5F12327   6.750   0.625   9.794  0.2921 -0.0522  0.0437
  117OSM    H5F12328   6.732   0.516   9.793 -0.1250  0.0132 -0.0616
  117OSM    H5G12329   6.849   0.647   9.840 -0.0694 -1.5747  1.6019
  117OSM    C6F12330   6.747   0.677   9.654 -0.0175  0.0779 -0.3681
  117OSM    H6F12331   6.747   0.788   9.645 -0.6574  0.1007 -0.2028
  117OSM    H6G12332   6.654   0.630   9.614  0.7712 -0.6262 -1.4142
  117OSM    C7F12333   6.857   0.623   9.571 -0.3438  0.5986  0.4803
  117OSM    H7F12334   6.850   0.514   9.590  1.2966  0.8198  2.7256
  117OSM    H7G12335   6.960   0.648   9.605  0.7815 -0.3639 -1.9625
  117OSM    C8F12336   6.844   0.653   9.420  0.0777 -0.3690  0.1241
  117OSM    H8F12337   6.948   0.640   9.382  0.2356  1.4383 -0.1564
  117OSM    H8G12338   6.824   0.762   9.415  0.0355 -0.3836 -0.0452
  117OSM    C9F12339   6.749   0.565   9.339 -0.7852 -0.8887  0.3837
  117OSM    H9F12340   6.649   0.570   9.383 -0.3331 -0.4644  1.4144
  117OSM   C10F12341   6.779   0.510   9.219 -0.0585  1.1164  0.0778
  117OSM   H10F12342   6.713   0.435   9.174  0.9581 -0.4654  1.1128
  117OSM   C11F12343   6.913   0.529   9.154 -0.2002  0.3044  0.0191
  117OSM   H11F12344   6.975   0.451   9.204 -0.4494  0.4235  0.5278
  117OSM   H11G12345   6.964   0.622   9.187 -0.0835 -0.1099  1.0723
  117OSM   C12F12346   6.904   0.524   9.004  0.0276  0.0503 -0.1815
  117OSM   H12F12347   7.000   0.556   8.957  1.0658 -1.5097  0.7864
  117OSM   H12G12348   6.831   0.599   8.967  0.5485 -0.0089 -1.3887
  117OSM   C13F12349   6.864   0.388   8.938  0.3033  0.0237  0.6028
  117OSM   H13F12350   6.764   0.350   8.965 -0.8742  2.1684 -0.4494
  117OSM   H13G12351   6.943   0.315   8.967  1.9550  1.0829 -1.0234
  117OSM   C14F12352   6.852   0.405   8.782 -0.0596  0.0652 -0.5549
  117OSM   H14F12353   6.811   0.507   8.761 -0.0617  0.6443  1.9530
  117OSM   H14G12354   6.773   0.339   8.741 -0.3832  0.0678  0.0519
  117OSM   C15F12355   6.988   0.382   8.711 -0.2257  0.2876  0.2059
  117OSM   H15F12356   7.068   0.382   8.788  0.2885  1.2393 -0.3107
  117OSM   H15G12357   7.013   0.462   8.638  0.0480 -0.0296 -0.0539
  117OSM   C16F12358   6.970   0.246   8.637  0.5973 -0.9610  0.1960
  117OSM   H16F12359   7.047   0.247   8.556  1.1243 -0.6832  0.6973
  117OSM   H16G12360   6.876   0.242   8.579  1.6715 -1.4797 -1.6025
  117OSM   C17F12361   6.978   0.119   8.729 -0.4638 -0.4233 -0.3086
  117OSM   H17F12362   6.916   0.142   8.818 -1.1271 -0.7220 -0.6895
  117OSM   H17G12363   7.083   0.105   8.763 -0.4027 -0.5234 -0.5394
  117OSM   C18F12364   6.909  -0.005   8.668  0.0353 -0.7798 -0.0573
  117OSM   H18F12365   6.808   0.026   8.633  0.6663 -0.0276 -1.2837
  117OSM   H18G12366   6.902  -0.086   8.744  0.9993 -0.6329  0.1959
  117OSM   H18H12367   6.957  -0.037   8.573  1.1408 -1.1053  0.5939
  118OSM      N12368   0.324   2.908  11.044 -0.4522  0.6847 -0.5343
  118OSM    C1512369   0.338   3.040  11.118  0.3704  0.2814  0.1649
  118OSM   H15A12370   0.251   3.103  11.110 -1.0446 -1.3959  1.4997
  118OSM   H15B12371   0.421   3.098  11.080  0.1865  1.3767  1.3963
  118OSM   H15C12372   0.346   3.019  11.224  2.5322  0.5720  0.1102
  118OSM    C1412373   0.407   2.801  11.104  0.3881  0.5517  0.1400
  118OSM   H14A12374   0.371   2.778  11.203 -0.7028 -3.6171 -1.0245
  118OSM   H14B12375   0.510   2.832  11.122  0.1466  0.4210  1.9817
  118OSM   H14C12376   0.408   2.711  11.044 -1.3187  0.4845  0.1670
  118OSM    C1312377   0.177   2.861  11.065  0.5325  0.2087 -0.5839
  118OSM   H13A12378   0.154   2.777  11.000  0.4501  0.9760 -1.5663
  118OSM   H13B12379   0.114   2.946  11.044  2.1044  1.7332  0.5275
  118OSM   H13C12380   0.169   2.835  11.170  2.9869 -0.8359 -0.5796
  118OSM    C1212381   0.364   2.926  10.902 -0.8444  0.1794  0.2958
  118OSM   H12A12382   0.316   3.016  10.867 -0.6839  0.0679 -0.2283
  118OSM   H12B12383   0.319   2.851  10.838 -3.1998  1.8544 -0.1350
  118OSM    C1112384   0.514   2.930  10.851 -0.2596 -0.5182 -0.5306
  118OSM   H11A12385   0.514   2.964  10.745 -0.1991  0.2865 -0.2834
  118OSM   H11B12386   0.540   2.822  10.854 -1.3310 -0.7743 -0.1249
  118OSM      P12387   0.638   3.154  10.916  0.1300  0.0647 -0.0302
  118OSM    O1312388   0.564   3.236  11.015 -0.5836  0.2582 -0.5009
  118OSM    O1412389   0.788   3.156  10.938 -0.2468  0.1846  0.5695
  118OSM    O1112390   0.589   3.195  10.771  0.3666 -0.2963  0.4993
  118OSM    O1212391   0.600   3.004  10.931 -0.8693  0.2261 -0.5975
  118OSM    C1S12392   0.679   3.156  10.664  0.0693  0.2535  0.8449
  118OSM    H1S12393   0.724   3.055  10.678  0.7745 -0.2218 -3.4791
  118OSM    H1T12394   0.767   3.224  10.664  1.3090 -1.3005  0.4008
  118OSM     NF12395   0.718   3.102  10.421  0.1485 -0.1987  0.8824
  118OSM    HNF12396   0.737   3.163  10.345  0.2960  0.8425  1.7371
  118OSM    C2S12397   0.618   3.151  10.517  0.2983  0.0687 -1.0968
  118OSM    H2S12398   0.536   3.075  10.513  0.5058 -0.1528 -1.1989
  118OSM    C3S12399   0.570   3.293  10.479  0.0514  0.4556 -0.0686
  118OSM    H3S12400   0.662   3.355  10.481  0.3691  0.3781 -4.2400
  118OSM     O312401   0.471   3.343  10.569  0.5016 -0.1487 -0.8038
  118OSM    HO312402   0.470   3.280  10.641  2.1146  1.5506  0.8285
  118OSM    C4S12403   0.511   3.306  10.337 -0.1387 -0.6063 -0.8102
  118OSM    H4S12404   0.565   3.365  10.262 -0.5210  0.5671 -0.1858
  118OSM    C5S12405   0.392   3.255  10.287 -0.9471  0.0232  0.2152
  118OSM    H5S12406   0.325   3.200  10.354 -2.0866  2.1537  0.9467
  118OSM    C6S12407   0.340   3.283  10.147 -1.1820 -0.5467 -0.5876
  118OSM    H6S12408   0.289   3.381  10.143  0.5190  0.4038 -0.1892
  118OSM    H6T12409   0.274   3.197  10.125 -1.3447 -0.2532 -1.2517
  118OSM    C7S12410   0.447   3.277  10.031 -1.0780 -0.0053 -0.2648
  118OSM    H7S12411   0.519   3.194  10.046 -2.2157 -0.4909  3.7915
  118OSM    H7T12412   0.503   3.372  10.042 -0.9832 -0.1190  0.2347
  118OSM    C8S12413   0.387   3.262   9.888 -0.0274 -0.3749  0.0939
  118OSM    H8S12414   0.325   3.351   9.865  3.0109  2.1541  0.9502
  118OSM    H8T12415   0.320   3.173   9.884 -0.4068 -0.0494 -2.2921
  118OSM    C9S12416   0.484   3.249   9.773  0.3670 -0.2545 -0.2412
  118OSM    H9S12417   0.441   3.208   9.679  0.2413 -1.0116  0.1437
  118OSM    H9T12418   0.555   3.168   9.800  1.1112  0.4832  0.0520
  118OSM   C10S12419   0.556   3.386   9.740 -0.2845 -0.4353  0.2104
  118OSM   H10S12420   0.615   3.414   9.831  0.2766  0.1306 -0.3140
  118OSM   H10T12421   0.476   3.460   9.719 -0.9820 -0.8050  1.4676
  118OSM   C11S12422   0.647   3.375   9.621 -0.0508  0.3496  0.2178
  118OSM   H11S12423   0.589   3.358   9.528 -3.6235 -1.9240  2.5635
  118OSM   H11T12424   0.694   3.277   9.646 -0.6059  0.2004  0.7088
  118OSM   C12S12425   0.761   3.476   9.621  0.1070  0.4476  0.4302
  118OSM   H12S12426   0.838   3.450   9.545  1.3223  1.2043  1.3684
  118OSM   H12T12427   0.805   3.471   9.723  2.2291 -0.1667 -0.4552
  118OSM   C13S12428   0.717   3.621   9.606 -0.7130  0.3668 -0.0899
  118OSM   H13S12429   0.801   3.685   9.642 -2.0498  1.0579  1.9345
  118OSM   H13T12430   0.623   3.646   9.659 -0.4788 -1.9037  1.5327
  118OSM   C14S12431   0.708   3.663   9.462  0.3613  0.4175  0.4922
  118OSM   H14S12432   0.653   3.760   9.463  0.1538  0.3810 -1.9725
  118OSM   H14T12433   0.654   3.583   9.407  1.3102  1.1664 -1.6270
  118OSM   C15S12434   0.842   3.706   9.412  0.2253  0.2065 -0.0283
  118OSM   H15S12435   0.920   3.629   9.432 -0.6423 -0.2892  1.6474
  118OSM   H15T12436   0.871   3.793   9.475  0.2335 -0.4211  0.8582
  118OSM   C16S12437   0.836   3.756   9.272 -0.1300  0.1357  0.2350
  118OSM   H16S12438   0.767   3.842   9.258  1.1098  1.0919 -0.1969
  118OSM   H16T12439   0.799   3.681   9.199 -0.7026 -0.4127  1.0782
  118OSM   C17S12440   0.971   3.800   9.209 -0.4070 -0.3464 -0.1696
  118OSM   H17S12441   1.051   3.723   9.222 -0.8090 -0.8333 -0.5395
  118OSM   H17T12442   1.002   3.892   9.263 -1.0050 -0.3050  0.1132
  118OSM   C18S12443   0.953   3.822   9.054 -0.6973  0.1586 -0.0033
  118OSM   H18S12444   1.034   3.888   9.017 -2.3047  2.0697 -0.2727
  118OSM   H18T12445   0.862   3.884   9.036 -1.2099 -0.7001 -0.4855
  118OSM   H18U12446   0.945   3.725   8.999  0.6869  1.2705 -2.3154
  118OSM    C1F12447   0.759   2.973  10.415  0.3614 -0.5850  0.0773
  118OSM     OF12448   0.708   2.888  10.490 -0.5556  0.4340 -0.1796
  118OSM    C2F12449   0.877   2.953  10.322 -0.8780  0.2867  0.2126
  118OSM    H2F12450   0.966   2.988  10.379  0.1849 -0.3298 -1.0217
  118OSM    H2G12451   0.858   3.008  10.227 -0.9116 -1.2409 -0.6970
  118OSM    C3F12452   0.888   2.800  10.305  0.1320  0.8083 -0.1477
  118OSM    H3F12453   0.801   2.754  10.253 -1.2426  0.1828  2.5178
  118OSM    H3G12454   0.910   2.754  10.403  1.1853  0.3856 -0.5670
  118OSM    C4F12455   1.005   2.755  10.211  0.6177 -0.2290 -0.6024
  118OSM    H4F12456   1.095   2.794  10.264 -0.8834  0.8890  1.2916
  118OSM    H4G12457   0.982   2.810  10.117  0.0441  2.1285  0.8239
  118OSM    C5F12458   1.021   2.606  10.187  0.4850 -0.2516 -0.3755
  118OSM    H5F12459   1.026   2.563  10.289 -1.4844 -3.3232 -1.4419
  118OSM    H5G12460   1.104   2.582  10.118  1.8355  2.2422  0.2541
  118OSM    C6F12461   0.890   2.537  10.136 -0.4703 -0.5305 -0.2835
  118OSM    H6F12462   0.867   2.594  10.043  0.2106  0.0185 -0.1205
  118OSM    H6G12463   0.817   2.553  10.218  0.5151 -0.7403  0.6452
  118OSM    C7F12464   0.931   2.384  10.120  0.1089  0.7114 -0.3929
  118OSM    H7F12465   0.987   2.352  10.210  2.3595 -0.2170 -2.0082
  118OSM    H7G12466   0.990   2.369  10.027 -1.7384 -1.2291 -1.3193
  118OSM    C8F12467   0.807   2.284  10.103  0.3129  0.6565 -0.1442
  118OSM    H8F12468   0.741   2.282  10.192  1.3290  0.4992  0.6158
  118OSM    H8G12469   0.856   2.185  10.095  1.1688  0.9596  1.2099
  118OSM    C9F12470   0.718   2.316   9.987 -0.0188 -0.3000 -0.3791
  118OSM    H9F12471   0.688   2.421   9.999  0.3298 -0.3604  1.2367
  118OSM   C10F12472   0.706   2.247   9.869  0.3010  0.4388 -0.8908
  118OSM   H10F12473   0.633   2.285   9.795 -0.5196 -0.7091 -0.7079
  118OSM   C11F12474   0.762   2.113   9.827 -0.4455 -0.0276  0.3883
  118OSM   H11F12475   0.701   2.063   9.749  0.8566 -0.0729 -0.6432
  118OSM   H11G12476   0.746   2.043   9.911 -1.6607 -1.6603 -1.1314
  118OSM   C12F12477   0.909   2.099   9.787  0.2616 -0.7123  0.5196
  118OSM   H12F12478   0.940   1.997   9.818 -0.6113 -0.4202  2.4822
  118OSM   H12G12479   0.971   2.159   9.857  0.2521  0.7727 -0.7027
  118OSM   C13F12480   0.939   2.108   9.635  0.4777 -1.0120  0.3068
  118OSM   H13F12481   0.870   2.036   9.587  0.1758  0.1435 -1.0448
  118OSM   H13G12482   1.045   2.075   9.629  0.7268 -0.2677  0.4573
  118OSM   C14F12483   0.915   2.247   9.572 -0.1817 -0.1472  0.4793
  118OSM   H14F12484   0.974   2.317   9.635  0.4561 -1.9294  1.9625
  118OSM   H14G12485   0.806   2.271   9.575 -0.0198  0.5636  1.2122
  118OSM   C15F12486   0.979   2.253   9.435  0.2633 -0.0112  0.1538
  118OSM   H15F12487   1.089   2.239   9.439  0.3175  0.6548  1.2827
  118OSM   H15G12488   0.970   2.359   9.403  3.2430 -0.3683 -2.4379
  118OSM   C16F12489   0.902   2.181   9.326  0.7868  0.2009  0.4626
  118OSM   H16F12490   0.796   2.212   9.338  1.3996  1.9281  1.7273
  118OSM   H16G12491   0.916   2.075   9.356  1.3509  0.7654  2.3008
  118OSM   C17F12492   0.953   2.204   9.189 -0.7176  0.4383 -0.3639
  118OSM   H17F12493   1.058   2.169   9.178 -1.2318 -0.3418 -4.8262
  118OSM   H17G12494   0.945   2.312   9.165 -1.3199  0.6762  0.8212
  118OSM   C18F12495   0.876   2.106   9.099  0.6032  0.1115  0.0062
  118OSM   H18F12496   0.771   2.129   9.070  0.3826 -1.8636 -0.9185
  118OSM   H18G12497   0.871   2.002   9.136 -0.3574  0.5860  1.2714
  118OSM   H18H12498   0.929   2.106   9.001  1.8594 -1.2678  0.6467
  119OSM      N12499   1.385   1.615  11.198 -0.0816  0.8454  0.3280
  119OSM    C1512500   1.397   1.553  11.337 -0.4447 -0.4296  0.1772
  119OSM   H15A12501   1.500   1.549  11.370  0.0077 -0.5122 -1.1874
  119OSM   H15B12502   1.348   1.457  11.345  1.3055 -1.6169 -2.0235
  119OSM   H15C12503   1.338   1.614  11.404 -1.1546 -2.6455  1.6751
  119OSM    C1412504   1.244   1.607  11.152 -0.4986 -0.1558 -0.4994
  119OSM   H14A12505   1.201   1.508  11.157  2.6013 -1.7001 -1.7344
  119OSM   H14B12506   1.236   1.654  11.055 -0.4817  2.5923  0.7423
  119OSM   H14C12507   1.180   1.660  11.220 -0.5907 -0.7034 -0.1544
  119OSM    C1312508   1.440   1.751  11.203 -0.4572  0.3310 -0.4315
  119OSM   H13A12509   1.401   1.807  11.120  0.1592  0.8156 -0.3968
  119OSM   H13B12510   1.547   1.744  11.189 -0.5892 -2.3055 -0.6450
  119OSM   H13C12511   1.422   1.809  11.292  1.2721  0.6684 -0.2737
  119OSM    C1212512   1.464   1.519  11.113 -0.0356  1.0642  0.6269
  119OSM   H12A12513   1.459   1.417  11.148  0.1439 -0.0353 -2.2507
  119OSM   H12B12514   1.567   1.539  11.134  0.1786 -0.2610  0.9763
  119OSM    C1112515   1.434   1.517  10.955 -0.6502 -0.0511  0.4290
  119OSM   H11A12516   1.337   1.470  10.928  0.8849 -3.4576  0.3177
  119OSM   H11B12517   1.511   1.452  10.909 -0.1126 -0.1032  1.3826
  119OSM      P12518   1.605   1.705  10.873  0.2465  0.1447 -0.5533
  119OSM    O1312519   1.586   1.843  10.833 -0.7488  0.3991 -0.4513
  119OSM    O1412520   1.686   1.682  10.995 -0.2534  0.0654  0.0409
  119OSM    O1112521   1.667   1.625  10.753 -0.5052  0.3821 -0.3226
  119OSM    O1212522   1.459   1.640  10.893  0.3214 -0.3772 -0.2054
  119OSM    C1S12523   1.593   1.588  10.631 -0.3139 -0.2223 -0.6189
  119OSM    H1S12524   1.506   1.653  10.609  0.1859  0.4604 -0.6264
  119OSM    H1T12525   1.543   1.489  10.633 -0.7226 -0.0485  2.1906
  119OSM     NF12526   1.620   1.533  10.390  0.1548  0.0825 -0.4964
  119OSM    HNF12527   1.623   1.442  10.349  2.3380 -0.6223  1.0734
  119OSM    C2S12528   1.692   1.559  10.514  0.2039  0.0962 -0.3507
  119OSM    H2S12529   1.747   1.655  10.499 -0.3420  0.5750  0.6285
  119OSM    C3S12530   1.805   1.458  10.559  0.5207 -0.1290 -0.3064
  119OSM    H3S12531   1.752   1.367  10.594 -0.2894 -0.7812 -3.0244
  119OSM     O312532   1.881   1.506  10.674 -0.1463 -0.2597  0.1503
  119OSM    HO312533   1.817   1.568  10.713 -1.8245 -1.6197 -0.3148
  119OSM    C4S12534   1.889   1.428  10.444 -0.5793  0.7102  0.4536
  119OSM    H4S12535   1.933   1.515  10.393  0.8919 -0.9028 -1.1961
  119OSM    C5S12536   1.911   1.308  10.395  0.2686  0.6153  0.0057
  119OSM    H5S12537   1.846   1.230  10.437  1.3800  0.2627  1.1156
  119OSM    C6S12538   1.976   1.276  10.268  0.1169  0.0107 -0.3010
  119OSM    H6S12539   1.993   1.171  10.236 -0.7225  0.0446 -0.8859
  119OSM    H6T12540   2.081   1.311  10.276  0.4154 -1.0921  0.8834
  119OSM    C7S12541   1.915   1.356  10.153 -0.3654 -0.0377  0.2248
  119OSM    H7S12542   1.968   1.332  10.059 -0.3377 -1.0718  0.4983
  119OSM    H7T12543   1.918   1.467  10.161 -0.3633  0.0690 -1.1173
  119OSM    C8S12544   1.768   1.312  10.112 -0.2998  0.1513 -0.3537
  119OSM    H8S12545   1.709   1.340  10.201  1.4143  0.1271  0.8361
  119OSM    H8T12546   1.767   1.202  10.092 -0.4133  0.2604 -0.9814
  119OSM    C9S12547   1.712   1.392   9.993  0.1735 -0.5145 -0.2007
  119OSM    H9S12548   1.732   1.500  10.008 -0.6158 -0.7626  3.9453
  119OSM    H9T12549   1.602   1.385   9.977 -1.1570  6.0797  2.5961
  119OSM   C10S12550   1.781   1.376   9.852  0.9602  0.1629 -0.1636
  119OSM   H10S12551   1.794   1.268   9.832 -0.0869 -0.1364  0.7030
  119OSM   H10T12552   1.881   1.423   9.866  1.0022  0.0526 -0.0939
  119OSM   C11S12553   1.702   1.441   9.735 -0.1298  0.3624  0.5089
  119OSM   H11S12554   1.665   1.542   9.764  0.2723  0.5245  0.4643
  119OSM   H11T12555   1.615   1.377   9.709  1.4870 -2.0787  0.7870
  119OSM   C12S12556   1.776   1.447   9.598  0.4479  0.0979 -0.1843
  119OSM   H12S12557   1.816   1.351   9.558 -0.8604  0.2818 -2.0768
  119OSM   H12T12558   1.866   1.511   9.608 -0.7664  1.9058 -0.3540
  119OSM   C13S12559   1.683   1.504   9.492  0.0211  1.1881  0.2990
  119OSM   H13S12560   1.643   1.605   9.515 -1.5627  0.7384 -0.3134
  119OSM   H13T12561   1.594   1.437   9.491  0.2806  0.8427 -0.1869
  119OSM   C14S12562   1.743   1.493   9.345  0.1783  0.3689  0.3634
  119OSM   H14S12563   1.758   1.386   9.321  3.6730  0.5207  1.4031
  119OSM   H14T12564   1.838   1.550   9.344  0.1803  0.3749 -0.4863
  119OSM   C15S12565   1.645   1.528   9.229  0.3958  0.3628  0.2101
  119OSM   H15S12566   1.593   1.622   9.259 -0.4164  0.5096 -1.5096
  119OSM   H15T12567   1.570   1.447   9.214 -1.4497  2.1369 -0.7461
  119OSM   C16S12568   1.724   1.551   9.098 -0.5756  0.2926  0.5195
  119OSM   H16S12569   1.761   1.457   9.050  0.4174  1.4374 -1.0878
  119OSM   H16T12570   1.813   1.618   9.097 -0.1637 -0.2393  0.2844
  119OSM   C17S12571   1.633   1.624   8.992 -0.5142  0.0178  0.2363
  119OSM   H17S12572   1.585   1.709   9.044 -2.6188 -1.7908  1.4315
  119OSM   H17T12573   1.550   1.554   8.967  0.9419 -1.5510 -0.3828
  119OSM   C18S12574   1.708   1.661   8.864 -0.1063 -0.2646  0.3810
  119OSM   H18S12575   1.645   1.713   8.789  1.1382  2.5011  1.0988
  119OSM   H18T12576   1.740   1.565   8.819 -0.2099  0.2049 -0.7278
  119OSM   H18U12577   1.793   1.730   8.882 -1.4124  0.9361  2.4020
  119OSM    C1F12578   1.529   1.627  10.351 -0.1445 -0.0836 -0.0486
  119OSM     OF12579   1.547   1.749  10.379  0.0335 -0.1650  0.1286
  119OSM    C2F12580   1.400   1.579  10.287  0.0559 -0.9152 -0.4569
  119OSM    H2F12581   1.335   1.539  10.369 -0.1001 -0.7509 -0.5014
  119OSM    H2G12582   1.410   1.491  10.219  1.7573 -1.3525  0.2893
  119OSM    C3F12583   1.318   1.699  10.214 -0.1471  0.2514 -0.1038
  119OSM    H3F12584   1.305   1.783  10.286  0.1644 -0.8158  1.2592
  119OSM    H3G12585   1.219   1.654  10.193 -0.3023  0.1914  0.7208
  119OSM    C4F12586   1.377   1.731  10.071 -0.2756  0.1973  0.0036
  119OSM    H4F12587   1.389   1.630  10.027  1.0841  0.4156 -0.1894
  119OSM    H4G12588   1.482   1.768  10.066 -0.4479  0.7351  0.3110
  119OSM    C5F12589   1.297   1.821   9.977  0.5217 -0.0474  0.8194
  119OSM    H5F12590   1.275   1.918  10.026 -1.0650 -0.7452  1.5295
  119OSM    H5G12591   1.198   1.775   9.957  0.4757  0.4488 -0.1754
  119OSM    C6F12592   1.373   1.840   9.845  0.5104 -0.3439  0.3002
  119OSM    H6F12593   1.388   1.741   9.796  2.3488  1.2239 -2.6014
  119OSM    H6G12594   1.478   1.873   9.859  0.0033  1.5527 -0.1756
  119OSM    C7F12595   1.308   1.931   9.738 -0.6307 -0.1437  0.6016
  119OSM    H7F12596   1.292   2.034   9.778 -0.2804  0.1976 -0.1045
  119OSM    H7G12597   1.204   1.898   9.718 -0.3247 -0.2728 -0.8786
  119OSM    C8F12598   1.381   1.934   9.604  0.1583 -0.3971  1.2503
  119OSM    H8F12599   1.395   1.827   9.578 -0.1593  0.1223 -1.2850
  119OSM    H8G12600   1.482   1.978   9.617 -0.3964  1.2449  0.3007
  119OSM    C9F12601   1.316   2.017   9.494 -0.1369 -0.3487 -0.0168
  119OSM    H9F12602   1.261   2.106   9.530 -0.3957 -0.6286  0.2913
  119OSM   C10F12603   1.319   2.001   9.363  0.1938 -0.0733 -0.1417
  119OSM   H10F12604   1.280   2.079   9.295  0.0676 -1.4508 -1.7320
  119OSM   C11F12605   1.380   1.891   9.290 -0.2045 -0.7043 -0.1444
  119OSM   H11F12606   1.458   1.839   9.351 -2.6365 -1.2453  2.7402
  119OSM   H11G12607   1.431   1.945   9.208  0.6764 -1.3917 -0.0733
  119OSM   C12F12608   1.280   1.787   9.239 -0.2437  0.0927 -1.0955
  119OSM   H12F12609   1.215   1.762   9.325  0.2779  0.3613 -0.6124
  119OSM   H12G12610   1.331   1.693   9.211  0.9910  0.3579  0.1478
  119OSM   C13F12611   1.193   1.833   9.119 -0.3054 -0.0751 -0.1263
  119OSM   H13F12612   1.246   1.893   9.042 -1.0361  1.1358  0.2771
  119OSM   H13G12613   1.113   1.903   9.152 -1.0692 -0.8864 -0.1901
  119OSM   C14F12614   1.128   1.718   9.039 -0.3797  0.2077  0.2621
  119OSM   H14F12615   1.112   1.637   9.113  1.7978  0.5994  1.2585
  119OSM   H14G12616   1.194   1.667   8.965  0.0223 -1.2187  1.5407
  119OSM   C15F12617   1.012   1.764   8.959 -0.3911  0.2117  0.2533
  119OSM   H15F12618   1.048   1.828   8.876 -0.1658  2.2966  1.8776
  119OSM   H15G12619   0.947   1.822   9.029  0.0763  3.2994 -1.6859
  119OSM   C16F12620   0.925   1.645   8.909  0.1984  0.2477 -0.4918
  119OSM   H16F12621   0.920   1.567   8.988  2.9078 -0.9664 -1.3695
  119OSM   H16G12622   0.971   1.600   8.818 -1.0410 -2.4890  0.1419
  119OSM   C17F12623   0.783   1.661   8.860 -0.3088 -1.0972  0.0186
  119OSM   H17F12624   0.732   1.722   8.938  2.0709  1.6666 -0.3692
  119OSM   H17G12625   0.731   1.564   8.850 -1.3148 -0.4768 -1.1988
  119OSM   C18F12626   0.768   1.751   8.735  0.2773  0.4086 -0.4969
  119OSM   H18F12627   0.817   1.850   8.747  2.9169 -0.8637  0.1298
  119OSM   H18G12628   0.661   1.767   8.710  0.5414  1.4688 -1.0113
  119OSM   H18H12629   0.803   1.699   8.644 -0.9675  1.2330 -1.4782
  120OSM      N12630   0.347   4.755  10.964 -0.0354  0.3279 -0.1789
  120OSM    C1512631   0.468   4.668  10.957  0.1890 -0.2930 -0.4342
  120OSM   H15A12632   0.484   4.593  11.033  2.9016 -1.7976 -2.3125
  120OSM   H15B12633   0.565   4.715  10.961  0.6708 -1.3582  0.9139
  120OSM   H15C12634   0.460   4.620  10.860 -2.8702 -0.9788  0.0568
  120OSM    C1412635   0.343   4.797  11.105 -0.3815  0.1366  0.5149
  120OSM   H14A12636   0.442   4.837  11.121  1.1856 -2.1271 -2.5447
  120OSM   H14B12637   0.324   4.721  11.179 -0.1200 -0.9071 -0.4697
  120OSM   H14C12638   0.266   4.871  11.120  0.4829  0.7986  1.8580
  120OSM    C1312639   0.362   4.875  10.876  0.2279 -0.1540 -0.1382
  120OSM   H13A12640   0.278   4.942  10.889 -0.4281 -0.2589 -3.0377
  120OSM   H13B12641   0.359   4.836  10.775 -0.1057  0.0921 -0.2269
  120OSM   H13C12642   0.459   4.921  10.884  0.5305 -0.9778  1.1393
  120OSM    C1212643   0.221   4.680  10.911  0.3332  0.0168  0.2938
  120OSM   H12A12644   0.131   4.719  10.955 -0.8227 -1.5140 -0.6038
  120OSM   H12B12645   0.236   4.580  10.949  3.1320  0.4832  0.6904
  120OSM    C1112646   0.193   4.667  10.761  0.8406 -0.3448  0.8801
  120OSM   H11A12647   0.188   4.770  10.721  2.4862  0.3486  2.3115
  120OSM   H11B12648   0.099   4.607  10.753  0.7510  0.0261 -1.9537
  120OSM      P12649   0.303   4.462  10.643 -0.2771 -0.1138  0.6177
  120OSM    O1312650   0.437   4.442  10.585  0.4431 -0.0658 -0.2890
  120OSM    O1412651   0.248   4.373  10.750  0.3589 -0.0879  0.4625
  120OSM    O1112652   0.190   4.459  10.527 -0.5200 -0.3281  0.5794
  120OSM    O1212653   0.300   4.609  10.689 -0.6765 -0.1161 -0.3526
  120OSM    C1S12654   0.208   4.510  10.397 -0.2827  0.7091  0.0889
  120OSM    H1S12655   0.291   4.452  10.352  1.3701  1.5452  1.9207
  120OSM    H1T12656   0.238   4.616  10.391  1.1964  0.4026  1.4693
  120OSM     NF12657   0.105   4.524  10.175 -0.2885  0.4379  0.2784
  120OSM    HNF12658   0.068   4.610  10.141 -1.1198  0.5062  1.2992
  120OSM    C2S12659   0.076   4.490  10.308  0.1011 -0.9658  0.4321
  120OSM    H2S12660   0.059   4.382  10.329 -1.4968 -0.5923  1.3006
  120OSM    C3S12661  -0.042   4.564  10.372  0.2125  0.4000 -0.0662
  120OSM    H3S12662  -0.022   4.672  10.359  0.0279  0.2360 -1.8829
  120OSM     O312663  -0.057   4.541  10.509  0.2221 -0.7343  0.3603
  120OSM    HO312664   0.014   4.487  10.545 -0.4930 -1.5713  0.5619
  120OSM    C4S12665  -0.166   4.527  10.292  0.7148 -0.2755  0.8653
  120OSM    H4S12666  -0.166   4.421  10.262 -1.6740 -0.6921  2.1268
  120OSM    C5S12667  -0.260   4.611  10.246 -0.5563 -0.0623  0.1054
  120OSM    H5S12668  -0.257   4.715  10.282  1.7168  0.2666 -0.8227
  120OSM    C6S12669  -0.383   4.591  10.158 -0.1558  0.3080  0.1563
  120OSM    H6S12670  -0.445   4.683  10.157 -0.9475 -0.2157  0.3811
  120OSM    H6T12671  -0.439   4.500  10.188 -2.4129  0.9225 -1.9309
  120OSM    C7S12672  -0.359   4.571  10.006 -0.1252  0.1733 -0.4312
  120OSM    H7S12673  -0.445   4.540   9.942  0.2725 -0.5938 -0.6152
  120OSM    H7T12674  -0.285   4.489  10.006 -0.2619  0.0252 -1.8298
  120OSM    C8S12675  -0.273   4.682   9.945  0.6507 -0.5856 -0.7679
  120OSM    H8S12676  -0.173   4.658   9.987  0.3809  0.4645  0.5368
  120OSM    H8T12677  -0.320   4.776   9.980  0.6702 -0.5950 -0.7167
  120OSM    C9S12678  -0.278   4.687   9.792  0.2226 -0.2972  0.6158
  120OSM    H9S12679  -0.330   4.782   9.769 -1.4408 -1.2725  0.0975
  120OSM    H9T12680  -0.346   4.611   9.746  0.6821  0.8048 -2.0696
  120OSM   C10S12681  -0.139   4.672   9.722  0.4487  0.6724  0.4812
  120OSM   H10S12682  -0.108   4.568   9.747 -0.5632 -0.3948 -2.2208
  120OSM   H10T12683  -0.066   4.751   9.749  0.7762  0.5805 -0.1091
  120OSM   C11S12684  -0.163   4.689   9.570 -0.7765 -0.3810  0.0232
  120OSM   H11S12685  -0.067   4.714   9.519  1.1515 -1.9719  2.6358
  120OSM   H11T12686  -0.231   4.776   9.557  0.1211  0.6077  1.6491
  120OSM   C12S12687  -0.211   4.567   9.489  0.2736 -0.1844 -0.1983
  120OSM   H12S12688  -0.314   4.544   9.521  0.3402  1.0543  0.9791
  120OSM   H12T12689  -0.145   4.480   9.511 -0.4817 -0.3586  1.5201
  120OSM   C13S12690  -0.209   4.583   9.340 -0.4519 -0.4943 -0.3313
  120OSM   H13S12691  -0.104   4.576   9.305  0.5198  0.5133  2.1238
  120OSM   H13T12692  -0.255   4.680   9.309  0.5637 -0.1644 -0.8456
  120OSM   C14S12693  -0.285   4.484   9.260 -0.0742  0.3623  0.3671
  120OSM   H14S12694  -0.392   4.498   9.285 -0.3687  1.0438 -1.1597
  120OSM   H14T12695  -0.260   4.379   9.285 -0.7110  0.5357  1.8606
  120OSM   C15S12696  -0.249   4.486   9.108 -0.6037 -0.3104 -0.6488
  120OSM   H15S12697  -0.286   4.390   9.068  1.8743 -1.9253  0.6762
  120OSM   H15T12698  -0.139   4.481   9.091 -0.5360  0.1857 -0.3856
  120OSM   C16S12699  -0.300   4.604   9.028  0.1086 -0.1443 -0.2791
  120OSM   H16S12700  -0.249   4.698   9.056  1.9975 -0.9946 -0.6785
  120OSM   H16T12701  -0.410   4.606   9.044  0.0095 -0.5031 -0.8700
  120OSM   C17S12702  -0.293   4.588   8.876  0.6555  0.2776 -0.3122
  120OSM   H17S12703  -0.299   4.478   8.860 -0.7458  0.3070 -0.0851
  120OSM   H17T12704  -0.196   4.627   8.839  1.4212 -0.4183  0.9049
  120OSM   C18S12705  -0.399   4.677   8.805  0.7023  0.0592 -0.2310
  120OSM   H18S12706  -0.395   4.666   8.695 -1.3598 -0.0646 -0.3363
  120OSM   H18T12707  -0.391   4.781   8.843 -0.9386 -0.1916  0.9194
  120OSM   H18U12708  -0.496   4.642   8.847  1.1694  1.1851  1.9716
  120OSM    C1F12709   0.193   4.457  10.108 -0.2882  0.2123 -0.2207
  120OSM     OF12710   0.224   4.344  10.144 -0.1746  0.5418  0.4342
  120OSM    C2F12711   0.253   4.525   9.988  0.2562 -0.1678  0.4882
  120OSM    H2F12712   0.362   4.509  10.002  0.5331  1.5514  0.5192
  120OSM    H2G12713   0.231   4.634   9.985 -1.3387 -0.4478 -2.2798
  120OSM    C3F12714   0.190   4.474   9.855 -0.6530 -0.1153 -0.6202
  120OSM    H3F12715   0.086   4.512   9.846 -1.2495 -1.8835 -1.4368
  120OSM    H3G12716   0.201   4.364   9.854  0.0820 -0.0607  0.2583
  120OSM    C4F12717   0.252   4.542   9.732  0.8189  0.1103  1.4027
  120OSM    H4F12718   0.354   4.500   9.715  1.2280  1.2881  0.7932
  120OSM    H4G12719   0.271   4.649   9.756 -1.6491  0.5366  1.7214
  120OSM    C5F12720   0.169   4.522   9.601 -0.1783 -1.1972  0.4138
  120OSM    H5F12721   0.169   4.620   9.548 -0.3643 -1.9898 -1.1176
  120OSM    H5G12722   0.061   4.505   9.620 -0.3202  1.1554  2.2134
  120OSM    C6F12723   0.228   4.424   9.497  0.2955 -0.1217 -0.6611
  120OSM    H6F12724   0.224   4.328   9.554  0.5701  0.4670  0.3700
  120OSM    H6G12725   0.336   4.449   9.488  0.0092  1.9176  0.9558
  120OSM    C7F12726   0.159   4.417   9.360  0.0037 -1.4596 -0.7552
  120OSM    H7F12727   0.163   4.516   9.310  0.8191  0.4134  2.7453
  120OSM    H7G12728   0.049   4.402   9.370 -0.0034 -0.7131  0.5127
  120OSM    C8F12729   0.217   4.300   9.266  0.6704 -0.1023  0.0830
  120OSM    H8F12730   0.220   4.215   9.338  0.4587 -1.0857 -1.0405
  120OSM    H8G12731   0.319   4.331   9.235  1.1470 -1.0902  0.5927
  120OSM    C9F12732   0.115   4.256   9.160  0.0553  0.6837  0.3426
  120OSM    H9F12733   0.021   4.222   9.207 -0.4818 -0.4089 -1.4234
  120OSM   C10F12734   0.146   4.242   9.030  0.4442 -0.0874  0.7176
  120OSM   H10F12735   0.066   4.209   8.961  1.1065 -2.1032  0.8442
  120OSM   C11F12736   0.282   4.272   8.966 -0.1941  0.1390  0.0251
  120OSM   H11F12737   0.336   4.177   8.944  1.7319  1.1263  0.2354
  120OSM   H11G12738   0.354   4.330   9.028  0.0403  1.0223 -1.0364
  120OSM   C12F12739   0.269   4.347   8.831  0.8690  0.0067 -1.4585
  120OSM   H12F12740   0.373   4.379   8.806  1.0477  0.2070 -0.4887
  120OSM   H12G12741   0.216   4.444   8.844  1.1380  0.0250 -0.4498
  120OSM   C13F12742   0.210   4.259   8.722 -0.0702 -0.0081 -0.6754
  120OSM   H13F12743   0.108   4.244   8.762  0.1536  2.1292  0.8557
  120OSM   H13G12744   0.267   4.163   8.722 -1.0162 -0.6929  2.7491
  120OSM   C14F12745   0.187   4.324   8.581 -0.9374  0.1508 -0.1307
  120OSM   H14F12746   0.290   4.324   8.539  0.6487  0.0660  3.4413
  120OSM   H14G12747   0.152   4.427   8.603 -0.1823 -0.1292  2.7429
  120OSM   C15F12748   0.089   4.259   8.490 -0.2962 -0.3196  0.3849
  120OSM   H15F12749   0.057   4.313   8.399  1.0503  1.7025  1.0333
  120OSM   H15G12750  -0.007   4.243   8.542 -1.1761 -0.4686 -1.2264
  120OSM   C16F12751   0.131   4.116   8.436 -0.0709 -0.1898 -0.3936
  120OSM   H16F12752   0.193   4.054   8.505  0.4591  1.3277  0.5212
  120OSM   H16G12753   0.198   4.149   8.353  2.3864  2.2969  2.3316
  120OSM   C17F12754   0.015   4.028   8.378  0.3080 -0.0178 -0.3753
  120OSM   H17F12755  -0.037   3.997   8.471  1.7990 -0.5444  0.3089
  120OSM   H17G12756   0.064   3.944   8.325  1.6970 -1.4102  2.8310
  120OSM   C18F12757  -0.084   4.105   8.293  0.3198  0.2226  0.1297
  120OSM   H18F12758  -0.164   4.048   8.242  0.0548  0.6907  0.0174
  120OSM   H18G12759  -0.035   4.170   8.216  1.1440 -0.2239  0.2716
  120OSM   H18H12760  -0.149   4.170   8.356 -0.5426 -1.2425  0.7782
  121OSM      N12761   5.979   1.808  10.998  0.1651  0.2985 -0.4987
  121OSM    C1512762   5.907   1.716  11.089  0.5217 -0.3432 -0.7234
  121OSM   H15A12763   5.874   1.625  11.041  0.8211 -1.5192  1.2186
  121OSM   H15B12764   5.813   1.765  11.107  0.8538  0.1844 -0.3964
  121OSM   H15C12765   5.966   1.703  11.178 -1.3399  1.5253  0.8842
  121OSM    C1412766   6.106   1.731  10.972 -0.5094 -0.1133  0.3520
  121OSM   H14A12767   6.172   1.781  10.903  0.5222  0.5170  1.7551
  121OSM   H14B12768   6.086   1.629  10.943  0.0344 -0.2700  0.5198
  121OSM   H14C12769   6.174   1.723  11.055  2.0063 -0.5222 -1.6138
  121OSM    C1312770   5.901   1.822  10.876  0.1783  0.0937 -0.0774
  121OSM   H13A12771   5.916   1.744  10.803  3.2603 -0.0837  0.5734
  121OSM   H13B12772   5.932   1.917  10.836  0.4304 -0.0943 -0.3291
  121OSM   H13C12773   5.797   1.827  10.905  0.1052 -1.7062  0.0780
  121OSM    C1212774   6.008   1.945  11.065  0.5561 -0.5118 -0.2348
  121OSM   H12A12775   6.067   2.004  10.997 -0.6875 -1.5076 -2.2994
  121OSM   H12B12776   6.068   1.936  11.154  0.7927 -2.1093 -0.5227
  121OSM    C1112777   5.891   2.044  11.099  0.3824  0.8863  0.3133
  121OSM   H11A12778   5.921   2.123  11.171 -1.2950  1.2913  0.6120
  121OSM   H11B12779   5.807   1.987  11.146 -0.0679 -0.6403 -2.1446
  121OSM      P12780   5.708   2.147  10.939 -0.3031 -0.4098 -0.3437
  121OSM    O1312781   5.617   2.034  10.971 -0.4571  0.2233  0.0207
  121OSM    O1412782   5.677   2.268  11.026 -0.3509 -0.2768  0.1404
  121OSM    O1112783   5.709   2.189  10.786 -0.2253 -0.3268 -0.5105
  121OSM    O1212784   5.855   2.109  10.971 -0.5865 -0.3403  0.2960
  121OSM    C1S12785   5.814   2.140  10.700 -0.0024 -0.2127 -0.7984
  121OSM    H1S12786   5.794   2.032  10.685 -0.6359 -0.5476  1.9004
  121OSM    H1T12787   5.915   2.145  10.746  0.6835 -3.6572 -1.6798
  121OSM     NF12788   5.908   2.149  10.480 -0.4560 -0.0156 -0.8923
  121OSM    HNF12789   6.005   2.169  10.487 -0.2435 -0.7136 -1.7391
  121OSM    C2S12790   5.811   2.217  10.566  0.9810 -0.6309 -0.2586
  121OSM    H2S12791   5.709   2.207  10.524  1.4653 -0.7404 -1.4411
  121OSM    C3S12792   5.830   2.375  10.600  0.2019  0.2341 -0.9105
  121OSM    H3S12793   5.927   2.394  10.651 -0.2479 -0.3392  0.1899
  121OSM     O312794   5.731   2.426  10.680 -0.4650 -0.3806 -0.7269
  121OSM    HO312795   5.678   2.347  10.687 -0.0304 -0.6417 -0.3548
  121OSM    C4S12796   5.828   2.458  10.479 -0.9073 -0.2191  0.5556
  121OSM    H4S12797   5.732   2.454  10.427 -0.1656 -0.8901 -0.8231
  121OSM    C5S12798   5.923   2.539  10.426 -0.4797  0.9551  0.3341
  121OSM    H5S12799   6.015   2.551  10.486 -1.8609 -1.4154  3.2185
  121OSM    C6S12800   5.917   2.630  10.311  0.2914  0.0649  0.1827
  121OSM    H6S12801   5.885   2.728  10.352 -1.0462  0.0619 -0.7796
  121OSM    H6T12802   5.829   2.597  10.251 -0.9093  0.8368  1.4656
  121OSM    C7S12803   6.033   2.647  10.213  0.1632 -0.0523 -0.2065
  121OSM    H7S12804   6.095   2.562  10.178  0.8765  0.4068 -0.0878
  121OSM    H7T12805   6.099   2.714  10.272 -0.2932  1.0937 -0.9637
  121OSM    C8S12806   6.000   2.731  10.085  0.5771 -0.1958 -0.4827
  121OSM    H8S12807   6.098   2.778  10.064  1.4155 -2.2376 -1.4922
  121OSM    H8T12808   5.930   2.810  10.117  1.2352 -0.9379  3.3452
  121OSM    C9S12809   5.965   2.649   9.958 -0.7290 -0.3838  0.4182
  121OSM    H9S12810   5.861   2.612   9.969 -0.1398 -1.6919  2.0538
  121OSM    H9T12811   6.025   2.555   9.965  1.8084  0.8947 -1.9618
  121OSM   C10S12812   5.991   2.730   9.833  0.3416 -0.1612 -0.2543
  121OSM   H10S12813   6.099   2.722   9.808  0.2430 -0.4021 -0.6069
  121OSM   H10T12814   5.983   2.840   9.848  0.5776 -0.0049 -1.1926
  121OSM   C11S12815   5.911   2.678   9.718  0.4152 -0.0270 -0.1572
  121OSM   H11S12816   5.807   2.715   9.730  0.0702 -1.2195  0.7716
  121OSM   H11T12817   5.902   2.567   9.709  0.1367 -0.2308  2.1894
  121OSM   C12S12818   5.966   2.730   9.584 -0.0728 -0.4440 -0.5543
  121OSM   H12S12819   6.073   2.703   9.578  0.1832  0.7573 -2.7219
  121OSM   H12T12820   5.960   2.841   9.589  1.6739 -0.3797  1.0984
  121OSM   C13S12821   5.899   2.673   9.458 -0.0163  0.5400 -0.9061
  121OSM   H13S12822   5.789   2.687   9.465  0.1425  1.8424 -0.7879
  121OSM   H13T12823   5.921   2.564   9.458 -0.4810  0.4368 -1.5638
  121OSM   C14S12824   5.960   2.734   9.333 -0.2036  0.1341  0.1755
  121OSM   H14S12825   6.069   2.714   9.341 -0.4231 -0.4160  2.4544
  121OSM   H14T12826   5.942   2.843   9.321 -0.7699  0.5556  3.6191
  121OSM   C15S12827   5.915   2.665   9.199 -0.3921  0.5206  0.2912
  121OSM   H15S12828   5.809   2.695   9.188  0.0291  1.4576 -1.5908
  121OSM   H15T12829   5.907   2.555   9.210 -0.1833  0.4601 -0.1622
  121OSM   C16S12830   5.986   2.706   9.067 -0.2288  0.0401  0.0549
  121OSM   H16S12831   6.091   2.675   9.047  0.1188  0.1045  1.6090
  121OSM   H16T12832   5.998   2.816   9.069  1.4002 -0.1184  0.8545
  121OSM   C17S12833   5.889   2.657   8.950  0.0984 -0.0786  0.3106
  121OSM   H17S12834   5.788   2.703   8.955  0.0453 -0.2936  1.5190
  121OSM   H17T12835   5.890   2.546   8.957  0.1683 -0.2316 -1.6430
  121OSM   C18S12836   5.952   2.690   8.817 -0.1814 -1.2250  1.0790
  121OSM   H18S12837   5.889   2.674   8.726  1.9880  1.5649 -1.1020
  121OSM   H18T12838   6.043   2.629   8.801  0.6744  0.4072 -0.6951
  121OSM   H18U12839   5.981   2.796   8.801 -0.5272 -1.1215  1.1123
  121OSM    C1F12840   5.877   2.048  10.409  0.2086 -0.7798  0.0681
  121OSM     OF12841   5.771   1.986  10.420 -0.1377 -0.1889  0.9968
  121OSM    C2F12842   5.983   1.994  10.317  0.4378  0.2572  0.0418
  121OSM    H2F12843   6.054   1.936  10.380 -1.3455 -0.2222  1.6889
  121OSM    H2G12844   6.040   2.080  10.274  0.6594 -0.2042 -0.5983
  121OSM    C3F12845   5.926   1.913  10.203 -0.0685  0.5783 -0.5667
  121OSM    H3F12846   5.835   1.958  10.158 -2.0405 -1.2592  1.3451
  121OSM    H3G12847   5.904   1.809  10.235  2.0675  0.0510 -0.6557
  121OSM    C4F12848   6.025   1.883  10.093 -0.4111 -0.5273  0.2440
  121OSM    H4F12849   5.986   1.784  10.059 -0.3578  0.5445 -3.3600
  121OSM    H4G12850   6.128   1.876  10.134 -0.6093  0.5666  0.9628
  121OSM    C5F12851   6.011   1.977   9.974 -0.3478  0.4118  0.0807
  121OSM    H5F12852   6.037   2.083   9.998  1.2671  0.2257 -0.6815
  121OSM    H5G12853   5.911   1.965   9.928 -0.2943  1.3663 -0.3244
  121OSM    C6F12854   6.106   1.933   9.860  0.0529  0.0906  0.2980
  121OSM    H6F12855   6.106   1.822   9.857 -2.4515  0.0490 -0.1489
  121OSM    H6G12856   6.209   1.960   9.893  0.7317  1.0558 -2.3094
  121OSM    C7F12857   6.079   1.993   9.727  0.4605 -0.0768 -0.5036
  121OSM    H7F12858   6.060   2.103   9.734  1.7946  0.1627 -0.3577
  121OSM    H7G12859   5.980   1.953   9.696  0.1792  1.0303 -1.1066
  121OSM    C8F12860   6.176   1.958   9.616  0.0294  0.1200 -0.1524
  121OSM    H8F12861   6.168   1.848   9.603  2.7326 -0.0017 -1.2315
  121OSM    H8G12862   6.276   1.971   9.662 -0.6462 -0.7948  1.6979
  121OSM    C9F12863   6.156   2.039   9.488  0.3160  0.1289  0.7445
  121OSM    H9F12864   6.134   2.146   9.498 -0.1716  0.3142 -1.7325
  121OSM   C10F12865   6.172   1.987   9.365  0.3246 -0.2782 -0.3548
  121OSM   H10F12866   6.141   2.043   9.276 -3.2869 -0.7833  0.4151
  121OSM   C11F12867   6.226   1.851   9.345  0.1551 -0.4471 -0.5782
  121OSM   H11F12868   6.186   1.774   9.415  2.3435 -1.0477  0.0756
  121OSM   H11G12869   6.336   1.844   9.358  0.3623 -2.0179 -2.5722
  121OSM   C12F12870   6.213   1.806   9.193  0.6251 -0.0314 -0.0337
  121OSM   H12F12871   6.106   1.813   9.163  0.2163 -1.0390  1.0905
  121OSM   H12G12872   6.237   1.698   9.188 -0.3470 -0.2184 -0.8868
  121OSM   C13F12873   6.307   1.885   9.107 -0.1439 -0.0530  0.1223
  121OSM   H13F12874   6.416   1.875   9.128  0.0988 -0.8426 -1.3179
  121OSM   H13G12875   6.285   1.993   9.116 -1.3682 -0.2356 -0.4378
  121OSM   C14F12876   6.291   1.860   8.956 -0.4561 -0.3966 -0.3664
  121OSM   H14F12877   6.187   1.884   8.926 -0.9595  1.3334  2.4388
  121OSM   H14G12878   6.312   1.753   8.932 -1.6689 -0.6870 -0.1889
  121OSM   C15F12879   6.382   1.947   8.866 -0.3424  0.3117 -0.9574
  121OSM   H15F12880   6.480   1.897   8.854 -0.7061 -0.4576 -0.7687
  121OSM   H15G12881   6.413   2.047   8.904  1.8825 -0.3842 -0.8621
  121OSM   C16F12882   6.325   1.983   8.729  0.2474 -0.0813 -0.2968
  121OSM   H16F12883   6.392   2.058   8.682 -1.3899  0.2562 -2.2383
  121OSM   H16G12884   6.221   2.018   8.749  0.7261  0.3476  1.5922
  121OSM   C17F12885   6.289   1.865   8.639 -0.2361 -0.3748  0.0570
  121OSM   H17F12886   6.230   1.787   8.694  1.2053 -2.5630 -1.3391
  121OSM   H17G12887   6.382   1.815   8.605 -0.8158  0.4147 -2.9274
  121OSM   C18F12888   6.214   1.907   8.510 -0.5918  0.6308 -0.3089
  121OSM   H18F12889   6.274   1.973   8.445 -2.6082  2.3887 -0.4814
  121OSM   H18G12890   6.124   1.959   8.549 -0.1872 -1.2217  3.5990
  121OSM   H18H12891   6.181   1.824   8.444  0.4388  1.1624 -1.5412
  122OSM      N12892   1.651   5.097  10.924  0.2134 -0.1306  0.3968
  122OSM    C1512893   1.602   4.982  10.836 -0.2822  0.2333 -0.0517
  122OSM   H15A12894   1.503   5.005  10.799 -0.2494  1.9112  0.7889
  122OSM   H15B12895   1.581   4.905  10.908  1.5660 -0.0501  0.2318
  122OSM   H15C12896   1.670   4.944  10.762  1.9860  1.5225  1.2476
  122OSM    C1412897   1.551   5.111  11.040 -0.0949  0.1068 -0.0234
  122OSM   H14A12898   1.544   5.018  11.095  1.6404 -0.9361 -1.4705
  122OSM   H14B12899   1.452   5.129  10.999  0.5975 -0.3531 -1.9789
  122OSM   H14C12900   1.575   5.188  11.112  2.4170 -0.4172 -0.2270
  122OSM    C1312901   1.783   5.058  10.976 -0.6694  0.1434 -0.5574
  122OSM   H13A12902   1.772   4.972  11.040  0.3395 -0.3384 -1.0109
  122OSM   H13B12903   1.828   5.128  11.045 -1.4148  0.1595 -0.0822
  122OSM   H13C12904   1.847   5.023  10.896  0.7857  0.2528  0.5131
  122OSM    C1212905   1.670   5.228  10.846 -0.7046 -0.2358 -0.6383
  122OSM   H12A12906   1.766   5.214  10.798  0.6215 -2.0327  2.2850
  122OSM   H12B12907   1.680   5.310  10.915 -0.4655 -1.4333  0.7872
  122OSM    C1112908   1.561   5.271  10.741  0.1644 -0.3074 -0.3090
  122OSM   H11A12909   1.538   5.190  10.669  1.0808 -0.3570 -0.5527
  122OSM   H11B12910   1.588   5.362  10.682  1.4766 -0.6740 -0.2817
  122OSM      P12911   1.298   5.279  10.773  0.2470  0.3396 -0.0530
  122OSM    O1312912   1.265   5.143  10.823 -0.1797  0.3057  0.2725
  122OSM    O1412913   1.211   5.389  10.819 -0.9304  0.6616 -0.2371
  122OSM    O1112914   1.300   5.276  10.617  0.8604 -0.1590 -0.3281
  122OSM    O1212915   1.447   5.311  10.811  0.1634 -0.1414  0.2117
  122OSM    C1S12916   1.299   5.395  10.542 -0.2936 -0.4053  0.2420
  122OSM    H1S12917   1.405   5.422  10.522 -0.2988  0.3171  1.1376
  122OSM    H1T12918   1.254   5.481  10.596  0.0523 -0.0529 -0.0253
  122OSM     NF12919   1.253   5.480  10.307 -0.5159 -0.0009 -0.4155
  122OSM    HNF12920   1.184   5.552  10.302  0.5518  1.1258  0.1800
  122OSM    C2S12921   1.225   5.374  10.405 -0.0769  0.4673  0.1037
  122OSM    H2S12922   1.260   5.277  10.364 -0.5007  0.8987 -1.3505
  122OSM    C3S12923   1.071   5.346  10.429 -0.3951 -0.2397 -0.3893
  122OSM    H3S12924   1.020   5.437  10.468 -2.0406 -0.8994 -0.9095
  122OSM     O312925   1.033   5.245  10.521  0.0918  0.1321  0.6919
  122OSM    HO312926   1.108   5.242  10.580  1.4695  1.4697 -0.8614
  122OSM    C4S12927   1.008   5.309  10.302  0.2300  0.8745  0.0251
  122OSM    H4S12928   1.032   5.204  10.280 -0.5093  0.9231 -1.0525
  122OSM    C5S12929   0.922   5.383  10.227 -0.0316  0.1706  0.2968
  122OSM    H5S12930   0.914   5.489  10.254 -1.5609 -0.4014  2.3333
  122OSM    C6S12931   0.869   5.340  10.090  0.3977  0.1803 -0.1477
  122OSM    H6S12932   0.763   5.372  10.088  0.6115  0.8775 -1.1028
  122OSM    H6T12933   0.871   5.230  10.074 -0.0030  0.2725 -0.8245
  122OSM    C7S12934   0.943   5.407   9.972 -0.2841 -0.2438  0.2263
  122OSM    H7S12935   1.036   5.349   9.953 -2.4068 -3.0895 -2.6131
  122OSM    H7T12936   0.969   5.514   9.990  0.5362 -0.2035 -1.0148
  122OSM    C8S12937   0.866   5.389   9.832  0.0289 -0.1066 -0.0613
  122OSM    H8S12938   0.768   5.442   9.833  0.5365  0.9253 -1.5357
  122OSM    H8T12939   0.865   5.280   9.813  4.4423  0.0263 -2.4751
  122OSM    C9S12940   0.948   5.445   9.718 -0.4282 -0.1797  0.0004
  122OSM    H9S12941   1.056   5.420   9.723 -0.0837  0.8755 -1.4088
  122OSM    H9T12942   0.936   5.555   9.730 -3.2755 -0.5721  1.5524
  122OSM   C10S12943   0.905   5.390   9.581  0.4108 -0.2877  0.1027
  122OSM   H10S12944   0.795   5.395   9.574  0.4131 -1.0628 -0.6587
  122OSM   H10T12945   0.941   5.285   9.575 -1.2043 -0.8577 -0.1288
  122OSM   C11S12946   0.952   5.470   9.460  0.3157 -0.0238  0.0125
  122OSM   H11S12947   1.062   5.455   9.461  0.3954  0.5450  0.8360
  122OSM   H11T12948   0.943   5.579   9.477  2.8503  0.6311 -2.1481
  122OSM   C12S12949   0.890   5.427   9.322  0.0591  0.8490  0.0567
  122OSM   H12S12950   0.781   5.449   9.312  0.4700  2.8613 -0.4017
  122OSM   H12T12951   0.892   5.317   9.308 -1.1615  0.6098  1.4869
  122OSM   C13S12952   0.959   5.491   9.203  0.2208  0.7463 -0.3555
  122OSM   H13S12953   1.068   5.469   9.197 -0.1062 -0.5034 -2.1594
  122OSM   H13T12954   0.947   5.602   9.206  0.6472  0.8972 -2.6670
  122OSM   C14S12955   0.907   5.441   9.062  0.2300  0.0970 -0.1840
  122OSM   H14S12956   0.806   5.483   9.045 -0.0432 -0.0716  0.9241
  122OSM   H14T12957   0.895   5.330   9.059  1.3152 -0.0150 -1.4263
  122OSM   C15S12958   0.988   5.489   8.946 -0.0036 -0.0802 -0.8700
  122OSM   H15S12959   1.097   5.472   8.962  0.4545  2.7139 -0.4948
  122OSM   H15T12960   0.978   5.600   8.940 -1.9111 -0.1509  0.1414
  122OSM   C16S12961   0.936   5.411   8.829  0.5385 -1.2948 -0.3309
  122OSM   H16S12962   0.830   5.432   8.804  0.8274  0.1522 -0.4247
  122OSM   H16T12963   0.942   5.302   8.845 -2.8279 -1.4217  0.8909
  122OSM   C17S12964   1.023   5.433   8.702  0.7816  0.7473 -0.0107
  122OSM   H17S12965   1.127   5.404   8.726  0.8725  1.4449  0.4777
  122OSM   H17T12966   1.027   5.541   8.675  1.8458  1.4405  2.6191
  122OSM   C18S12967   0.977   5.347   8.584 -0.4466 -1.1655 -0.2810
  122OSM   H18S12968   0.867   5.348   8.566 -0.3640 -0.2489 -0.8319
  122OSM   H18T12969   1.006   5.242   8.606  1.8290 -0.4088  0.6149
  122OSM   H18U12970   1.035   5.346   8.489 -1.9328 -0.2709 -1.2443
  122OSM    C1F12971   1.377   5.514  10.265 -0.3376  0.2078  1.2505
  122OSM     OF12972   1.470   5.434  10.280 -0.1006 -0.2153  0.2749
  122OSM    C2F12973   1.382   5.655  10.201 -0.0343  0.1405 -0.1259
  122OSM    H2F12974   1.392   5.736  10.276  1.2940 -1.6753  1.7942
  122OSM    H2G12975   1.283   5.674  10.153 -0.1066  2.6971  0.9157
  122OSM    C3F12976   1.497   5.660  10.097  0.4233  0.1654  0.1970
  122OSM    H3F12977   1.482   5.582  10.019 -2.8769 -0.1421  0.9869
  122OSM    H3G12978   1.587   5.637  10.159  0.1025  1.4395  1.1585
  122OSM    C4F12979   1.515   5.795  10.025  0.0369 -0.3024 -0.0373
  122OSM    H4F12980   1.594   5.768   9.952 -0.1297  0.2595 -0.4335
  122OSM    H4G12981   1.551   5.875  10.094  1.6661 -0.6006 -0.4985
  122OSM    C5F12982   1.396   5.851   9.948  1.4179 -0.1198  0.2637
  122OSM    H5F12983   1.431   5.947   9.905  1.4192 -0.2829 -0.1007
  122OSM    H5G12984   1.315   5.886  10.015  1.3965  1.8195 -0.7136
  122OSM    C6F12985   1.328   5.761   9.850  0.0324 -0.3749 -0.3416
  122OSM    H6F12986   1.232   5.804   9.815  0.0264 -1.6984 -2.0766
  122OSM    H6G12987   1.292   5.668   9.898 -3.2209  0.6986 -0.4663
  122OSM    C7F12988   1.424   5.735   9.731 -0.9521  0.0669 -0.0260
  122OSM    H7F12989   1.503   5.665   9.764 -2.0693 -1.7863 -1.1453
  122OSM    H7G12990   1.487   5.821   9.698  2.3106 -2.8474 -2.0396
  122OSM    C8F12991   1.362   5.692   9.597  0.1703  0.3821 -0.7510
  122OSM    H8F12992   1.312   5.599   9.631  1.0182  0.2602  0.2164
  122OSM    H8G12993   1.449   5.678   9.530  1.5886  0.0768  1.0679
  122OSM    C9F12994   1.265   5.787   9.539  0.2371 -0.5945  0.0287
  122OSM    H9F12995   1.195   5.834   9.610 -1.0472  3.0401 -3.2519
  122OSM   C10F12996   1.260   5.837   9.413  0.5107  0.2724 -0.1968
  122OSM   H10F12997   1.184   5.916   9.403  0.5467  0.9523  3.4498
  122OSM   C11F12998   1.353   5.790   9.298  0.1121 -0.3538 -0.4286
  122OSM   H11F12999   1.449   5.743   9.329  0.5914  0.4963 -0.5935
  122OSM   H11G13000   1.392   5.883   9.251  0.2051  0.5708  1.4247
  122OSM   C12F13001   1.273   5.701   9.192  0.7599  0.1702  0.4634
  122OSM   H12F13002   1.179   5.750   9.159  1.1310 -0.7035 -2.1586
  122OSM   H12G13003   1.246   5.603   9.236 -0.7688  0.9911  1.4391
  122OSM   C13F13004   1.348   5.659   9.064 -0.3158  0.4730 -0.0954
  122OSM   H13F13005   1.314   5.560   9.027 -0.1128 -0.6984  2.6521
  122OSM   H13G13006   1.450   5.635   9.102 -0.7748  1.6543  2.0316
  122OSM   C14F13007   1.344   5.761   8.947  0.1981 -0.1276 -0.4091
  122OSM   H14F13008   1.404   5.850   8.974 -1.0002  0.2335  1.2613
  122OSM   H14G13009   1.240   5.800   8.944  0.6112  1.1667  1.0006
  122OSM   C15F13010   1.382   5.699   8.817  0.2768 -0.1244  0.2308
  122OSM   H15F13011   1.346   5.762   8.733  2.0559  0.9337  0.2213
  122OSM   H15G13012   1.326   5.603   8.813 -0.4407  0.2399  1.0068
  122OSM   C16F13013   1.530   5.678   8.798 -0.4498 -0.1472  0.1225
  122OSM   H16F13014   1.552   5.595   8.728  0.1271 -1.3891  1.7062
  122OSM   H16G13015   1.581   5.651   8.893 -0.7820  1.5862  0.8288
  122OSM   C17F13016   1.602   5.803   8.733 -0.5079 -0.4942  0.3832
  122OSM   H17F13017   1.575   5.880   8.809 -2.1409 -0.6132 -0.0286
  122OSM   H17G13018   1.564   5.839   8.635  0.1667  0.9325  0.6154
  122OSM   C18F13019   1.752   5.787   8.718  0.6853 -0.2182  0.0026
  122OSM   H18F13020   1.785   5.876   8.661 -3.0767  1.2313 -0.1755
  122OSM   H18G13021   1.785   5.695   8.665  1.1967 -0.1246  0.1572
  122OSM   H18H13022   1.803   5.785   8.817  0.9978 -3.3493 -0.1211
  123OSM      N13023   5.788   5.530   5.765 -0.0402 -0.2782 -0.3244
  123OSM    C1513024   5.816   5.529   5.622 -0.5818  0.4051 -0.2085
  123OSM   H15A13025   5.765   5.448   5.573  1.8120 -0.3510 -1.6650
  123OSM   H15B13026   5.920   5.500   5.620 -0.8386 -0.5200 -0.4623
  123OSM   H15C13027   5.790   5.625   5.578 -1.1104  0.4946  0.2987
  123OSM    C1413028   5.633   5.534   5.781 -0.1375 -0.6478  0.6917
  123OSM   H14A13029   5.595   5.635   5.787  0.4331 -0.4857  3.9530
  123OSM   H14B13030   5.607   5.493   5.878 -1.2549 -1.6372 -0.0063
  123OSM   H14C13031   5.588   5.472   5.706  1.2091  1.1451 -1.7205
  123OSM    C1313032   5.837   5.402   5.824 -0.6178 -0.4139 -0.5359
  123OSM   H13A13033   5.939   5.376   5.799  1.0159  3.4392  1.3162
  123OSM   H13B13034   5.779   5.319   5.786 -0.9879 -0.0457 -0.7863
  123OSM   H13C13035   5.830   5.402   5.932 -1.8594  3.1504 -0.4981
  123OSM    C1213036   5.863   5.649   5.839  0.6600  0.1054  0.1616
  123OSM   H12A13037   5.837   5.739   5.785 -2.8193 -0.3859  0.7676
  123OSM   H12B13038   5.969   5.629   5.827  0.3573 -0.9736 -1.0103
  123OSM    C1113039   5.829   5.666   5.983  0.4129 -0.5157 -0.3408
  123OSM   H11A13040   5.856   5.587   6.056 -1.7005 -1.3668 -0.4014
  123OSM   H11B13041   5.719   5.682   5.988  0.7276  1.9484 -0.1376
  123OSM      P13042   6.056   5.791   6.020  0.2409 -0.0007  0.5232
  123OSM    O1313043   6.118   5.670   5.960  0.6350  0.1257  0.4813
  123OSM    O1413044   6.100   5.920   5.975  0.4161  0.1735 -0.1463
  123OSM    O1113045   6.076   5.793   6.174  0.1912  0.6882  0.5335
  123OSM    O1213046   5.894   5.788   6.017  0.8275 -0.0857 -0.5187
  123OSM    C1S13047   5.997   5.699   6.248  0.5124  0.0805  0.4873
  123OSM    H1S13048   6.008   5.597   6.206 -0.4094  0.2478 -0.1698
  123OSM    H1T13049   5.894   5.739   6.247  0.6379  0.5120  1.8574
  123OSM     NF13050   5.933   5.611   6.471 -0.1529  0.5281  0.5383
  123OSM    HNF13051   5.878   5.640   6.549 -0.5757 -0.8822  0.7983
  123OSM    C2S13052   6.028   5.701   6.401  0.7042 -0.0948 -1.7012
  123OSM    H2S13053   6.134   5.668   6.401  1.1022  1.0637 -0.4713
  123OSM    C3S13054   6.038   5.839   6.458 -0.1558  0.0471 -1.0102
  123OSM    H3S13055   5.933   5.874   6.455  0.2838  1.3698 -1.7760
  123OSM     O313056   6.123   5.928   6.385  0.3934  0.5934 -0.6329
  123OSM    HO313057   6.130   5.900   6.293  2.5910  1.5059 -0.8120
  123OSM    C4S13058   6.075   5.843   6.605 -0.2247 -0.6784  0.1335
  123OSM    H4S13059   5.993   5.851   6.677  0.9531 -0.9197  1.5536
  123OSM    C5S13060   6.200   5.850   6.656  0.7900 -0.1928 -0.0230
  123OSM    H5S13061   6.287   5.871   6.591 -0.1159 -0.0176 -1.2224
  123OSM    C6S13062   6.256   5.847   6.802  0.4892  0.3210  0.0494
  123OSM    H6S13063   6.251   5.956   6.821 -0.1298  0.5402 -1.2365
  123OSM    H6T13064   6.365   5.824   6.808 -0.0107 -2.7796 -0.8199
  123OSM    C7S13065   6.183   5.766   6.906  0.1704 -0.6255  0.0193
  123OSM    H7S13066   6.172   5.656   6.890 -3.9427 -0.5390  0.9624
  123OSM    H7T13067   6.080   5.805   6.919 -0.3861 -2.6170  2.4622
  123OSM    C8S13068   6.249   5.792   7.045 -0.2922 -0.0817  0.3827
  123OSM    H8S13069   6.236   5.901   7.059 -0.3633  0.6294 -3.9375
  123OSM    H8T13070   6.357   5.773   7.030 -0.1856  0.9816 -0.3139
  123OSM    C9S13071   6.184   5.695   7.150  0.0676 -0.4252  0.7388
  123OSM    H9S13072   6.162   5.598   7.101 -2.2083  1.0029 -1.2379
  123OSM    H9T13073   6.087   5.736   7.186  0.5163 -0.1261  1.6422
  123OSM   C10S13074   6.297   5.667   7.253  0.0950 -0.3383  0.3669
  123OSM   H10S13075   6.338   5.750   7.314  2.5407 -0.0196 -1.5916
  123OSM   H10T13076   6.378   5.634   7.184  0.2690 -1.3083  1.0047
  123OSM   C11S13077   6.253   5.548   7.336  0.0808  0.5126 -0.4143
  123OSM   H11S13078   6.254   5.466   7.261  1.0038  0.3740 -0.2577
  123OSM   H11T13079   6.147   5.561   7.370 -0.3263 -0.7990 -1.1001
  123OSM   C12S13080   6.346   5.515   7.447  0.1349 -0.0315 -0.3903
  123OSM   H12S13081   6.344   5.591   7.528  0.5787 -1.6005  1.1521
  123OSM   H12T13082   6.450   5.518   7.408  0.6950  0.3904  1.0500
  123OSM   C13S13083   6.326   5.371   7.509 -0.3394  0.0971 -0.8548
  123OSM   H13S13084   6.335   5.292   7.431  3.1000  1.4609 -2.0363
  123OSM   H13T13085   6.223   5.385   7.548 -0.1145  2.1374 -0.8571
  123OSM   C14S13086   6.425   5.338   7.621 -0.4305  0.0657  0.0579
  123OSM   H14S13087   6.509   5.411   7.614 -1.7337  1.5625 -0.7064
  123OSM   H14T13088   6.465   5.236   7.604 -0.4653  0.1400 -0.4830
  123OSM   C15S13089   6.358   5.346   7.758  0.1210 -0.1515 -0.7873
  123OSM   H15S13090   6.270   5.280   7.770 -0.0487  0.1727 -0.2134
  123OSM   H15T13091   6.321   5.447   7.786 -0.4640 -0.7772  0.7882
  123OSM   C16S13092   6.456   5.295   7.877  0.1219  0.3871  0.2425
  123OSM   H16S13093   6.545   5.361   7.869  0.1416  0.2323 -1.1285
  123OSM   H16T13094   6.501   5.199   7.845 -0.2578  0.3005 -0.0457
  123OSM   C17S13095   6.394   5.303   8.006  0.5190 -0.5552 -0.3841
  123OSM   H17S13096   6.289   5.267   8.010  0.0746  0.7603  1.0629
  123OSM   H17T13097   6.385   5.412   8.028 -1.4555 -0.8002  0.1719
  123OSM   C18S13098   6.472   5.233   8.117 -0.6050 -0.0249  1.0251
  123OSM   H18S13099   6.475   5.122   8.115  0.5127 -0.2065 -4.8524
  123OSM   H18T13100   6.422   5.258   8.213 -1.5796  2.0673  0.0446
  123OSM   H18U13101   6.575   5.272   8.131 -0.5156  0.7644 -1.3103
  123OSM    C1F13102   5.904   5.483   6.432  0.1067  0.4748  0.7663
  123OSM     OF13103   5.979   5.427   6.353  0.4941  0.5193  0.6112
  123OSM    C2F13104   5.784   5.405   6.484  0.0175  0.3770  0.1460
  123OSM    H2F13105   5.721   5.389   6.393 -2.0580  0.7946  1.4323
  123OSM    H2G13106   5.728   5.475   6.549 -1.2847 -1.6809  1.3482
  123OSM    C3F13107   5.817   5.265   6.538  0.1409  0.2759 -0.2013
  123OSM    H3F13108   5.867   5.203   6.461 -0.5492 -1.7797  0.9318
  123OSM    H3G13109   5.722   5.217   6.568 -0.0893 -0.7151 -2.3429
  123OSM    C4F13110   5.898   5.269   6.671 -0.6855  0.6036 -0.5502
  123OSM    H4F13111   6.002   5.271   6.632  0.2137 -1.4138  1.4885
  123OSM    H4G13112   5.882   5.176   6.729  0.9056  1.7521  1.8626
  123OSM    C5F13113   5.877   5.382   6.769 -0.2295  0.2685  0.2071
  123OSM    H5F13114   5.779   5.374   6.819  1.8816 -1.0362  4.6084
  123OSM    H5G13115   5.879   5.482   6.720  2.5131  0.5210  0.6724
  123OSM    C6F13116   5.989   5.395   6.879 -0.0132 -0.6868  0.5462
  123OSM    H6F13117   5.976   5.491   6.933 -0.1969 -0.7638  0.6397
  123OSM    H6G13118   6.091   5.398   6.836 -1.6500  2.5816 -4.0058
  123OSM    C7F13119   5.986   5.296   6.993 -0.0797 -0.0714 -0.1875
  123OSM    H7F13120   5.952   5.199   6.952  0.0486 -0.1789 -0.0396
  123OSM    H7G13121   5.909   5.319   7.070 -0.1251 -0.0180 -0.2486
  123OSM    C8F13122   6.120   5.290   7.068  0.1269 -0.4825  0.1649
  123OSM    H8F13123   6.127   5.392   7.113 -0.4585 -0.8139  1.0291
  123OSM    H8G13124   6.203   5.277   6.996  0.3864  1.8210 -0.0513
  123OSM    C9F13125   6.134   5.195   7.181 -0.6714 -0.5981  0.4959
  123OSM    H9F13126   6.205   5.233   7.257  1.0625 -1.7553 -0.4627
  123OSM   C10F13127   6.091   5.067   7.192 -0.1969  0.2274  0.3774
  123OSM   H10F13128   6.095   5.014   7.289 -2.0617 -2.4458 -0.8973
  123OSM   C11F13129   6.013   4.996   7.091  0.6094  0.0824 -0.0974
  123OSM   H11F13130   6.060   4.896   7.104 -0.1472 -0.0475  2.1489
  123OSM   H11G13131   6.024   5.031   6.987 -2.5733 -0.3670 -0.6760
  123OSM   C12F13132   5.867   4.983   7.127  0.5144  0.0800 -0.1796
  123OSM   H12F13133   5.818   5.083   7.127 -0.1946 -0.2532 -1.1604
  123OSM   H12G13134   5.859   4.936   7.227 -0.6499 -0.5862 -0.5660
  123OSM   C13F13135   5.799   4.893   7.025 -0.1599 -0.4686  0.4678
  123OSM   H13F13136   5.691   4.884   7.046 -0.1722  1.3155  1.3800
  123OSM   H13G13137   5.845   4.792   7.016  1.3940  0.1108  1.5270
  123OSM   C14F13138   5.793   4.957   6.882  0.3294  0.1012 -0.5916
  123OSM   H14F13139   5.891   4.962   6.829  0.6926 -2.2005 -0.2160
  123OSM   H14G13140   5.741   5.056   6.880 -2.5403 -1.2576  0.5588
  123OSM   C15F13141   5.717   4.869   6.779  0.0490  0.0629 -0.1813
  123OSM   H15F13142   5.617   4.852   6.824  0.3396 -0.4721  0.2701
  123OSM   H15G13143   5.776   4.776   6.767 -0.6511 -0.4711  0.4278
  123OSM   C16F13144   5.705   4.929   6.642  0.5055 -0.6426  0.0481
  123OSM   H16F13145   5.808   4.957   6.612  1.5297 -2.2528  1.8161
  123OSM   H16G13146   5.637   5.017   6.650 -0.0888 -1.1620  0.9647
  123OSM   C17F13147   5.638   4.826   6.546  0.3481 -0.2661  0.2284
  123OSM   H17F13148   5.543   4.779   6.578  1.6062 -2.0058  1.5570
  123OSM   H17G13149   5.705   4.738   6.543 -0.8394 -1.2181 -2.7591
  123OSM   C18F13150   5.628   4.867   6.393  0.2783  0.2302  0.1870
  123OSM   H18F13151   5.581   4.798   6.320 -0.1298  0.2381  0.4364
  123OSM   H18G13152   5.732   4.877   6.356  0.6817 -0.7512  1.0046
  123OSM   H18H13153   5.592   4.972   6.391  1.6968  0.7692  1.5517
  124OSM      N13154   0.687   4.025   5.820  0.1523 -0.1505  0.2205
  124OSM    C1513155   0.648   4.125   5.924  0.1094  0.5129  0.0312
  124OSM   H15A13156   0.540   4.137   5.920  0.1524  0.4777 -2.1656
  124OSM   H15B13157   0.701   4.218   5.920 -1.0134  1.1193 -2.6967
  124OSM   H15C13158   0.668   4.088   6.024  3.8033  0.3458 -0.6431
  124OSM    C1413159   0.628   3.891   5.853  0.3359  0.0771 -0.1785
  124OSM   H14A13160   0.521   3.888   5.848  0.1727  0.0392  2.1284
  124OSM   H14B13161   0.657   3.860   5.953  0.4566  0.3110 -0.1379
  124OSM   H14C13162   0.669   3.813   5.790 -1.8235  0.3281 -1.9991
  124OSM    C1313163   0.628   4.054   5.694  0.3986 -0.1413 -0.2939
  124OSM   H13A13164   0.662   3.985   5.619  1.3365 -1.3236  1.1726
  124OSM   H13B13165   0.666   4.146   5.653 -1.3913  0.2241 -1.2337
  124OSM   H13C13166   0.521   4.052   5.711  0.5684  0.7780  1.0205
  124OSM    C1213167   0.834   4.007   5.807 -0.4356 -0.6004 -0.3532
  124OSM   H12A13168   0.880   4.083   5.746  1.0168 -1.1540  0.0072
  124OSM   H12B13169   0.855   3.923   5.742 -0.6209  0.1286 -1.3901
  124OSM    C1113170   0.917   3.990   5.940  0.0528 -0.2051 -0.0045
  124OSM   H11A13171   0.898   4.078   6.004 -0.7368  0.6251 -1.3388
  124OSM   H11B13172   1.024   3.991   5.910 -0.1256  1.3977 -0.6623
  124OSM      P13173   0.939   3.732   5.960 -0.2370 -0.2885  0.2572
  124OSM    O1313174   0.845   3.628   5.991  0.3655 -0.4138 -0.0713
  124OSM    O1413175   0.978   3.750   5.820  0.3805 -0.1794 -0.0877
  124OSM    O1113176   1.064   3.725   6.051 -0.3405 -0.0482  0.3394
  124OSM    O1213177   0.878   3.868   6.006 -0.2392  0.7013  0.8131
  124OSM    C1S13178   1.061   3.764   6.190  0.5107  0.5008 -0.3100
  124OSM    H1S13179   0.966   3.724   6.232  0.2953  2.7340  1.5966
  124OSM    H1T13180   1.048   3.873   6.206 -1.2935  0.1109  1.3516
  124OSM     NF13181   1.178   3.784   6.404  0.3312  0.1960 -0.1702
  124OSM    HNF13182   1.224   3.873   6.402 -0.3739  0.5692 -0.2144
  124OSM    C2S13183   1.181   3.704   6.280  0.2678 -0.8268  0.3702
  124OSM    H2S13184   1.161   3.597   6.303 -0.6855 -0.6560  0.3742
  124OSM    C3S13185   1.309   3.698   6.204 -0.2499 -0.0880  0.5689
  124OSM    H3S13186   1.349   3.795   6.168 -2.6443  0.6026 -0.4598
  124OSM     O313187   1.306   3.628   6.083  0.0012  0.5101  0.0146
  124OSM    HO313188   1.216   3.627   6.052  0.1506 -2.8905 -0.6710
  124OSM    C4S13189   1.405   3.640   6.294 -0.6762  0.0582 -0.0131
  124OSM    H4S13190   1.461   3.720   6.344 -1.2284  0.3251  0.1844
  124OSM    C5S13191   1.409   3.510   6.337  0.0560 -0.0227  0.6512
  124OSM    H5S13192   1.339   3.440   6.290 -1.7256 -0.3179  3.4901
  124OSM    C6S13193   1.499   3.456   6.440  0.2943 -0.5460  0.0259
  124OSM    H6S13194   1.552   3.538   6.494  1.1208  0.1833 -1.8151
  124OSM    H6T13195   1.559   3.372   6.401  0.3117 -0.5083 -0.0280
  124OSM    C7S13196   1.403   3.396   6.537 -0.1998  0.4273  0.0475
  124OSM    H7S13197   1.345   3.312   6.492  1.5530 -1.1738  0.6165
  124OSM    H7T13198   1.331   3.469   6.578  0.2450  1.7130 -1.3790
  124OSM    C8S13199   1.473   3.317   6.647  0.6133  0.2514 -0.3642
  124OSM    H8S13200   1.534   3.386   6.708  0.8248 -1.5050  1.5297
  124OSM    H8T13201   1.550   3.249   6.604  1.1092  0.7255 -0.2277
  124OSM    C9S13202   1.366   3.247   6.730  0.3212 -0.1670  0.2739
  124OSM    H9S13203   1.296   3.198   6.658  1.8657 -1.0077 -0.7308
  124OSM    H9T13204   1.304   3.326   6.777 -0.7802  0.3164 -1.8580
  124OSM   C10S13205   1.412   3.152   6.842 -0.9718 -0.6944 -0.3274
  124OSM   H10S13206   1.477   3.068   6.810  0.6760 -0.2315  1.6204
  124OSM   H10T13207   1.318   3.102   6.873  0.0477 -3.6074 -1.6067
  124OSM   C11S13208   1.469   3.227   6.964  0.6221 -0.0783 -0.2797
  124OSM   H11S13209   1.387   3.291   7.004 -0.6229 -1.2487 -0.8618
  124OSM   H11T13210   1.556   3.288   6.929  1.0864 -0.6220 -0.0790
  124OSM   C12S13211   1.513   3.143   7.073 -0.7006  0.3025 -0.0741
  124OSM   H12S13212   1.552   3.199   7.160  0.5385 -3.1049  1.7207
  124OSM   H12T13213   1.585   3.069   7.032 -1.0878 -1.0097  1.5523
  124OSM   C13S13214   1.393   3.059   7.142 -0.5505 -0.5689 -0.5145
  124OSM   H13S13215   1.344   2.995   7.066 -0.3209 -0.3675 -0.8400
  124OSM   H13T13216   1.322   3.129   7.190  1.0938  1.0065 -0.2728
  124OSM   C14S13217   1.444   2.978   7.262 -0.3929 -0.7661 -0.0225
  124OSM   H14S13218   1.516   2.907   7.217 -1.5225 -2.4267  0.6848
  124OSM   H14T13219   1.357   2.916   7.294 -1.8948 -0.0296 -2.4167
  124OSM   C15S13220   1.509   3.047   7.377 -0.4548 -0.2054 -0.3219
  124OSM   H15S13221   1.475   3.152   7.392 -0.4436 -0.2663  0.1451
  124OSM   H15T13222   1.618   3.057   7.360  0.4519 -1.3018  3.7465
  124OSM   C16S13223   1.498   2.963   7.511  0.2279 -0.0943 -0.2195
  124OSM   H16S13224   1.531   2.857   7.500 -1.8715 -1.3899  3.7670
  124OSM   H16T13225   1.391   2.953   7.536  0.0423  1.3990 -0.3393
  124OSM   C17S13226   1.572   3.036   7.627 -0.1873  0.1337  0.1596
  124OSM   H17S13227   1.560   3.146   7.625  0.8902  0.2868 -2.5489
  124OSM   H17T13228   1.679   3.010   7.610 -0.6300 -1.4664 -0.4158
  124OSM   C18S13229   1.526   3.011   7.769 -0.2411 -0.1107  0.3251
  124OSM   H18S13230   1.545   2.906   7.802  0.1628 -0.7535 -1.7978
  124OSM   H18T13231   1.418   3.038   7.772 -1.2037 -3.1509 -1.6960
  124OSM   H18U13232   1.580   3.074   7.843  0.5782  1.3528 -1.4453
  124OSM    C1F13233   1.074   3.765   6.492  0.2093  0.0712 -0.2233
  124OSM     OF13234   1.016   3.654   6.496 -0.0548 -0.3734 -0.2428
  124OSM    C2F13235   1.024   3.886   6.560 -1.1810 -0.2719  0.3322
  124OSM    H2F13236   0.962   3.935   6.482 -2.4637  1.2595  2.2316
  124OSM    H2G13237   1.115   3.946   6.583 -1.1612 -0.0221 -0.3667
  124OSM    C3F13238   0.953   3.859   6.690  0.1130  0.7327  0.0882
  124OSM    H3F13239   0.871   3.788   6.668  0.8451  0.3590 -1.6011
  124OSM    H3G13240   0.915   3.957   6.725  0.2285  0.1016  2.1401
  124OSM    C4F13241   1.044   3.788   6.801 -0.3532 -0.5901  0.6434
  124OSM    H4F13242   1.131   3.855   6.817  1.0799 -2.0617 -0.6856
  124OSM    H4G13243   1.082   3.695   6.754  1.0669 -0.4005  1.3852
  124OSM    C5F13244   0.957   3.746   6.920 -0.4552  0.2867  0.4497
  124OSM    H5F13245   1.008   3.668   6.979 -2.8948  0.7061  3.3255
  124OSM    H5G13246   0.863   3.695   6.891  0.3774 -1.1426  0.1814
  124OSM    C6F13247   0.918   3.869   7.009 -0.0631 -0.3719  0.2139
  124OSM    H6F13248   0.868   3.942   6.942  1.7505  1.5815  0.8713
  124OSM    H6G13249   1.019   3.913   7.025 -0.2139  0.6984 -1.5362
  124OSM    C7F13250   0.852   3.841   7.137  0.1149 -0.1643 -0.0153
  124OSM    H7F13251   0.758   3.786   7.117 -0.1512  0.0562  0.6076
  124OSM    H7G13252   0.824   3.939   7.182 -0.7105 -0.8498  0.9915
  124OSM    C8F13253   0.937   3.768   7.244  0.2970  0.3212 -0.3480
  124OSM    H8F13254   0.977   3.677   7.194  0.2878 -1.3570  2.5267
  124OSM    H8G13255   0.874   3.724   7.324  2.4094 -2.2422  0.0286
  124OSM    C9F13256   1.048   3.840   7.303 -1.1340 -0.2586  0.4094
  124OSM    H9F13257   1.060   3.944   7.269 -0.8227 -0.3496  0.2302
  124OSM   C10F13258   1.143   3.784   7.388  0.7151 -0.5476  0.5548
  124OSM   H10F13259   1.227   3.850   7.414  2.4708 -1.3845 -2.4949
  124OSM   C11F13260   1.148   3.637   7.434  0.4565 -0.3280 -0.4044
  124OSM   H11F13261   1.207   3.575   7.364 -1.1890 -0.3063 -1.8840
  124OSM   H11G13262   1.044   3.597   7.441  0.7855 -1.0820  0.2937
  124OSM   C12F13263   1.196   3.640   7.582 -0.2611  0.0046 -0.5125
  124OSM   H12F13264   1.132   3.708   7.641 -0.1774  1.2976 -1.8397
  124OSM   H12G13265   1.303   3.668   7.592  0.6261 -2.8198 -1.1157
  124OSM   C13F13266   1.195   3.501   7.634 -0.1886 -0.0277  1.1309
  124OSM   H13F13267   1.261   3.443   7.566 -0.9675 -1.4686  1.5437
  124OSM   H13G13268   1.088   3.472   7.620 -0.0770 -0.7198  1.6549
  124OSM   C14F13269   1.240   3.481   7.777  0.3719 -0.0493  0.0060
  124OSM   H14F13270   1.189   3.554   7.843  3.6695  1.1128  1.4874
  124OSM   H14G13271   1.350   3.492   7.783  0.5869 -1.8328 -0.1518
  124OSM   C15F13272   1.201   3.343   7.837  0.5157  0.4929  0.9133
  124OSM   H15F13273   1.256   3.270   7.774  0.6943  1.5069 -0.1419
  124OSM   H15G13274   1.092   3.328   7.825  0.3268  2.6396 -0.6179
  124OSM   C16F13275   1.236   3.321   7.981  0.1989  0.1257 -0.5417
  124OSM   H16F13276   1.155   3.369   8.040 -1.7210 -0.6486 -2.4024
  124OSM   H16G13277   1.327   3.376   8.012 -0.0928  0.1865  0.2231
  124OSM   C17F13278   1.254   3.171   8.025  0.3817 -0.0782  0.4640
  124OSM   H17F13279   1.336   3.111   7.980  1.5546  1.3421  0.6261
  124OSM   H17G13280   1.162   3.122   7.986 -1.7365  1.9538  2.5935
  124OSM   C18F13281   1.255   3.153   8.172  0.1889  0.1487 -0.1431
  124OSM   H18F13282   1.259   3.046   8.201 -0.0669  0.2259  0.1741
  124OSM   H18G13283   1.164   3.201   8.214  0.4170  0.2481  0.2371
  124OSM   H18H13284   1.342   3.207   8.214  0.3939  0.0558 -0.4426
  125OSM      N13285   1.983   3.540   5.813 -0.1798 -0.4934 -0.6459
  125OSM    C1513286   2.070   3.500   5.696  0.2442  0.2865 -0.3370
  125OSM   H15A13287   2.051   3.407   5.645  1.3986  0.0613 -0.3895
  125OSM   H15B13288   2.175   3.504   5.722 -0.0816  0.6192  1.0608
  125OSM   H15C13289   2.044   3.566   5.615 -1.7115 -0.5953 -0.4693
  125OSM    C1413290   2.018   3.684   5.848 -0.2563 -0.3137 -0.5882
  125OSM   H14A13291   1.954   3.716   5.929 -0.5535  0.5856 -1.1597
  125OSM   H14B13292   2.009   3.748   5.761 -0.6523 -1.0342 -1.0947
  125OSM   H14C13293   2.120   3.691   5.881  0.0115  0.4502 -1.5217
  125OSM    C1313294   1.837   3.529   5.769 -0.9248  0.2555 -0.4893
  125OSM   H13A13295   1.775   3.583   5.838  1.9947  1.8223  1.1054
  125OSM   H13B13296   1.792   3.431   5.757 -2.0689  0.3399  2.4847
  125OSM   H13C13297   1.834   3.569   5.668 -0.9044  1.0965 -0.1589
  125OSM    C1213298   2.001   3.452   5.938  0.4382 -0.3873  0.3583
  125OSM   H12A13299   2.105   3.467   5.964  0.5198 -0.0402 -0.1495
  125OSM   H12B13300   1.996   3.345   5.921  1.8695 -0.1427 -2.2803
  125OSM    C1113301   1.900   3.475   6.055 -0.4081  0.1631  0.6189
  125OSM   H11A13302   1.923   3.398   6.132  1.3560 -0.6390 -0.6564
  125OSM   H11B13303   1.797   3.459   6.018 -1.0029 -1.0085  2.6070
  125OSM      P13304   1.995   3.650   6.222  0.3016 -0.4393  0.3989
  125OSM    O1313305   1.996   3.539   6.324  0.4515  0.1067  0.0571
  125OSM    O1413306   2.130   3.689   6.179  0.2002 -0.1808 -0.0700
  125OSM    O1113307   1.915   3.778   6.280 -0.3354 -0.2023  0.2074
  125OSM    O1213308   1.909   3.605   6.099 -0.2746  0.1615  0.2643
  125OSM    C1S13309   1.793   3.764   6.350 -0.7299 -0.3386 -0.0738
  125OSM    H1S13310   1.782   3.673   6.413  1.4446 -0.6002  0.0190
  125OSM    H1T13311   1.710   3.764   6.276 -2.3738 -1.1986  1.6790
  125OSM     NF13312   1.646   3.861   6.513  0.0571  0.1593 -0.1588
  125OSM    HNF13313   1.575   3.930   6.505  0.0676  0.2263  0.3096
  125OSM    C2S13314   1.765   3.887   6.436 -1.0231 -0.3652 -0.2481
  125OSM    H2S13315   1.847   3.897   6.510 -0.0685  0.7388 -1.4192
  125OSM    C3S13316   1.759   4.020   6.350 -0.1035  0.2103  0.4259
  125OSM    H3S13317   1.690   4.013   6.263  1.3055 -1.3552 -0.6164
  125OSM     O313318   1.887   4.044   6.285  0.2754 -0.1900 -0.0499
  125OSM    HO313319   1.928   3.958   6.292  1.5018  0.4816  2.0129
  125OSM    C4S13320   1.714   4.139   6.437  0.3456 -0.7385  0.4531
  125OSM    H4S13321   1.618   4.190   6.419  0.2020  1.2707  5.3300
  125OSM    C5S13322   1.804   4.194   6.521  0.1160  0.0644 -0.2065
  125OSM    H5S13323   1.908   4.158   6.519 -0.7283 -2.6513  0.5572
  125OSM    C6S13324   1.771   4.321   6.598  0.3248 -0.1043 -0.0149
  125OSM    H6S13325   1.678   4.369   6.559  0.4675  1.1404  1.1159
  125OSM    H6T13326   1.850   4.397   6.579  1.0853 -0.8266  0.2115
  125OSM    C7S13327   1.754   4.285   6.744 -0.5598  0.2906  0.1624
  125OSM    H7S13328   1.852   4.253   6.786  0.9076  1.6085 -2.0103
  125OSM    H7T13329   1.680   4.204   6.753 -1.1806  0.7201 -0.9223
  125OSM    C8S13330   1.695   4.400   6.822 -0.8866  0.0456  0.0399
  125OSM    H8S13331   1.596   4.417   6.776 -0.3586  1.9896 -0.4513
  125OSM    H8T13332   1.749   4.496   6.813 -0.6523  0.0509  1.2431
  125OSM    C9S13333   1.705   4.359   6.969 -0.3978 -0.4219  0.8855
  125OSM    H9S13334   1.802   4.309   6.991 -1.0671 -1.9781  0.4725
  125OSM    H9T13335   1.620   4.290   6.992 -0.7702 -0.0896  0.5201
  125OSM   C10S13336   1.689   4.476   7.061  0.1777 -0.6211  0.3574
  125OSM   H10S13337   1.587   4.515   7.044  0.2913 -0.2601  0.4847
  125OSM   H10T13338   1.763   4.556   7.038  2.0526 -1.6630  2.3629
  125OSM   C11S13339   1.706   4.427   7.206  0.4898  0.1764 -0.0848
  125OSM   H11S13340   1.811   4.400   7.228  1.5647  2.4977 -1.9293
  125OSM   H11T13341   1.654   4.330   7.222  0.1848  0.4524  0.6766
  125OSM   C12S13342   1.661   4.522   7.313  0.2388 -0.6041 -0.1962
  125OSM   H12S13343   1.554   4.547   7.298  1.1516  2.0971 -3.4215
  125OSM   H12T13344   1.723   4.614   7.314 -0.0920 -0.3740  1.0227
  125OSM   C13S13345   1.685   4.463   7.448 -0.6864 -0.7835  0.1727
  125OSM   H13S13346   1.786   4.419   7.436 -1.3158 -2.1361 -0.4200
  125OSM   H13T13347   1.624   4.371   7.463  1.6265 -2.6539 -1.2032
  125OSM   C14S13348   1.666   4.547   7.573  0.3520 -0.7594  0.8986
  125OSM   H14S13349   1.564   4.588   7.557  0.1726 -1.8439 -1.1029
  125OSM   H14T13350   1.732   4.637   7.574  0.8483 -1.1152  0.6354
  125OSM   C15S13351   1.671   4.477   7.707  0.0296  0.2130 -1.0571
  125OSM   H15S13352   1.580   4.414   7.714  0.5796 -0.5751 -0.7523
  125OSM   H15T13353   1.665   4.550   7.791 -0.4178 -0.2736 -0.6577
  125OSM   C16S13354   1.800   4.391   7.739  1.1966  0.4104  0.6996
  125OSM   H16S13355   1.888   4.458   7.731  1.3111  0.0475 -2.6729
  125OSM   H16T13356   1.811   4.319   7.655 -0.3917  1.0112 -0.0810
  125OSM   C17S13357   1.794   4.300   7.856 -0.3916 -0.4127 -0.1520
  125OSM   H17S13358   1.754   4.349   7.947 -0.6098 -0.5311 -0.1840
  125OSM   H17T13359   1.894   4.256   7.875 -0.0791 -0.0415 -0.8722
  125OSM   C18S13360   1.702   4.179   7.845  0.7724  0.2848  0.2107
  125OSM   H18S13361   1.733   4.105   7.923  0.7920  0.4983  0.4069
  125OSM   H18T13362   1.704   4.120   7.751  0.9161 -0.5543  0.7270
  125OSM   H18U13363   1.601   4.215   7.874  1.2379  0.0038  2.4134
  125OSM    C1F13364   1.639   3.769   6.604  0.1769 -0.2285  1.0069
  125OSM     OF13365   1.733   3.701   6.638 -0.4189 -0.5263 -0.1920
  125OSM    C2F13366   1.506   3.749   6.669 -0.1260 -0.1258  0.3289
  125OSM    H2F13367   1.446   3.673   6.615  0.2534 -1.4146  1.6728
  125OSM    H2G13368   1.455   3.848   6.666 -2.0151 -1.0685  0.2296
  125OSM    C3F13369   1.512   3.701   6.814 -0.8808  0.4162 -0.0373
  125OSM    H3F13370   1.583   3.764   6.872  0.6629  0.1236 -1.5285
  125OSM    H3G13371   1.558   3.600   6.819 -3.6460 -1.1914 -3.4136
  125OSM    C4F13372   1.378   3.691   6.883 -0.6478  0.3224  0.1282
  125OSM    H4F13373   1.293   3.654   6.821 -0.2114 -0.5664  0.0397
  125OSM    H4G13374   1.362   3.799   6.899 -0.7869  0.6216 -1.7417
  125OSM    C5F13375   1.383   3.614   7.014  0.5449 -0.7995 -0.3255
  125OSM    H5F13376   1.419   3.511   6.995 -0.7762 -1.4904  0.7510
  125OSM    H5G13377   1.282   3.605   7.058  0.7158 -0.9729  0.0310
  125OSM    C6F13378   1.484   3.662   7.122 -0.4457  0.3717 -0.0034
  125OSM    H6F13379   1.443   3.762   7.148  0.9099  0.9232  0.0967
  125OSM    H6G13380   1.586   3.667   7.078 -0.5939 -1.2464 -0.5646
  125OSM    C7F13381   1.483   3.565   7.246  0.7678 -0.5765  0.1531
  125OSM    H7F13382   1.512   3.463   7.214 -1.1815 -0.8274 -0.9753
  125OSM    H7G13383   1.381   3.562   7.290  0.2195  0.2804 -0.9775
  125OSM    C8F13384   1.582   3.612   7.350 -0.4661 -0.1583 -0.5500
  125OSM    H8F13385   1.549   3.699   7.411 -1.3861 -1.2557  0.5510
  125OSM    H8G13386   1.668   3.652   7.293  0.2361  0.7583  1.0838
  125OSM    C9F13387   1.637   3.511   7.452 -0.0630 -0.2921  0.4927
  125OSM    H9F13388   1.647   3.406   7.421  1.4370  0.0076 -0.1316
  125OSM   C10F13389   1.692   3.538   7.572  0.9663  0.0470  0.2759
  125OSM   H10F13390   1.723   3.452   7.632 -2.0000 -0.8031  0.7421
  125OSM   C11F13391   1.706   3.673   7.636  0.0119 -0.0977  0.4159
  125OSM   H11F13392   1.694   3.748   7.555  0.3387 -0.5149 -0.0241
  125OSM   H11G13393   1.808   3.687   7.678  0.9349  0.7875 -1.9373
  125OSM   C12F13394   1.607   3.680   7.752 -0.1147  0.4812 -0.4140
  125OSM   H12F13395   1.507   3.661   7.708  0.3054 -0.3403 -1.0397
  125OSM   H12G13396   1.599   3.788   7.779 -0.4071  0.6619 -1.1996
  125OSM   C13F13397   1.635   3.575   7.863 -1.0245 -0.1709 -0.0970
  125OSM   H13F13398   1.741   3.543   7.858 -1.0713 -0.8668  2.1136
  125OSM   H13G13399   1.568   3.493   7.831 -2.0440  1.1363 -1.4342
  125OSM   C14F13400   1.600   3.616   8.008 -0.2600  0.0421  0.3383
  125OSM   H14F13401   1.607   3.527   8.073 -0.8259  1.0367  1.8021
  125OSM   H14G13402   1.494   3.651   8.013  0.1968  1.4571  0.4406
  125OSM   C15F13403   1.699   3.724   8.066 -1.1504 -0.3829 -0.5095
  125OSM   H15F13404   1.684   3.815   8.004 -1.1163 -0.2193 -0.2795
  125OSM   H15G13405   1.799   3.678   8.053 -0.7980  0.2478 -0.0678
  125OSM   C16F13406   1.683   3.743   8.220  0.3006 -0.6714 -0.1513
  125OSM   H16F13407   1.686   3.646   8.274  0.7603 -0.1634  0.7592
  125OSM   H16G13408   1.576   3.774   8.224  0.5256  0.0095  1.1364
  125OSM   C17F13409   1.788   3.846   8.274 -0.0538 -0.7306 -0.4617
  125OSM   H17F13410   1.726   3.911   8.339  1.1701  0.7993 -0.7648
  125OSM   H17G13411   1.835   3.901   8.190  3.3432 -1.2693  0.9280
  125OSM   C18F13412   1.906   3.778   8.346 -0.8111  0.3764 -0.6224
  125OSM   H18F13413   1.971   3.851   8.398 -0.4594 -1.4590  1.6826
  125OSM   H18G13414   1.967   3.708   8.285  0.4452 -0.3302  1.3254
  125OSM   H18H13415   1.850   3.715   8.419  2.1618  0.1106  1.6405
  126OSM      N13416   5.789   1.595   6.136 -0.1049 -0.1245  0.3005
  126OSM    C1513417   5.922   1.603   6.203  0.1555 -0.1118  0.4558
  126OSM   H15A13418   5.915   1.564   6.303 -1.4730 -1.6364 -0.2046
  126OSM   H15B13419   5.968   1.699   6.222 -2.9820  2.1493 -2.2360
  126OSM   H15C13420   5.990   1.535   6.154  1.0092  1.2234 -0.2687
  126OSM    C1413421   5.704   1.711   6.205  0.3993  0.1356 -0.4287
  126OSM   H14A13422   5.607   1.724   6.158  0.0184  1.3717  0.6651
  126OSM   H14B13423   5.753   1.806   6.209  0.0179  0.3868 -1.4544
  126OSM   H14C13424   5.683   1.676   6.305  0.0457 -0.4935 -0.7104
  126OSM    C1313425   5.798   1.623   5.992  0.0706  0.3338  0.1448
  126OSM   H13A13426   5.849   1.547   5.934 -0.9334 -1.0525  1.0371
  126OSM   H13B13427   5.853   1.715   5.978 -0.5836  0.7965  0.5544
  126OSM   H13C13428   5.697   1.626   5.954  0.6818 -0.7880 -1.7113
  126OSM    C1213429   5.733   1.453   6.166 -0.2632 -0.5493 -0.3187
  126OSM   H12A13430   5.791   1.374   6.119 -1.2678 -2.8022  1.9709
  126OSM   H12B13431   5.637   1.445   6.117 -0.9001 -0.9145  0.9466
  126OSM    C1113432   5.713   1.412   6.315  0.1649  0.0444  0.3863
  126OSM   H11A13433   5.813   1.399   6.360 -0.0690 -2.3643  0.3535
  126OSM   H11B13434   5.674   1.308   6.309 -1.8499  0.8187 -3.2429
  126OSM      P13435   5.465   1.481   6.372 -0.1946 -0.0286 -0.2667
  126OSM    O1313436   5.413   1.616   6.339  0.0153 -0.0464  0.0397
  126OSM    O1413437   5.436   1.371   6.277  0.1944 -0.5713  0.2008
  126OSM    O1113438   5.410   1.437   6.510 -0.6104  0.2815  0.7290
  126OSM    O1213439   5.625   1.495   6.391 -0.2832 -0.1562  0.2005
  126OSM    C1S13440   5.488   1.368   6.601  0.2184  0.2317  0.2200
  126OSM    H1S13441   5.592   1.408   6.609  1.3970 -2.4039 -0.7286
  126OSM    H1T13442   5.504   1.259   6.585 -1.4417 -0.1784  1.1229
  126OSM     NF13443   5.523   1.407   6.844  0.4853 -0.1703  0.3773
  126OSM    HNF13444   5.561   1.333   6.899 -0.1814 -0.0492  1.0232
  126OSM    C2S13445   5.422   1.375   6.740  0.4794 -0.2808  0.3539
  126OSM    H2S13446   5.351   1.460   6.751 -1.4982 -1.8664  0.6107
  126OSM    C3S13447   5.342   1.244   6.765 -0.1428 -0.5524 -0.0323
  126OSM    H3S13448   5.410   1.157   6.774  0.1265 -0.2475  1.0282
  126OSM     O313449   5.253   1.221   6.661  0.5239  0.5723 -0.5214
  126OSM    HO313450   5.276   1.289   6.597 -1.1460  1.0166 -0.6956
  126OSM    C4S13451   5.278   1.260   6.898  0.7231 -0.3136  0.1863
  126OSM    H4S13452   5.334   1.220   6.984 -0.3149 -1.4435  0.3621
  126OSM    C5S13453   5.152   1.312   6.919  0.1411 -0.3961  0.1048
  126OSM    H5S13454   5.088   1.341   6.834 -2.2408 -1.6050  1.4095
  126OSM    C6S13455   5.086   1.309   7.054  0.3608  0.3929  0.5213
  126OSM    H6S13456   4.978   1.284   7.049  0.0793  1.6874 -0.2211
  126OSM    H6T13457   5.088   1.412   7.095  0.3089  0.3491  0.6332
  126OSM    C7S13458   5.161   1.222   7.166  0.7815  0.5189  0.1365
  126OSM    H7S13459   5.261   1.270   7.175  0.9659  0.6452 -2.0109
  126OSM    H7T13460   5.156   1.114   7.138 -2.0236  0.7012 -0.4003
  126OSM    C8S13461   5.101   1.240   7.306  0.8556  0.9275  0.1909
  126OSM    H8S13462   5.006   1.183   7.311 -0.2115  2.5725 -0.4486
  126OSM    H8T13463   5.072   1.344   7.332 -0.9074  0.3065  0.8700
  126OSM    C9S13464   5.180   1.187   7.422 -0.4931  0.5156 -0.0459
  126OSM    H9S13465   5.282   1.231   7.430  0.1509 -1.1190  1.3402
  126OSM    H9T13466   5.185   1.077   7.408 -0.1685  0.7331 -1.9998
  126OSM   C10S13467   5.097   1.190   7.553 -0.0344 -0.0520 -0.5630
  126OSM   H10S13468   5.015   1.115   7.543 -0.2529  0.0568  0.3569
  126OSM   H10T13469   5.047   1.287   7.572 -0.7610 -0.4116 -0.6155
  126OSM   C11S13470   5.178   1.151   7.679 -0.1951  0.0436  0.5610
  126OSM   H11S13471   5.275   1.205   7.679 -0.0312 -0.2402  1.4125
  126OSM   H11T13472   5.199   1.042   7.681  0.0855  0.0417 -1.0716
  126OSM   C12S13473   5.122   1.213   7.807 -0.1796  0.4777  0.3759
  126OSM   H12S13474   5.138   1.323   7.810 -1.9183  0.7260  1.8309
  126OSM   H12T13475   5.186   1.172   7.888 -0.0626  1.1436  0.6259
  126OSM   C13S13476   4.975   1.182   7.834 -0.0115 -0.4402 -0.2546
  126OSM   H13S13477   4.958   1.073   7.847  1.7247 -0.6450  0.7133
  126OSM   H13T13478   4.907   1.223   7.757 -0.3037 -0.0672  0.1969
  126OSM   C14S13479   4.931   1.244   7.966  0.1567 -0.0878 -0.5637
  126OSM   H14S13480   4.820   1.240   7.969  0.1887 -1.4845 -0.5083
  126OSM   H14T13481   4.958   1.352   7.968  1.1587 -0.3183 -0.6987
  126OSM   C15S13482   4.983   1.172   8.093  0.1707  0.5457  0.2975
  126OSM   H15S13483   5.094   1.178   8.097  0.2395 -1.0331  2.3442
  126OSM   H15T13484   4.950   1.065   8.095 -0.3370  0.6329 -1.4759
  126OSM   C16S13485   4.924   1.226   8.223 -0.3751 -0.2406 -0.2324
  126OSM   H16S13486   4.813   1.215   8.228 -0.2439 -1.2247  2.2369
  126OSM   H16T13487   4.945   1.334   8.238 -2.1811 -0.0999  1.6757
  126OSM   C17S13488   4.966   1.140   8.344  0.2063 -0.3495 -0.2023
  126OSM   H17S13489   5.077   1.143   8.342  0.1869  0.1316 -0.6584
  126OSM   H17T13490   4.934   1.034   8.339  1.6982 -0.8507  0.3547
  126OSM   C18S13491   4.913   1.207   8.473  0.3391  0.4255 -0.3034
  126OSM   H18S13492   4.963   1.171   8.566 -2.4309  0.0417  1.1297
  126OSM   H18T13493   4.803   1.195   8.482  0.1025  2.1848 -0.5209
  126OSM   H18U13494   4.933   1.316   8.461  1.4041  0.0277 -2.7349
  126OSM    C1F13495   5.590   1.523   6.853  0.7146 -0.0863 -0.3814
  126OSM     OF13496   5.553   1.624   6.794 -0.1205 -0.1435 -0.1182
  126OSM    C2F13497   5.706   1.523   6.940  0.4670  0.4685 -0.4378
  126OSM    H2F13498   5.739   1.629   6.947 -1.1447  1.1330 -1.8879
  126OSM    H2G13499   5.789   1.470   6.890  0.2137  1.3765 -1.8860
  126OSM    C3F13500   5.674   1.478   7.088 -1.1636 -0.1697  0.0756
  126OSM    H3F13501   5.770   1.502   7.138 -1.7119 -0.6969  1.4303
  126OSM    H3G13502   5.672   1.370   7.064 -0.4227 -0.1430 -0.1444
  126OSM    C4F13503   5.560   1.539   7.158  0.5787  0.1020  0.2253
  126OSM    H4F13504   5.462   1.511   7.113 -0.2286  0.1816  1.8469
  126OSM    H4G13505   5.568   1.649   7.170  2.1099 -0.0534  0.8516
  126OSM    C5F13506   5.536   1.492   7.303  0.2176 -0.5257 -0.1653
  126OSM    H5F13507   5.533   1.381   7.312  2.0254 -0.5552  0.5343
  126OSM    H5G13508   5.435   1.529   7.328  1.3926  2.5389  0.4246
  126OSM    C6F13509   5.622   1.549   7.419 -0.0676  0.3712  0.0298
  126OSM    H6F13510   5.601   1.658   7.428 -2.3849 -0.1544  2.0806
  126OSM    H6G13511   5.728   1.537   7.387  0.1320  0.5997  0.5969
  126OSM    C7F13512   5.588   1.476   7.549  0.0518  0.1480  0.5738
  126OSM    H7F13513   5.622   1.373   7.528 -2.1720 -0.5572  0.1546
  126OSM    H7G13514   5.477   1.470   7.560  0.0738 -1.5370  0.0691
  126OSM    C8F13515   5.660   1.533   7.682  0.1923  0.8218 -0.5964
  126OSM    H8F13516   5.635   1.467   7.768  1.2482  2.3396  0.9520
  126OSM    H8G13517   5.599   1.624   7.699 -0.5943  0.0512  0.9512
  126OSM    C9F13518   5.807   1.554   7.679 -0.5309 -0.1891  0.3109
  126OSM    H9F13519   5.858   1.459   7.660  0.7162  0.6717 -0.8610
  126OSM   C10F13520   5.877   1.669   7.665 -0.6310 -0.3816  0.0980
  126OSM   H10F13521   5.985   1.652   7.650 -0.7882  0.6570 -3.0469
  126OSM   C11F13522   5.831   1.812   7.658 -0.1145 -0.4485 -0.4335
  126OSM   H11F13523   5.896   1.880   7.718 -0.2587 -0.3713 -0.3640
  126OSM   H11G13524   5.726   1.825   7.694 -0.2514 -0.6233 -0.7665
  126OSM   C12F13525   5.846   1.871   7.511 -0.1197  0.5921  0.4544
  126OSM   H12F13526   5.811   1.975   7.499  0.3898  0.6655 -0.5818
  126OSM   H12G13527   5.791   1.801   7.444 -0.9718 -2.9347  4.4159
  126OSM   C13F13528   5.991   1.858   7.454 -0.3668  0.0787 -0.3267
  126OSM   H13F13529   6.028   1.753   7.459 -1.4716 -0.2661  2.1415
  126OSM   H13G13530   6.052   1.914   7.527 -1.1887 -1.6311  1.7795
  126OSM   C14F13531   6.012   1.932   7.321  0.0087 -0.1261 -0.1352
  126OSM   H14F13532   6.023   2.041   7.340 -1.0696  0.2712 -1.6505
  126OSM   H14G13533   5.931   1.906   7.250 -0.1110 -2.3086  0.7147
  126OSM   C15F13534   6.142   1.890   7.253 -0.6943 -0.4412  0.2960
  126OSM   H15F13535   6.225   1.902   7.326 -0.6405  0.5940  0.0869
  126OSM   H15G13536   6.170   1.959   7.170  1.3796  1.5692  2.5048
  126OSM   C16F13537   6.145   1.750   7.193  0.3434  0.4942  0.7299
  126OSM   H16F13538   6.056   1.701   7.237 -0.4253  0.7421 -0.4961
  126OSM   H16G13539   6.225   1.686   7.236 -0.5495  1.4447  4.0831
  126OSM   C17F13540   6.127   1.748   7.041  0.4483  0.1712  0.0156
  126OSM   H17F13541   6.131   1.642   7.008  1.8152  0.2247 -0.0506
  126OSM   H17G13542   6.210   1.794   6.983 -1.2648  3.5825  0.0385
  126OSM   C18F13543   6.003   1.811   6.980 -0.5198  0.3797  0.1616
  126OSM   H18F13544   5.991   1.796   6.871 -0.9668 -1.6253  0.4580
  126OSM   H18G13545   6.025   1.920   6.981  0.1380  0.2604 -0.4835
  126OSM   H18H13546   5.909   1.781   7.030 -2.2151  0.9013 -2.5322
  127OSM      N13547   1.484   3.092   5.883  0.3741  0.3775  0.1538
  127OSM    C1513548   1.414   3.160   5.772 -0.3487  0.3135 -0.5159
  127OSM   H15A13549   1.375   3.250   5.817 -0.5396 -2.1694  5.1378
  127OSM   H15B13550   1.333   3.096   5.740 -1.3929  0.7119  1.2420
  127OSM   H15C13551   1.480   3.177   5.688 -0.3996 -1.5054 -0.9772
  127OSM    C1413552   1.509   2.946   5.845 -0.4723 -0.0796 -0.1291
  127OSM   H14A13553   1.573   2.896   5.916  0.6719  1.4217 -0.0625
  127OSM   H14B13554   1.556   2.939   5.748 -1.5659  0.0548 -0.6819
  127OSM   H14C13555   1.419   2.887   5.837 -1.0313  0.2466  2.6258
  127OSM    C1313556   1.618   3.162   5.905  0.0147 -0.1111 -0.1122
  127OSM   H13A13557   1.687   3.150   5.823 -0.4877 -0.3672 -0.5010
  127OSM   H13B13558   1.660   3.121   5.996  1.9001  1.6795 -0.1144
  127OSM   H13C13559   1.588   3.263   5.928 -0.4141 -0.4911  1.0567
  127OSM    C1213560   1.399   3.104   6.006 -0.3758  0.2493 -0.1598
  127OSM   H12A13561   1.444   3.064   6.096 -0.0534  0.5820 -0.1718
  127OSM   H12B13562   1.311   3.042   5.998  1.1246 -1.8262 -1.9072
  127OSM    C1113563   1.343   3.250   6.038 -0.1089  1.1166  0.0099
  127OSM   H11A13564   1.427   3.322   6.048  2.1116 -1.2246 -0.8636
  127OSM   H11B13565   1.308   3.245   6.143 -0.1567 -0.7390 -0.0632
  127OSM      P13566   1.096   3.216   5.967 -0.4368  0.7745 -0.4209
  127OSM    O1313567   0.995   3.280   5.882  0.1463 -0.0582  0.0480
  127OSM    O1413568   1.112   3.068   5.945  0.1431  0.4374 -1.0375
  127OSM    O1113569   1.055   3.240   6.120 -0.4764 -0.8312 -0.4140
  127OSM    O1213570   1.234   3.291   5.947 -0.0723  0.1702  0.0872
  127OSM    C1S13571   1.022   3.362   6.175  0.2894 -0.1122 -0.4936
  127OSM    H1S13572   0.974   3.419   6.093 -0.4215 -1.8716 -1.3483
  127OSM    H1T13573   1.115   3.420   6.194  0.2397  0.4317 -1.8522
  127OSM     NF13574   0.864   3.466   6.336 -0.3516  0.1474 -0.4780
  127OSM    HNF13575   0.911   3.528   6.398  3.2288 -1.3694 -1.3706
  127OSM    C2S13576   0.943   3.344   6.306  0.1792 -0.0582 -0.0828
  127OSM    H2S13577   0.874   3.257   6.295  0.8255 -0.5483 -0.3670
  127OSM    C3S13578   1.050   3.302   6.419  0.2175 -0.5162 -0.8788
  127OSM    H3S13579   1.122   3.384   6.440  1.4566 -1.5084 -1.1524
  127OSM     O313580   1.130   3.187   6.384 -0.1626 -0.7215  0.8370
  127OSM    HO313581   1.097   3.180   6.294  1.1317  1.7629  0.0945
  127OSM    C4S13582   0.969   3.265   6.545  0.6016  0.4580 -0.5768
  127OSM    H4S13583   0.946   3.158   6.551  2.1191  0.1809  1.1157
  127OSM    C5S13584   0.953   3.341   6.654 -0.5932 -0.0850  0.4617
  127OSM    H5S13585   0.996   3.442   6.662  0.5185 -0.6560  2.6771
  127OSM    C6S13586   0.881   3.310   6.790 -0.2466  0.1965 -0.3172
  127OSM    H6S13587   0.825   3.214   6.793  0.9360 -0.5291 -0.6126
  127OSM    H6T13588   0.806   3.389   6.810  0.7199  0.8556  0.9027
  127OSM    C7S13589   0.986   3.290   6.906 -0.4991 -0.3377 -0.3096
  127OSM    H7S13590   1.039   3.386   6.925  0.3948 -0.6019 -1.3703
  127OSM    H7T13591   1.071   3.222   6.885 -0.9098 -1.1648  0.6045
  127OSM    C8S13592   0.910   3.250   7.036  0.4880 -0.0001 -0.6642
  127OSM    H8S13593   0.838   3.166   7.020 -0.8165  1.3513 -2.2882
  127OSM    H8T13594   0.844   3.338   7.049  0.2401  0.0255 -1.9197
  127OSM    C9S13595   1.005   3.210   7.151 -0.4965  0.8002 -0.5172
  127OSM    H9S13596   1.080   3.289   7.177  0.0982  0.2056 -0.3969
  127OSM    H9T13597   1.061   3.117   7.125 -3.2630 -1.5030  1.2458
  127OSM   C10S13598   0.933   3.193   7.284 -0.2470 -0.0714  0.2348
  127OSM   H10S13599   0.852   3.118   7.279 -1.0045  0.7582 -0.3023
  127OSM   H10T13600   0.884   3.285   7.323 -2.0435 -0.9802  0.2162
  127OSM   C11S13601   1.026   3.141   7.394  0.0955 -0.3280 -0.1666
  127OSM   H11S13602   1.109   3.214   7.407  0.2661 -0.3070 -1.2176
  127OSM   H11T13603   1.080   3.053   7.352  0.3477 -0.4194  0.3450
  127OSM   C12S13604   0.959   3.097   7.528  0.3770 -0.1500  0.1358
  127OSM   H12S13605   0.867   3.044   7.494 -0.0398  0.4841  0.2437
  127OSM   H12T13606   0.916   3.185   7.581  1.8252  0.8911 -0.3655
  127OSM   C13S13607   1.043   3.001   7.608 -0.1769 -0.3124 -0.0295
  127OSM   H13S13608   1.131   3.056   7.646  0.4413  0.7294 -2.7572
  127OSM   H13T13609   1.092   2.926   7.542  0.5204 -0.7400  0.9491
  127OSM   C14S13610   0.971   2.944   7.723 -0.3587  0.2139  0.1691
  127OSM   H14S13611   0.894   2.877   7.679 -0.2882  2.2988 -3.5197
  127OSM   H14T13612   0.931   3.010   7.803  1.3014 -1.4812  2.5266
  127OSM   C15S13613   1.068   2.851   7.809 -0.1452 -0.1059  0.3210
  127OSM   H15S13614   1.113   2.919   7.885 -1.5040  0.9815  0.1883
  127OSM   H15T13615   1.148   2.817   7.740  1.2589 -0.1557  1.8893
  127OSM   C16S13616   1.004   2.737   7.885  0.6381 -0.0853 -0.1779
  127OSM   H16S13617   1.095   2.698   7.934  0.8647 -0.0091 -0.5423
  127OSM   H16T13618   0.957   2.666   7.814  0.8197  0.7090 -1.1151
  127OSM   C17S13619   0.903   2.787   7.992 -0.0500  0.4610  0.0948
  127OSM   H17S13620   0.812   2.834   7.950  0.1991 -0.8476 -2.0530
  127OSM   H17T13621   0.951   2.870   8.048  1.2154  0.2405 -0.5979
  127OSM   C18S13622   0.857   2.680   8.087  0.6061  0.4549  0.0842
  127OSM   H18S13623   0.772   2.712   8.150 -0.7474 -1.2821 -0.7699
  127OSM   H18T13624   0.944   2.658   8.152 -1.3775 -3.8334  1.6197
  127OSM   H18U13625   0.841   2.584   8.035  1.5065  0.4203 -0.1417
  127OSM    C1F13626   0.755   3.505   6.272  0.3571 -0.0802 -0.6016
  127OSM     OF13627   0.703   3.430   6.194 -0.2806  0.3919  0.0071
  127OSM    C2F13628   0.705   3.638   6.302  0.3149  0.4394  0.3627
  127OSM    H2F13629   0.698   3.696   6.209 -0.8136 -0.1442  0.0650
  127OSM    H2G13630   0.775   3.696   6.366 -2.1510  0.8439  2.9260
  127OSM    C3F13631   0.564   3.633   6.371  0.4052 -1.0285  0.5432
  127OSM    H3F13632   0.567   3.558   6.452 -2.3448 -2.3801 -0.4606
  127OSM    H3G13633   0.484   3.597   6.303 -0.9879  1.2112  0.8838
  127OSM    C4F13634   0.515   3.775   6.415  1.2082 -0.2218 -0.0366
  127OSM    H4F13635   0.407   3.775   6.442  1.2411  1.3142  0.1927
  127OSM    H4G13636   0.527   3.859   6.343 -2.1899  2.2126  1.9246
  127OSM    C5F13637   0.596   3.825   6.542  0.5169 -0.0169  0.3643
  127OSM    H5F13638   0.686   3.880   6.507  0.2431  0.1922 -0.0133
  127OSM    H5G13639   0.641   3.744   6.604  1.3449  0.1972  0.0566
  127OSM    C6F13640   0.511   3.910   6.639  0.2374 -0.3116 -0.0118
  127OSM    H6F13641   0.430   3.838   6.664  0.0742  0.7586  2.8533
  127OSM    H6G13642   0.468   3.995   6.582 -1.2007 -0.4645  0.7795
  127OSM    C7F13643   0.579   3.946   6.771 -0.2499  0.1072 -0.5615
  127OSM    H7F13644   0.662   4.016   6.750 -0.9518  1.0039 -0.3944
  127OSM    H7G13645   0.625   3.856   6.818 -3.9171 -1.6931 -0.0506
  127OSM    C8F13646   0.487   4.001   6.880 -0.6027 -0.5022 -0.8103
  127OSM    H8F13647   0.402   3.931   6.897  0.3267 -1.1202  1.7950
  127OSM    H8G13648   0.440   4.097   6.849 -1.1710  0.5847  2.8409
  127OSM    C9F13649   0.566   4.035   7.001 -0.4237 -1.0730 -0.2864
  127OSM    H9F13650   0.675   4.021   6.996  0.0637  1.6878  0.7259
  127OSM   C10F13651   0.502   4.083   7.114  0.3713  0.4241  0.4471
  127OSM   H10F13652   0.571   4.105   7.197  0.3545  0.0605  0.5593
  127OSM   C11F13653   0.353   4.090   7.143 -0.1560 -0.6215  0.0100
  127OSM   H11F13654   0.298   4.043   7.058 -1.3278  1.0730 -0.2216
  127OSM   H11G13655   0.318   4.195   7.143  0.1227 -0.5091  1.4848
  127OSM   C12F13656   0.308   4.030   7.277 -0.6408  0.2025 -0.3371
  127OSM   H12F13657   0.332   3.921   7.282  1.3755  0.5524 -1.2998
  127OSM   H12G13658   0.198   4.044   7.273 -0.6349  0.3440  0.0195
  127OSM   C13F13659   0.354   4.120   7.396  0.4078 -0.3251  0.5275
  127OSM   H13F13660   0.330   4.228   7.382  2.5346  0.2540  0.9502
  127OSM   H13G13661   0.465   4.116   7.400  0.6587  2.1852 -1.3950
  127OSM   C14F13662   0.294   4.082   7.533  0.5473  0.9684  0.1264
  127OSM   H14F13663   0.302   3.972   7.545 -4.8712  0.4942  1.8012
  127OSM   H14G13664   0.186   4.092   7.508  0.6406 -1.1093 -1.3686
  127OSM   C15F13665   0.336   4.164   7.653  0.3859 -0.3596 -0.2299
  127OSM   H15F13666   0.317   4.272   7.640  1.9924 -0.0724 -0.2885
  127OSM   H15G13667   0.444   4.159   7.678  0.0577 -0.8352  1.2027
  127OSM   C16F13668   0.262   4.120   7.782  0.3775  0.1148  0.3626
  127OSM   H16F13669   0.263   4.011   7.803  2.3324  0.1975  0.8830
  127OSM   H16G13670   0.154   4.142   7.771  0.3024 -0.2689  0.3091
  127OSM   C17F13671   0.326   4.192   7.902  0.0546  0.0391 -0.4400
  127OSM   H17F13672   0.332   4.303   7.889  0.8385  0.3339  1.9811
  127OSM   H17G13673   0.418   4.142   7.937 -1.9659 -1.3271  3.6297
  127OSM   C18F13674   0.234   4.166   8.028 -0.6380  0.2562 -0.1547
  127OSM   H18F13675   0.248   4.245   8.105 -0.9713 -0.2178  0.3961
  127OSM   H18G13676   0.271   4.071   8.072 -2.0851  0.2288  1.0614
  127OSM   H18H13677   0.127   4.145   8.011 -0.4255 -4.1247  2.4763
  128OSM      N13678   1.798   4.747   5.672  0.0026 -0.0368  0.5079
  128OSM    C1513679   1.880   4.869   5.628  0.6355  0.4226 -0.0290
  128OSM   H15A13680   1.856   4.961   5.680  0.5488 -0.1974  1.0553
  128OSM   H15B13681   1.878   4.871   5.520 -1.2003  0.9679 -0.0340
  128OSM   H15C13682   1.983   4.848   5.652 -0.5709 -1.7285  4.3554
  128OSM    C1413683   1.659   4.766   5.622 -0.0492 -0.0562 -0.0665
  128OSM   H14A13684   1.613   4.857   5.658  1.8715  0.8096  0.3470
  128OSM   H14B13685   1.598   4.677   5.629  0.6771 -0.5497  0.0250
  128OSM   H14C13686   1.644   4.770   5.515 -1.8334 -1.1288  0.0916
  128OSM    C1313687   1.861   4.629   5.614  0.7470 -0.4062 -0.3890
  128OSM   H13A13688   1.817   4.624   5.515 -0.9619  0.0016  0.3155
  128OSM   H13B13689   1.830   4.541   5.667 -1.5372  0.9842  0.7307
  128OSM   H13C13690   1.966   4.656   5.613  0.0958  2.5472 -1.8292
  128OSM    C1213691   1.789   4.746   5.824  0.4332 -0.0579  0.2111
  128OSM   H12A13692   1.715   4.676   5.857 -1.0876  0.9591 -0.8964
  128OSM   H12B13693   1.745   4.840   5.852  0.7718  0.3378 -0.5333
  128OSM    C1113694   1.917   4.716   5.896 -0.6731 -0.0598 -0.0526
  128OSM   H11A13695   1.966   4.632   5.842  0.1989  0.7800 -0.5971
  128OSM   H11B13696   1.884   4.664   5.988  1.0502 -1.7758 -0.3532
  128OSM      P13697   2.154   4.833   5.955 -0.0545  0.1861  0.4727
  128OSM    O1313698   2.225   4.755   5.850  0.5261 -0.3004 -0.0604
  128OSM    O1413699   2.191   4.974   5.971 -0.1540 -0.0114  0.2212
  128OSM    O1113700   2.173   4.752   6.086  1.1576 -0.2884 -0.1889
  128OSM    O1213701   1.994   4.831   5.931 -0.2144  0.3995  0.5574
  128OSM    C1S13702   2.297   4.712   6.133 -1.0118 -0.6559 -0.0672
  128OSM    H1S13703   2.359   4.803   6.147 -1.1579 -0.5857  0.1369
  128OSM    H1T13704   2.352   4.642   6.067 -1.9573  0.2875 -1.9594
  128OSM     NF13705   2.400   4.616   6.345 -0.6008 -0.5140 -0.5134
  128OSM    HNF13706   2.425   4.519   6.344  0.6247 -0.3737  2.6902
  128OSM    C2S13707   2.278   4.669   6.285  0.0874  0.0772  0.0700
  128OSM    H2S13708   2.243   4.762   6.335  0.9063  1.2243 -1.4225
  128OSM    C3S13709   2.163   4.563   6.306  1.1548 -0.1889  0.1439
  128OSM    H3S13710   2.201   4.474   6.253  0.6933 -0.2464 -0.0893
  128OSM     O313711   2.033   4.587   6.246 -0.7422  0.0371 -0.0239
  128OSM    HO313712   2.053   4.641   6.169  1.3157  1.3148  1.2948
  128OSM    C4S13713   2.135   4.534   6.447  1.1429 -0.3296  0.2488
  128OSM    H4S13714   2.058   4.600   6.490  1.0382 -0.4293  0.2150
  128OSM    C5S13715   2.173   4.428   6.519 -0.4520  0.0740  0.4777
  128OSM    H5S13716   2.233   4.349   6.472  1.0107  1.1738  0.4564
  128OSM    C6S13717   2.134   4.387   6.655 -0.1209 -0.1894 -0.1060
  128OSM    H6S13718   2.224   4.334   6.694 -0.5549 -1.8843 -1.2868
  128OSM    H6T13719   2.052   4.312   6.651  1.0998 -1.5426 -1.2402
  128OSM    C7S13720   2.102   4.488   6.758  0.1136  0.4308 -0.4182
  128OSM    H7S13721   2.007   4.544   6.745  0.3625  1.2592  1.1168
  128OSM    H7T13722   2.182   4.565   6.759  0.5257  0.0107 -0.8606
  128OSM    C8S13723   2.111   4.419   6.895  0.5289 -0.2510  0.9502
  128OSM    H8S13724   2.212   4.374   6.908  0.9110  0.8261  1.7597
  128OSM    H8T13725   2.041   4.332   6.902  1.6713 -1.6228 -2.4814
  128OSM    C9S13726   2.080   4.521   7.012  0.4817  0.5359  0.2479
  128OSM    H9S13727   1.977   4.559   6.997 -0.2567 -1.6121 -0.5393
  128OSM    H9T13728   2.152   4.605   7.005  0.8581  0.2782  0.9038
  128OSM   C10S13729   2.094   4.444   7.148 -0.6243  0.7067 -0.5039
  128OSM   H10S13730   2.185   4.381   7.144  1.0367  3.0433 -1.7168
  128OSM   H10T13731   2.014   4.371   7.174  0.2674 -0.4463 -0.9796
  128OSM   C11S13732   2.108   4.544   7.263 -0.1712 -0.4356 -1.0720
  128OSM   H11S13733   2.032   4.624   7.252 -0.2274 -0.6239 -2.1075
  128OSM   H11T13734   2.204   4.599   7.251  0.2582 -0.7795  0.5696
  128OSM   C12S13735   2.097   4.492   7.402 -0.2577  0.2412 -0.1468
  128OSM   H12S13736   2.151   4.395   7.403 -1.7862 -0.6680 -0.9288
  128OSM   H12T13737   1.989   4.467   7.416 -0.0638  0.3292  1.5986
  128OSM   C13S13738   2.142   4.577   7.520  0.7864  0.2786 -0.5501
  128OSM   H13S13739   2.059   4.649   7.542  1.2347  1.2400 -1.8159
  128OSM   H13T13740   2.234   4.634   7.493  0.8404  0.0733 -0.8062
  128OSM   C14S13741   2.159   4.503   7.658 -0.2063  0.8166  0.1762
  128OSM   H14S13742   2.237   4.427   7.638  0.1071  1.2227 -0.1608
  128OSM   H14T13743   2.063   4.449   7.677 -0.9199  1.6472 -0.9417
  128OSM   C15S13744   2.182   4.608   7.772  0.4687 -0.3555 -0.2542
  128OSM   H15S13745   2.125   4.702   7.755  0.9633 -0.0276 -0.0997
  128OSM   H15T13746   2.285   4.648   7.770  1.0282 -1.5493  2.0635
  128OSM   C16S13747   2.148   4.550   7.914  0.9548 -0.1922  0.0101
  128OSM   H16S13748   2.037   4.551   7.920  0.9787  1.2731  0.6822
  128OSM   H16T13749   2.178   4.630   7.985  2.3211  0.2805 -1.0478
  128OSM   C17S13750   2.222   4.422   7.953 -0.8588 -0.1276  0.0322
  128OSM   H17S13751   2.218   4.348   7.872 -0.6797 -2.3470  1.9453
  128OSM   H17T13752   2.177   4.367   8.038 -0.6344 -0.9524 -0.3809
  128OSM   C18S13753   2.376   4.434   7.981 -0.5154  0.2423  1.1910
  128OSM   H18S13754   2.397   4.488   8.075 -1.3739  1.1473  0.8738
  128OSM   H18T13755   2.438   4.466   7.894 -0.6085 -0.2748  0.9272
  128OSM   H18U13756   2.417   4.332   7.997 -0.3395 -0.0187 -0.6720
  128OSM    C1F13757   2.495   4.702   6.386 -0.2656 -0.3691 -0.5349
  128OSM     OF13758   2.479   4.821   6.363  0.1223  0.1209 -0.0859
  128OSM    C2F13759   2.627   4.650   6.448  0.1315 -0.9632 -0.0665
  128OSM    H2F13760   2.692   4.658   6.359 -1.0691  3.7429 -0.7704
  128OSM    H2G13761   2.617   4.541   6.469  1.4318 -1.2774 -1.0010
  128OSM    C3F13762   2.692   4.733   6.563  0.0396  0.3584  0.7799
  128OSM    H3F13763   2.737   4.815   6.501  0.2543  0.5761  1.2187
  128OSM    H3G13764   2.779   4.676   6.602  0.6562  0.0299 -0.9666
  128OSM    C4F13765   2.598   4.771   6.669  0.3358  0.0238 -0.1594
  128OSM    H4F13766   2.555   4.687   6.728 -1.1576  1.1746  0.4735
  128OSM    H4G13767   2.503   4.815   6.631  1.1833  1.7531 -0.3822
  128OSM    C5F13768   2.670   4.865   6.759 -0.1521 -0.3382 -0.3106
  128OSM    H5F13769   2.721   4.952   6.713 -0.2627 -0.7891 -1.3129
  128OSM    H5G13770   2.746   4.811   6.820 -0.5087  0.5492  0.9658
  128OSM    C6F13771   2.575   4.917   6.866  0.6734  0.1994 -0.2262
  128OSM    H6F13772   2.522   4.833   6.916 -1.5847  0.8784 -1.3220
  128OSM    H6G13773   2.508   4.992   6.818  3.2265  1.0560 -2.7388
  128OSM    C7F13774   2.655   4.973   6.984  0.5514  0.9569 -0.8027
  128OSM    H7F13775   2.697   5.072   6.956 -1.1152  2.3436  1.2618
  128OSM    H7G13776   2.736   4.903   7.013 -0.5656 -0.1659 -0.3227
  128OSM    C8F13777   2.564   5.003   7.113  0.3009  0.3574  0.9949
  128OSM    H8F13778   2.491   5.082   7.083 -0.6642 -1.3319 -1.5717
  128OSM    H8G13779   2.634   5.047   7.187  0.5398  0.1985  0.8646
  128OSM    C9F13780   2.489   4.885   7.170  0.5205  0.4467 -0.4046
  128OSM    H9F13781   2.399   4.850   7.117 -0.2122 -0.3758  1.3040
  128OSM   C10F13782   2.526   4.815   7.286  0.2843  0.4299  0.3174
  128OSM   H10F13783   2.459   4.733   7.316 -0.7140  0.2820 -2.0470
  128OSM   C11F13784   2.649   4.826   7.368  0.0773 -0.5731  0.3084
  128OSM   H11F13785   2.731   4.886   7.322 -0.2908 -1.4125 -1.4957
  128OSM   H11G13786   2.697   4.726   7.363  0.2389 -0.4818  0.0205
  128OSM   C12F13787   2.635   4.882   7.511  0.2419 -0.1018 -0.1350
  128OSM   H12F13788   2.555   4.822   7.560  0.0863 -0.4536 -0.8123
  128OSM   H12G13789   2.598   4.987   7.514 -1.7934 -0.7853 -0.0286
  128OSM   C13F13790   2.764   4.859   7.593 -0.2760  0.5176  0.1929
  128OSM   H13F13791   2.843   4.937   7.590 -0.4140  0.7290  1.3561
  128OSM   H13G13792   2.812   4.771   7.545 -0.3717  2.0137 -2.8614
  128OSM   C14F13793   2.750   4.838   7.741 -0.3370  0.1099 -0.2473
  128OSM   H14F13794   2.655   4.786   7.760 -2.6649  3.3390 -2.0494
  128OSM   H14G13795   2.726   4.938   7.785 -2.5147 -0.2376 -0.5726
  128OSM   C15F13796   2.874   4.781   7.813 -0.4900 -0.2971 -0.1727
  128OSM   H15F13797   2.962   4.841   7.784  0.5206 -0.9001  1.4873
  128OSM   H15G13798   2.894   4.680   7.773 -0.7032 -0.3496 -0.1472
  128OSM   C16F13799   2.876   4.774   7.969  0.2122  0.6660 -0.5181
  128OSM   H16F13800   2.959   4.704   7.993  0.0706 -0.1090 -2.1362
  128OSM   H16G13801   2.783   4.730   8.011  1.3734 -0.9541  0.4795
  128OSM   C17F13802   2.906   4.902   8.046 -0.3125  0.1210 -0.5309
  128OSM   H17F13803   2.826   4.973   8.017  0.9053  1.8666  0.1971
  128OSM   H17G13804   3.001   4.942   8.003 -0.0547  0.6839  0.5278
  128OSM   C18F13805   2.922   4.882   8.195  0.5299  0.8568 -1.0197
  128OSM   H18F13806   3.016   4.827   8.214  0.2343  0.3628 -0.9690
  128OSM   H18G13807   2.841   4.822   8.242 -0.6405  1.4353 -2.2409
  128OSM   H18H13808   2.916   4.982   8.243 -1.0416 -0.7218  2.4582
  129OSM      N13809   0.853   2.143   5.691  0.5530 -0.3207 -0.2638
  129OSM    C1513810   0.827   2.274   5.625 -0.2924  0.3279  0.5360
  129OSM   H15A13811   0.881   2.342   5.689  1.0193 -1.6384  1.6497
  129OSM   H15B13812   0.724   2.303   5.618  0.0105  1.6470  1.1645
  129OSM   H15C13813   0.873   2.270   5.527 -2.7391 -2.3044 -0.6342
  129OSM    C1413814   0.755   2.143   5.810 -1.1505  0.3353  0.4462
  129OSM   H14A13815   0.814   2.191   5.888 -0.4588  0.2029  0.0109
  129OSM   H14B13816   0.722   2.042   5.828  0.9184 -0.5498 -0.4996
  129OSM   H14C13817   0.673   2.202   5.772 -0.5404  1.3790  0.7017
  129OSM    C1313818   0.797   2.039   5.597 -0.6259 -0.1035 -0.7647
  129OSM   H13A13819   0.859   2.030   5.510 -1.1042 -1.3246 -0.9940
  129OSM   H13B13820   0.699   2.064   5.560 -0.3757  1.2950 -0.5678
  129OSM   H13C13821   0.782   1.949   5.654 -0.6215  0.2399 -0.2078
  129OSM    C1213822   0.991   2.128   5.728  0.3555  0.3767 -0.5932
  129OSM   H12A13823   1.052   2.128   5.639  1.7560  0.4574  0.3318
  129OSM   H12B13824   1.009   2.033   5.775  3.1093  2.6532  3.5530
  129OSM    C1113825   1.052   2.228   5.819 -0.2352 -0.1404 -0.4703
  129OSM   H11A13826   1.044   2.331   5.777 -0.8014 -0.0135 -0.0620
  129OSM   H11B13827   1.162   2.214   5.820 -0.0662  1.0310 -0.6941
  129OSM      P13828   1.020   2.089   6.039 -0.1084 -0.0756  0.3830
  129OSM    O1313829   0.892   2.055   6.102  0.3142  0.1376  0.2494
  129OSM    O1413830   1.074   1.975   5.960 -0.1144 -0.1772 -0.2426
  129OSM    O1113831   1.124   2.134   6.143 -0.1139 -0.4452  0.3162
  129OSM    O1213832   0.994   2.214   5.950  0.1660  0.0398 -0.1577
  129OSM    C1S13833   1.091   2.229   6.246  0.1932  0.2443  1.3624
  129OSM    H1S13834   0.982   2.250   6.241 -0.2682 -2.1247 -1.2937
  129OSM    H1T13835   1.155   2.319   6.233  1.2178 -0.5897  0.4367
  129OSM     NF13836   1.048   2.273   6.485  0.1844  0.4773 -0.4647
  129OSM    HNF13837   1.111   2.308   6.554  0.2566 -1.4530  0.4974
  129OSM    C2S13838   1.088   2.173   6.388 -0.0251 -0.7890 -0.6331
  129OSM    H2S13839   1.015   2.090   6.394  0.1124 -0.8321  1.3039
  129OSM    C3S13840   1.227   2.103   6.422  0.3561  0.0835 -0.0835
  129OSM    H3S13841   1.302   2.183   6.444 -0.2812  0.7766 -0.3675
  129OSM     O313842   1.268   2.011   6.319  0.4287  0.1202 -0.4166
  129OSM    HO313843   1.221   2.040   6.240 -1.1804  0.1942  0.5194
  129OSM    C4S13844   1.214   2.017   6.548 -0.4135  0.8202 -0.1404
  129OSM    H4S13845   1.145   1.932   6.538 -1.8175  1.9989 -0.9370
  129OSM    C5S13846   1.269   2.045   6.662  0.2810  0.2601 -1.5308
  129OSM    H5S13847   1.336   2.131   6.676  0.1850  0.0419  0.6247
  129OSM    C6S13848   1.240   1.957   6.785  0.5006  0.0081 -0.6099
  129OSM    H6S13849   1.332   1.912   6.828  0.9611  1.3370 -0.1640
  129OSM    H6T13850   1.172   1.873   6.758  0.3445 -0.7295  1.8845
  129OSM    C7S13851   1.174   2.033   6.904  0.0127  0.1623  0.3077
  129OSM    H7S13852   1.088   2.097   6.873  0.0525  2.5148  4.3305
  129OSM    H7T13853   1.249   2.110   6.934  0.7034  0.1563 -1.2951
  129OSM    C8S13854   1.147   1.938   7.027 -0.5124 -0.8356  0.4802
  129OSM    H8S13855   1.238   1.878   7.052  0.6418  0.7534  0.2878
  129OSM    H8T13856   1.072   1.863   6.995  0.2475 -1.0689 -0.8547
  129OSM    C9S13857   1.108   2.019   7.148  0.1153 -0.1284  0.0723
  129OSM    H9S13858   1.028   2.092   7.124  1.2426  0.9292 -0.5436
  129OSM    H9T13859   1.195   2.084   7.170 -0.1613  1.4825 -3.0327
  129OSM   C10S13860   1.066   1.918   7.258 -0.2087 -0.8774  0.5919
  129OSM   H10S13861   1.150   1.845   7.260  0.6776  0.1375  1.0254
  129OSM   H10T13862   0.979   1.855   7.230 -0.3405 -0.6849  0.5706
  129OSM   C11S13863   1.042   1.987   7.389  0.5320 -0.0134 -0.4175
  129OSM   H11S13864   0.963   2.065   7.390  1.4474  0.9784 -1.5285
  129OSM   H11T13865   1.144   2.027   7.410  2.3178 -3.4835 -1.6557
  129OSM   C12S13866   1.005   1.886   7.495  0.1768  0.3552 -0.8039
  129OSM   H12S13867   1.066   1.796   7.472  0.2237  0.2972 -0.4593
  129OSM   H12T13868   0.897   1.860   7.489 -0.4146  2.3736  0.3320
  129OSM   C13S13869   1.040   1.932   7.637 -0.4011 -0.4224 -0.1723
  129OSM   H13S13870   1.139   1.981   7.641 -0.3167 -0.5595 -0.5904
  129OSM   H13T13871   1.044   1.838   7.697 -1.1783 -0.2536  0.1629
  129OSM   C14S13872   0.933   2.038   7.692 -0.0283  0.7122 -0.0252
  129OSM   H14S13873   0.836   2.004   7.650  0.1730 -0.4401  0.4032
  129OSM   H14T13874   0.960   2.139   7.656  0.6047  1.7001  2.9679
  129OSM   C15S13875   0.925   2.048   7.851 -0.5145 -0.3461  0.5208
  129OSM   H15S13876   0.955   1.954   7.902  0.1619 -0.0441  0.6885
  129OSM   H15T13877   0.822   2.072   7.886 -0.1664  1.9835  0.0784
  129OSM   C16S13878   1.012   2.167   7.896 -0.1724  0.1886 -0.0270
  129OSM   H16S13879   0.965   2.252   7.843  0.7725 -0.0263 -1.2382
  129OSM   H16T13880   1.121   2.159   7.875 -0.1901 -0.9235  0.2467
  129OSM   C17S13881   0.991   2.198   8.047  0.4666  0.2777 -0.3154
  129OSM   H17S13882   0.980   2.105   8.106 -2.2595  0.2625 -0.7035
  129OSM   H17T13883   0.889   2.242   8.055  0.1331 -0.6807  0.9324
  129OSM   C18S13884   1.088   2.308   8.103  0.0609  0.3465  0.4416
  129OSM   H18S13885   1.195   2.279   8.095  0.1959  0.5677  1.2807
  129OSM   H18T13886   1.053   2.332   8.206  1.2335  0.8505  0.7368
  129OSM   H18U13887   1.082   2.405   8.050  1.8072 -0.4694 -1.3447
  129OSM    C1F13888   0.924   2.323   6.503  0.2292 -0.5465  0.2394
  129OSM     OF13889   0.821   2.286   6.449  0.1014  0.1194  0.0755
  129OSM    C2F13890   0.917   2.445   6.596  0.0280  0.3552  0.0156
  129OSM    H2F13891   0.821   2.500   6.596 -0.2495 -0.0623 -1.6145
  129OSM    H2G13892   0.994   2.511   6.551  1.4315 -1.1444  0.1109
  129OSM    C3F13893   0.946   2.421   6.745 -0.0077  0.1672 -0.2992
  129OSM    H3F13894   0.971   2.524   6.775 -1.2591  0.4796 -0.2717
  129OSM    H3G13895   1.033   2.351   6.744 -2.3487 -3.0028 -0.2539
  129OSM    C4F13896   0.838   2.351   6.830 -0.6354 -0.5768  0.8195
  129OSM    H4F13897   0.839   2.245   6.796  2.5379 -0.8251  1.3443
  129OSM    H4G13898   0.744   2.402   6.801  1.3754  1.8441 -1.9376
  129OSM    C5F13899   0.840   2.347   6.979  0.0201 -0.6825  0.1159
  129OSM    H5F13900   0.866   2.449   7.015 -0.9044 -1.1227  2.1958
  129OSM    H5G13901   0.920   2.284   7.024 -0.3946 -0.3292  1.3863
  129OSM    C6F13902   0.717   2.296   7.055  0.3217  1.0602 -0.1281
  129OSM    H6F13903   0.692   2.198   7.007 -0.7874  1.2560  0.0354
  129OSM    H6G13904   0.634   2.369   7.043 -1.7870 -1.2432 -0.5319
  129OSM    C7F13905   0.756   2.282   7.209  0.3694  0.2982 -0.0173
  129OSM    H7F13906   0.762   2.384   7.252  3.4393  0.1138  0.1715
  129OSM    H7G13907   0.851   2.229   7.228 -0.5913 -0.3768  3.5575
  129OSM    C8F13908   0.637   2.220   7.296  0.0295 -0.0762 -0.0348
  129OSM    H8F13909   0.548   2.283   7.278 -1.2153 -1.9845 -0.7843
  129OSM    H8G13910   0.671   2.242   7.400 -0.9217  0.8381  0.0909
  129OSM    C9F13911   0.617   2.074   7.276 -0.1314  0.2248 -0.6281
  129OSM    H9F13912   0.632   2.044   7.171  0.6980  0.0178 -0.4618
  129OSM   C10F13913   0.583   1.982   7.368  0.4761  0.9362  0.1676
  129OSM   H10F13914   0.560   1.879   7.337 -0.0605  0.9183  0.6080
  129OSM   C11F13915   0.555   2.005   7.506 -0.1779 -0.7993 -1.1158
  129OSM   H11F13916   0.469   2.074   7.520  1.3590  1.7704 -3.2737
  129OSM   H11G13917   0.630   2.069   7.556  0.5708 -2.1086 -0.5170
  129OSM   C12F13918   0.557   1.878   7.586 -0.2675  0.2349 -0.0130
  129OSM   H12F13919   0.652   1.825   7.562 -0.1772 -0.4774  1.8029
  129OSM   H12G13920   0.477   1.805   7.561  0.3500 -0.0311 -1.2839
  129OSM   C13F13921   0.564   1.902   7.741 -0.3764  0.1260  0.0240
  129OSM   H13F13922   0.470   1.955   7.764  1.0241  1.8432  2.2183
  129OSM   H13G13923   0.638   1.982   7.763 -3.1666  2.0883  3.1652
  129OSM   C14F13924   0.562   1.776   7.823  0.3898  0.6922  0.2790
  129OSM   H14F13925   0.622   1.691   7.785  1.3407  1.0630  0.9188
  129OSM   H14G13926   0.456   1.744   7.829  0.7753 -0.5326  0.8088
  129OSM   C15F13927   0.613   1.805   7.966  0.1890  0.2854  0.3438
  129OSM   H15F13928   0.723   1.808   7.956  0.0174  1.2846 -1.5720
  129OSM   H15G13929   0.579   1.711   8.015 -0.1258  0.7785  1.0974
  129OSM   C16F13930   0.559   1.931   8.030  0.0530 -0.6056  0.0481
  129OSM   H16F13931   0.450   1.942   8.051  0.3153  2.0251  0.3904
  129OSM   H16G13932   0.586   2.011   7.957 -3.5105  0.0308 -0.8024
  129OSM   C17F13933   0.614   1.960   8.170 -0.9466 -0.0236  0.4159
  129OSM   H17F13934   0.604   2.068   8.196  0.1030  0.3935 -0.7697
  129OSM   H17G13935   0.724   1.945   8.171 -1.1380 -1.5953  1.1654
  129OSM   C18F13936   0.546   1.879   8.277 -0.9674  0.1332  0.0976
  129OSM   H18F13937   0.443   1.917   8.297 -1.1706 -0.1272 -0.4343
  129OSM   H18G13938   0.603   1.880   8.372 -2.3077 -1.1564  0.9618
  129OSM   H18H13939   0.543   1.772   8.246 -1.5508 -0.0288  0.6814
  130OSM      N13940   4.320   3.776   6.114 -0.2615  0.4886  0.7936
  130OSM    C1513941   4.443   3.863   6.110  0.0387 -0.6640  0.3174
  130OSM   H15A13942   4.426   3.931   6.027  1.1256 -1.1050 -0.2946
  130OSM   H15B13943   4.536   3.828   6.067  0.6582  0.9824  0.2273
  130OSM   H15C13944   4.463   3.934   6.189  1.5524  0.0518 -0.6473
  130OSM    C1413945   4.204   3.858   6.156 -0.2199  0.0902  0.6890
  130OSM   H14A13946   4.187   3.874   6.262 -0.7901 -2.0775  0.9718
  130OSM   H14B13947   4.117   3.801   6.128  0.0831 -0.4867  0.9124
  130OSM   H14C13948   4.196   3.952   6.103 -1.5607 -0.3554  0.0484
  130OSM    C1313949   4.308   3.728   5.973  0.0512  0.0729 -0.0440
  130OSM   H13A13950   4.402   3.698   5.928 -0.5786 -2.2085  0.0129
  130OSM   H13B13951   4.274   3.809   5.910 -3.6060  1.0739  2.8672
  130OSM   H13C13952   4.246   3.642   5.955 -1.3522  1.2612 -1.1362
  130OSM    C1213953   4.347   3.658   6.204 -0.8630 -0.7182 -0.4308
  130OSM   H12A13954   4.253   3.605   6.209 -0.8367 -0.8005 -0.7959
  130OSM   H12B13955   4.362   3.690   6.306 -0.3427 -1.6156 -0.2186
  130OSM    C1113956   4.452   3.557   6.175 -0.1661  0.9416 -0.4788
  130OSM   H11A13957   4.458   3.487   6.261 -1.5645  0.4445 -0.7648
  130OSM   H11B13958   4.554   3.602   6.173  1.1737 -1.9083 -1.1413
  130OSM      P13959   4.357   3.356   6.045 -0.1142 -0.0436 -0.5515
  130OSM    O1313960   4.232   3.387   5.968  0.0341  0.1647  0.1349
  130OSM    O1413961   4.432   3.243   5.985 -0.1374 -0.0144 -0.7913
  130OSM    O1113962   4.308   3.319   6.195 -0.1118 -0.2336 -0.5075
  130OSM    O1213963   4.440   3.484   6.051  0.1850 -0.2860  0.2965
  130OSM    C1S13964   4.389   3.231   6.279 -0.3115  0.2458 -0.0078
  130OSM    H1S13965   4.497   3.258   6.289  0.1764 -2.2929  3.0442
  130OSM    H1T13966   4.397   3.133   6.227  0.2924  0.9592 -1.3150
  130OSM     NF13967   4.432   3.147   6.501  0.2211 -0.2652 -0.1209
  130OSM    HNF13968   4.404   3.053   6.518  0.2875 -0.0386  1.3493
  130OSM    C2S13969   4.335   3.212   6.419  0.1534  0.0054  0.6621
  130OSM    H2S13970   4.317   3.315   6.456 -1.2422 -0.4022  1.1687
  130OSM    C3S13971   4.193   3.145   6.413 -0.4176 -0.5251  0.3671
  130OSM    H3S13972   4.205   3.043   6.371 -0.3871 -0.5149  0.3520
  130OSM     O313973   4.102   3.208   6.319  0.5230  0.3456 -0.6422
  130OSM    HO313974   4.165   3.264   6.274 -0.1375 -0.3983 -2.6434
  130OSM    C4S13975   4.128   3.125   6.546 -0.1865  0.5246 -0.0423
  130OSM    H4S13976   4.171   3.037   6.596  0.0144  0.9793  0.6098
  130OSM    C5S13977   4.040   3.204   6.607  0.2593 -0.4145  0.0343
  130OSM    H5S13978   4.002   3.292   6.554 -0.5103 -0.4997  0.4350
  130OSM    C6S13979   3.988   3.179   6.738  0.5662 -0.2540 -0.6045
  130OSM    H6S13980   3.980   3.069   6.749  1.1507 -0.2344  0.1464
  130OSM    H6T13981   3.885   3.218   6.751  1.0140  0.7551  0.1370
  130OSM    C7S13982   4.081   3.235   6.848  0.0990 -0.1675 -0.0668
  130OSM    H7S13983   4.096   3.343   6.824 -3.2605 -0.0207 -2.0992
  130OSM    H7T13984   4.181   3.187   6.854 -0.8828 -2.1497  2.4986
  130OSM    C8S13985   4.035   3.208   6.990 -0.3770 -0.0692  0.4994
  130OSM    H8S13986   4.019   3.098   6.996  1.2698 -0.3247  0.6998
  130OSM    H8T13987   3.942   3.266   7.002  0.0289  0.5804  0.5551
  130OSM    C9S13988   4.133   3.252   7.100  0.1901  0.1406 -0.3093
  130OSM    H9S13989   4.174   3.353   7.078 -1.6635  0.8595 -0.6306
  130OSM    H9T13990   4.217   3.179   7.104 -0.0761 -0.0967  2.4176
  130OSM   C10S13991   4.062   3.267   7.233 -0.3971  0.6932  0.1495
  130OSM   H10S13992   3.997   3.357   7.233  0.6167  1.4858 -2.0324
  130OSM   H10T13993   4.134   3.289   7.314  0.9916 -1.1666 -0.5094
  130OSM   C11S13994   3.986   3.140   7.271  0.6042  0.6434  0.6350
  130OSM   H11S13995   4.059   3.056   7.272  1.2537  1.1373 -1.3220
  130OSM   H11T13996   3.906   3.122   7.196  0.6994 -3.2336  1.2435
  130OSM   C12S13997   3.929   3.147   7.414 -0.5531 -0.0870  0.8947
  130OSM   H12S13998   3.854   3.065   7.417 -1.5821  0.6836 -1.5270
  130OSM   H12T13999   3.873   3.242   7.426  0.4059  0.7642 -0.9445
  130OSM   C13S14000   4.037   3.133   7.516  0.0738 -0.8491  0.5345
  130OSM   H13S14001   4.103   3.222   7.512 -1.5726  0.3750 -0.7268
  130OSM   H13T14002   4.097   3.040   7.502 -1.1067 -1.5866  0.2839
  130OSM   C14S14003   3.992   3.120   7.661  0.5338 -0.2413  0.4912
  130OSM   H14S14004   3.963   3.220   7.699  0.9738 -0.3809  1.2230
  130OSM   H14T14005   4.078   3.092   7.726 -0.7840 -0.3545  2.2848
  130OSM   C15S14006   3.881   3.026   7.707 -0.1099 -0.3673  0.0756
  130OSM   H15S14007   3.888   2.934   7.645 -0.3321 -0.3251 -0.0151
  130OSM   H15T14008   3.785   3.082   7.703 -0.0499 -0.1932  0.9540
  130OSM   C16S14009   3.896   2.986   7.854  0.4325 -0.2431 -0.4916
  130OSM   H16S14010   3.999   2.955   7.878  0.2394  0.2183  1.0393
  130OSM   H16T14011   3.829   2.899   7.870 -0.2965  0.5200  0.8253
  130OSM   C17S14012   3.848   3.092   7.955 -0.6541 -0.7449 -0.1011
  130OSM   H17S14013   3.881   3.193   7.921 -1.8702 -0.6159 -0.9876
  130OSM   H17T14014   3.903   3.082   8.051  0.3190 -1.6571 -0.7225
  130OSM   C18S14015   3.697   3.095   7.973  0.6799  0.0918  0.6305
  130OSM   H18S14016   3.659   2.995   8.002  1.0325 -0.2365  0.0029
  130OSM   H18T14017   3.646   3.119   7.877 -1.0713 -0.5720  1.3490
  130OSM   H18U14018   3.671   3.169   8.051 -0.3170 -1.5413  1.9299
  130OSM    C1F14019   4.555   3.184   6.536 -0.2779  1.0848 -0.0042
  130OSM     OF14020   4.599   3.293   6.502 -0.9557 -0.3647 -0.0623
  130OSM    C2F14021   4.628   3.085   6.618  0.5664  0.3952 -0.0474
  130OSM    H2F14022   4.609   2.983   6.577  1.8363 -0.0105  0.3333
  130OSM    H2G14023   4.595   3.101   6.723 -0.8818  0.2396 -0.4527
  130OSM    C3F14024   4.782   3.100   6.604 -0.1670  0.4272 -0.4517
  130OSM    H3F14025   4.815   3.201   6.637 -2.4261  1.4193 -1.0359
  130OSM    H3G14026   4.812   3.092   6.497  0.2860  1.3847 -0.4017
  130OSM    C4F14027   4.857   3.002   6.692  0.3646 -0.6711 -0.1504
  130OSM    H4F14028   4.964   3.027   6.682  0.1537  1.0904  1.4282
  130OSM    H4G14029   4.840   2.898   6.658  1.1656 -0.9271  0.2137
  130OSM    C5F14030   4.820   2.999   6.847  0.5571 -0.5053 -0.1556
  130OSM    H5F14031   4.721   2.952   6.863  1.3601 -1.5886  1.8485
  130OSM    H5G14032   4.813   3.103   6.885 -1.2684 -0.8674  0.6009
  130OSM    C6F14033   4.924   2.917   6.931  0.3628  0.4469  0.2149
  130OSM    H6F14034   5.026   2.948   6.898 -0.8754  2.0052 -2.4528
  130OSM    H6G14035   4.910   2.813   6.894  1.4396  0.3749 -0.0257
  130OSM    C7F14036   4.901   2.915   7.082  0.7160  0.5780  0.6508
  130OSM    H7F14037   4.899   3.020   7.117  1.2573  1.0663 -0.7281
  130OSM    H7G14038   4.985   2.863   7.134 -0.7043 -0.3802  2.0970
  130OSM    C8F14039   4.763   2.848   7.112  0.3846 -0.1873  0.1148
  130OSM    H8F14040   4.679   2.918   7.090  1.0353  0.7873  0.6202
  130OSM    H8G14041   4.759   2.847   7.223 -1.1217  1.1713  0.1165
  130OSM    C9F14042   4.736   2.717   7.050 -0.6933  0.5765 -0.4042
  130OSM    H9F14043   4.691   2.722   6.949  0.5663 -0.7812 -1.0683
  130OSM   C10F14044   4.756   2.600   7.107  0.1672 -0.5508 -0.5867
  130OSM   H10F14045   4.710   2.508   7.068  0.5564 -0.6573 -0.8017
  130OSM   C11F14046   4.818   2.589   7.240 -0.2295 -0.4945 -1.0286
  130OSM   H11F14047   4.895   2.668   7.249  1.8202 -2.5239  0.0574
  130OSM   H11G14048   4.883   2.500   7.250  1.4741  0.8790  0.8240
  130OSM   C12F14049   4.715   2.614   7.352 -0.4234 -0.4683 -0.0079
  130OSM   H12F14050   4.658   2.520   7.366  0.3490 -0.9141  0.2195
  130OSM   H12G14051   4.647   2.701   7.343 -0.3097 -0.5827 -2.7093
  130OSM   C13F14052   4.795   2.637   7.486 -0.6019  0.3270  0.5087
  130OSM   H13F14053   4.898   2.597   7.473 -0.9625  0.4076 -4.2008
  130OSM   H13G14054   4.743   2.581   7.567  0.8545 -1.6211  0.1717
  130OSM   C14F14055   4.812   2.780   7.529 -0.6823 -0.9777  0.5736
  130OSM   H14F14056   4.724   2.846   7.517  0.7755  0.7815 -1.2352
  130OSM   H14G14057   4.881   2.823   7.454  0.4836  1.0936  2.6910
  130OSM   C15F14058   4.885   2.814   7.665 -0.5343  0.0876 -0.1362
  130OSM   H15F14059   4.919   2.920   7.659 -0.1369  0.1358  2.0667
  130OSM   H15G14060   4.970   2.744   7.683 -0.9947 -0.3100  0.5449
  130OSM   C16F14061   4.798   2.829   7.783  0.0751 -0.8886 -0.6611
  130OSM   H16F14062   4.759   2.730   7.814 -0.5804 -0.5489 -0.3742
  130OSM   H16G14063   4.706   2.890   7.767 -0.4083 -1.2513  0.5799
  130OSM   C17F14064   4.873   2.904   7.898 -0.0363  0.7038  0.0988
  130OSM   H17F14065   4.928   2.993   7.862  0.6501  0.6921  1.0693
  130OSM   H17G14066   4.953   2.838   7.938 -1.2876 -1.4581 -0.7526
  130OSM   C18F14067   4.771   2.944   8.007 -0.0287  0.6844 -0.1944
  130OSM   H18F14068   4.816   3.013   8.081 -1.7809  0.9442  0.7010
  130OSM   H18G14069   4.743   2.846   8.051 -0.1282  1.2540  1.0390
  130OSM   H18H14070   4.678   2.983   7.960 -1.5013 -0.7283  1.4138
  131OSM      N14071   0.183   5.883   5.859  0.0396  0.1022 -0.5427
  131OSM    C1514072   0.155   5.825   5.728  0.2454  0.0515  0.0354
  131OSM   H15A14073   0.189   5.723   5.725 -3.6372 -1.4380  0.9226
  131OSM   H15B14074   0.193   5.885   5.646  0.0152 -1.5911 -1.3382
  131OSM   H15C14075   0.048   5.816   5.715 -0.0950  3.0339  0.0610
  131OSM    C1414076   0.317   5.945   5.857  0.2872  0.1798 -0.6885
  131OSM   H14A14077   0.353   5.977   5.954 -0.7483 -1.9151  0.4261
  131OSM   H14B14078   0.310   6.040   5.804  0.0787 -0.3665 -1.6661
  131OSM   H14C14079   0.401   5.891   5.815  1.5016 -1.0697  2.9759
  131OSM    C1314080   0.088   5.997   5.898 -0.3259  0.4093  0.0651
  131OSM   H13A14081   0.089   6.072   5.821 -1.5422  1.0583  0.6541
  131OSM   H13B14082   0.121   6.043   5.990  1.4669 -1.3400  0.3711
  131OSM   H13C14083  -0.013   5.961   5.909 -0.2870  0.8539  2.3367
  131OSM    C1214084   0.165   5.774   5.968  0.3321  0.5481 -0.3483
  131OSM   H12A14085   0.215   5.813   6.055  2.6635  1.1298 -1.8785
  131OSM   H12B14086   0.213   5.681   5.942  1.1686  1.3555 -1.7859
  131OSM    C1114087   0.020   5.718   5.992 -0.2016 -0.8271  0.5506
  131OSM   H11A14088   0.021   5.622   6.049 -1.5735 -1.9227 -1.1437
  131OSM   H11B14089  -0.032   5.689   5.898  0.1466 -0.2426  0.1747
  131OSM      P14090  -0.032   5.840   6.219 -0.4382 -0.0713  0.2533
  131OSM    O1314091   0.108   5.888   6.233 -0.0593 -0.0801  0.0113
  131OSM    O1414092  -0.137   5.925   6.272  0.7084 -0.3736 -0.1741
  131OSM    O1114093  -0.044   5.699   6.281  0.0976 -0.6599 -0.1526
  131OSM    O1214094  -0.059   5.814   6.065  0.1242  0.6327  0.2482
  131OSM    C1S14095   0.047   5.647   6.375  0.5603 -0.0383 -0.6116
  131OSM    H1S14096   0.146   5.698   6.367  0.1652  0.5570 -1.9971
  131OSM    H1T14097   0.076   5.544   6.347 -1.9579 -0.6394 -1.1816
  131OSM     NF14098   0.074   5.602   6.607 -0.1482  0.5091 -0.8508
  131OSM    HNF14099   0.082   5.503   6.617  0.8774  0.4914 -1.6164
  131OSM    C2S14100  -0.024   5.642   6.509  0.3697  0.0881  0.0739
  131OSM    H2S14101  -0.055   5.742   6.545  0.0076 -0.2966  0.8421
  131OSM    C3S14102  -0.156   5.563   6.497  0.0009 -0.0014  0.2671
  131OSM    H3S14103  -0.126   5.459   6.474  1.2624  0.7479 -1.7588
  131OSM     O314104  -0.245   5.601   6.390 -0.4057  0.1258 -0.0163
  131OSM    HO314105  -0.175   5.640   6.336 -0.2710 -0.4977 -0.2959
  131OSM    C4S14106  -0.241   5.567   6.622 -0.0228 -0.2246  0.7819
  131OSM    H4S14107  -0.253   5.667   6.667 -1.3683 -0.1680  0.3316
  131OSM    C5S14108  -0.291   5.458   6.687  0.4820  0.0616 -0.3800
  131OSM    H5S14109  -0.284   5.353   6.655  0.6136 -0.3436  0.9135
  131OSM    C6S14110  -0.374   5.482   6.805 -0.1295 -0.0845  0.3621
  131OSM    H6S14111  -0.463   5.417   6.792  0.6584 -1.2640  0.6608
  131OSM    H6T14112  -0.416   5.584   6.804 -1.1947 -0.5109  0.1608
  131OSM    C7S14113  -0.286   5.463   6.930  0.1307  0.5694  0.0611
  131OSM    H7S14114  -0.226   5.370   6.930 -0.8068 -0.0547  0.0400
  131OSM    H7T14115  -0.361   5.437   7.009 -1.0453  1.1081 -0.8421
  131OSM    C8S14116  -0.192   5.579   6.966 -0.0061 -0.8802 -0.1245
  131OSM    H8S14117  -0.251   5.665   7.006  0.0477 -0.0020 -1.8329
  131OSM    H8T14118  -0.127   5.615   6.883 -1.5239  2.7813  0.1026
  131OSM    C9S14119  -0.101   5.547   7.080 -0.2587 -0.1323 -0.6341
  131OSM    H9S14120  -0.034   5.633   7.100 -0.7657  0.2704 -0.6475
  131OSM    H9T14121  -0.035   5.462   7.050  0.7833  0.6738 -0.6858
  131OSM   C10S14122  -0.173   5.524   7.213  0.3244 -0.2116  0.2289
  131OSM   H10S14123  -0.247   5.441   7.203  1.1398 -0.8938 -0.2566
  131OSM   H10T14124  -0.236   5.609   7.247 -1.5311 -1.1831 -0.6534
  131OSM   C11S14125  -0.067   5.491   7.327 -0.2448 -0.8130 -0.2470
  131OSM   H11S14126   0.013   5.420   7.299  1.3008 -0.2145  2.3215
  131OSM   H11T14127  -0.128   5.454   7.413 -0.0688  0.3217  0.3794
  131OSM   C12S14128  -0.000   5.620   7.387  0.4647 -0.4379  0.4475
  131OSM   H12S14129  -0.091   5.681   7.408  0.5662 -0.3388  0.6034
  131OSM   H12T14130   0.061   5.671   7.310 -1.3195  1.3034  0.1156
  131OSM   C13S14131   0.094   5.608   7.506  0.3015  0.1294 -0.9517
  131OSM   H13S14132   0.138   5.707   7.533 -2.2179  1.2212 -0.5369
  131OSM   H13T14133   0.178   5.540   7.484 -0.5610 -1.9299  1.6707
  131OSM   C14S14134   0.021   5.552   7.630 -0.4675 -0.4781  0.1606
  131OSM   H14S14135  -0.020   5.453   7.603 -0.3056 -0.5745  0.2637
  131OSM   H14T14136  -0.071   5.607   7.660 -0.5585  0.4308 -1.6457
  131OSM   C15S14137   0.118   5.556   7.749 -0.3286 -0.1809 -0.2257
  131OSM   H15S14138   0.160   5.658   7.747  2.6513 -1.3164 -2.1054
  131OSM   H15T14139   0.212   5.497   7.745  1.5208  2.5041  1.2332
  131OSM   C16S14140   0.064   5.530   7.895  0.8408  0.8615  0.2602
  131OSM   H16S14141   0.047   5.421   7.907  0.2705  1.0660  1.4395
  131OSM   H16T14142  -0.033   5.576   7.923  0.5053  0.0582  0.4231
  131OSM   C17S14143   0.168   5.582   7.996  0.0104  0.1546 -0.0148
  131OSM   H17S14144   0.120   5.572   8.096  0.1290 -2.9759 -0.1592
  131OSM   H17T14145   0.180   5.691   7.978  1.1731  0.4107  1.9492
  131OSM   C18S14146   0.308   5.512   7.996  0.3276 -0.0812  0.4815
  131OSM   H18S14147   0.374   5.565   8.067  2.3768 -0.2195 -1.2053
  131OSM   H18T14148   0.354   5.519   7.895 -1.8490 -1.6980 -0.7310
  131OSM   H18U14149   0.287   5.406   8.023 -2.6381 -0.2784 -1.9485
  131OSM    C1F14150   0.148   5.683   6.678 -0.2797  0.8405 -0.1162
  131OSM     OF14151   0.157   5.801   6.651  0.8923  0.1364 -0.7584
  131OSM    C2F14152   0.217   5.623   6.799 -0.0181 -0.1802 -0.1613
  131OSM    H2F14153   0.294   5.555   6.759 -1.5105 -0.2249 -3.2092
  131OSM    H2G14154   0.144   5.576   6.869 -1.3648  0.8950 -0.8010
  131OSM    C3F14155   0.290   5.739   6.872  0.1134 -0.0617 -0.6737
  131OSM    H3F14156   0.214   5.809   6.912  0.0250 -0.7341  0.3768
  131OSM    H3G14157   0.356   5.794   6.801  1.5037 -2.5642 -1.4829
  131OSM    C4F14158   0.388   5.697   6.985  0.0230 -0.5033 -0.6301
  131OSM    H4F14159   0.443   5.782   7.030 -0.0874 -0.5083 -0.4822
  131OSM    H4G14160   0.472   5.634   6.949  2.2424  0.6575  2.1252
  131OSM    C5F14161   0.321   5.629   7.106  0.3605  0.6574 -0.1581
  131OSM    H5F14162   0.264   5.537   7.081  0.5547  0.4546  0.1451
  131OSM    H5G14163   0.244   5.698   7.147  0.3453 -0.9101  2.7347
  131OSM    C6F14164   0.414   5.597   7.227 -0.6143  0.6030  0.3954
  131OSM    H6F14165   0.479   5.512   7.195 -0.6872  0.4224  0.7254
  131OSM    H6G14166   0.356   5.555   7.312 -0.5457 -3.2811 -1.2640
  131OSM    C7F14167   0.501   5.715   7.268  0.1946 -0.4297 -0.3045
  131OSM    H7F14168   0.444   5.805   7.235  0.6419 -0.9735 -2.8027
  131OSM    H7G14169   0.588   5.712   7.199 -0.7980  0.8602 -1.6694
  131OSM    C8F14170   0.563   5.711   7.412 -0.0111  0.1723 -0.7498
  131OSM    H8F14171   0.628   5.801   7.422 -2.6870  2.2306 -0.6165
  131OSM    H8G14172   0.635   5.626   7.410 -0.7846 -0.6557  1.9058
  131OSM    C9F14173   0.471   5.707   7.535 -0.5510 -0.3311 -0.5371
  131OSM    H9F14174   0.397   5.787   7.547  0.5101  1.0205 -2.3603
  131OSM   C10F14175   0.477   5.611   7.630  0.0215 -0.3327  0.2244
  131OSM   H10F14176   0.417   5.630   7.721 -0.0575 -2.1613  0.5906
  131OSM   C11F14177   0.570   5.492   7.626 -0.9279 -0.2214 -0.0707
  131OSM   H11F14178   0.670   5.532   7.601 -0.6536 -1.8220 -1.7414
  131OSM   H11G14179   0.537   5.425   7.543 -2.1899 -1.0586  1.0626
  131OSM   C12F14180   0.575   5.409   7.757  0.3776  0.2409 -0.0613
  131OSM   H12F14181   0.624   5.315   7.725 -2.3839 -1.1109 -0.6962
  131OSM   H12G14182   0.473   5.379   7.792 -0.1973  1.5906 -0.5185
  131OSM   C13F14183   0.652   5.474   7.867 -0.1172 -0.5932  0.2807
  131OSM   H13F14184   0.604   5.569   7.897  0.1867 -0.0987 -0.7654
  131OSM   H13G14185   0.753   5.500   7.828  0.3230 -0.0659  1.6911
  131OSM   C14F14186   0.698   5.385   7.978  0.2936  0.5486 -0.5555
  131OSM   H14F14187   0.772   5.440   8.040 -0.1033  0.0897  0.3428
  131OSM   H14G14188   0.755   5.298   7.940  0.3898  0.4690 -0.2357
  131OSM   C15F14189   0.581   5.316   8.057 -0.1044 -0.5475 -0.5778
  131OSM   H15F14190   0.504   5.265   7.996 -0.0576  0.3980 -1.4542
  131OSM   H15G14191   0.534   5.403   8.108  1.4821 -0.8895  1.5959
  131OSM   C16F14192   0.631   5.216   8.162 -0.2275 -0.3609  0.4356
  131OSM   H16F14193   0.725   5.255   8.204  1.3513 -1.9631 -1.4205
  131OSM   H16G14194   0.645   5.118   8.111  1.2970  0.4517 -0.7583
  131OSM   C17F14195   0.520   5.186   8.265  0.9553 -0.4159  0.0860
  131OSM   H17F14196   0.431   5.141   8.216  0.2870  0.6238  0.3212
  131OSM   H17G14197   0.502   5.278   8.324  0.2707 -2.0800  2.6255
  131OSM   C18F14198   0.568   5.082   8.359 -0.0615 -0.3106  0.0564
  131OSM   H18F14199   0.576   4.991   8.296 -3.9603 -0.0175 -1.1553
  131OSM   H18G14200   0.492   5.073   8.440 -1.6060 -0.6611 -1.3673
  131OSM   H18H14201   0.665   5.117   8.401 -0.5050  0.3943  0.5118
  132OSM      N14202   3.577   2.633   6.226  0.1620  0.1600  0.3012
  132OSM    C1514203   3.604   2.500   6.165  0.5345  0.2064  1.1996
  132OSM   H15A14204   3.557   2.487   6.068  2.5222  1.4028 -0.0109
  132OSM   H15B14205   3.561   2.416   6.216 -1.7156  0.1489 -0.6443
  132OSM   H15C14206   3.711   2.490   6.152  0.6334  3.4024 -1.9151
  132OSM    C1414207   3.649   2.643   6.358 -0.0559 -0.8004 -0.0623
  132OSM   H14A14208   3.751   2.608   6.353  1.4668  3.1775 -0.8580
  132OSM   H14B14209   3.594   2.603   6.441  0.3718 -0.8208  0.2187
  132OSM   H14C14210   3.657   2.746   6.390 -0.2835 -0.1033 -2.0832
  132OSM    C1314211   3.642   2.729   6.132 -0.2850 -0.1956  0.1369
  132OSM   H13A14212   3.628   2.834   6.150 -0.5274 -0.1631 -0.2232
  132OSM   H13B14213   3.611   2.711   6.030 -2.2605  0.5966  0.5620
  132OSM   H13C14214   3.747   2.704   6.126 -0.0621  0.6264  0.4826
  132OSM    C1214215   3.432   2.667   6.224 -0.7837 -0.0362 -0.0960
  132OSM   H12A14216   3.389   2.665   6.125 -1.7355  1.2823  0.2580
  132OSM   H12B14217   3.417   2.769   6.258  0.5819  0.0192  0.4079
  132OSM    C1114218   3.346   2.564   6.309 -0.6422 -0.5282  0.1546
  132OSM   H11A14219   3.248   2.617   6.318 -0.9246 -1.0963  0.4866
  132OSM   H11B14220   3.398   2.550   6.406  3.7836 -0.6319 -1.9980
  132OSM      P14221   3.207   2.430   6.137  0.1684  0.0472 -0.1625
  132OSM    O1314222   3.192   2.559   6.072 -0.4426 -0.7992  0.5829
  132OSM    O1414223   3.217   2.310   6.055  0.5169 -0.1359  0.0291
  132OSM    O1114224   3.096   2.411   6.244  0.5536  0.2801  0.3631
  132OSM    O1214225   3.335   2.437   6.229 -0.9858 -0.4154  0.1748
  132OSM    C1S14226   3.109   2.311   6.349  0.2082  0.5774  0.0547
  132OSM    H1S14227   3.213   2.272   6.357 -0.8347 -2.6233 -0.3646
  132OSM    H1T14228   3.053   2.219   6.323  1.9958 -0.5389 -0.0296
  132OSM     NF14229   3.099   2.284   6.583 -0.4432 -0.0408 -0.1043
  132OSM    HNF14230   3.044   2.213   6.627 -0.2683  0.1777  0.4744
  132OSM    C2S14231   3.053   2.370   6.475  0.3576 -0.1139 -0.9794
  132OSM    H2S14232   3.105   2.466   6.491 -0.8350  0.6248 -1.4319
  132OSM    C3S14233   2.901   2.395   6.464 -0.0659 -0.0178  0.8328
  132OSM    H3S14234   2.844   2.302   6.440 -0.5386  0.6433 -0.7749
  132OSM     O314235   2.858   2.470   6.346  0.2269 -0.7622  0.0665
  132OSM    HO314236   2.929   2.472   6.281 -1.6282 -1.5608 -2.1318
  132OSM    C4S14237   2.848   2.459   6.586 -0.3221 -0.4407  0.1805
  132OSM    H4S14238   2.852   2.393   6.674 -0.4227 -0.1687  0.3916
  132OSM    C5S14239   2.784   2.576   6.618  0.1908  0.0745 -0.1267
  132OSM    H5S14240   2.766   2.644   6.534  1.6753  0.2481 -0.3255
  132OSM    C6S14241   2.735   2.612   6.756 -0.5063 -0.0319  0.8982
  132OSM    H6S14242   2.625   2.629   6.753 -0.1428  2.7321  1.0778
  132OSM    H6T14243   2.782   2.709   6.782 -0.0223 -0.2799  0.9484
  132OSM    C7S14244   2.758   2.513   6.869  0.6764 -0.0628  0.6177
  132OSM    H7S14245   2.863   2.503   6.902  1.2893 -0.4483 -1.3283
  132OSM    H7T14246   2.726   2.411   6.841  0.0493 -0.0738  1.3363
  132OSM    C8S14247   2.680   2.549   6.994  0.0752  0.5344 -0.5254
  132OSM    H8S14248   2.571   2.551   6.978  0.0757 -1.5701 -1.0503
  132OSM    H8T14249   2.709   2.653   7.021  0.0978  0.3741  0.0874
  132OSM    C9S14250   2.709   2.448   7.109  0.2483 -0.4111  0.0469
  132OSM    H9S14251   2.659   2.485   7.201  0.0348 -0.4677 -0.0473
  132OSM    H9T14252   2.819   2.455   7.126  0.3331  2.5391 -1.0778
  132OSM   C10S14253   2.670   2.299   7.082 -0.1465 -0.4817  0.1021
  132OSM   H10S14254   2.711   2.251   6.991 -2.3819 -1.6944 -0.3380
  132OSM   H10T14255   2.560   2.308   7.067 -0.4505  0.9605  2.5827
  132OSM   C11S14256   2.689   2.200   7.199  0.6369  0.2780  0.5181
  132OSM   H11S14257   2.798   2.204   7.221  1.3995  0.0623 -2.8047
  132OSM   H11T14258   2.653   2.098   7.175  2.4895 -0.2056 -0.3647
  132OSM   C12S14259   2.617   2.247   7.333 -0.1305  0.0876  0.3447
  132OSM   H12S14260   2.510   2.266   7.308 -0.1250 -0.2970  0.0105
  132OSM   H12T14261   2.661   2.341   7.372  2.1386 -0.3559 -0.9704
  132OSM   C13S14262   2.625   2.145   7.446  0.4230 -0.4297 -0.0470
  132OSM   H13S14263   2.711   2.076   7.436  0.2029 -0.6091 -0.7443
  132OSM   H13T14264   2.542   2.073   7.435  0.2658  0.0803 -2.6670
  132OSM   C14S14265   2.619   2.202   7.586  0.3778 -0.2155 -0.0051
  132OSM   H14S14266   2.528   2.266   7.598  1.2423  0.7513  1.9216
  132OSM   H14T14267   2.704   2.265   7.618 -1.8180  1.3323  3.4394
  132OSM   C15S14268   2.604   2.090   7.688  0.3993 -0.1678 -0.1635
  132OSM   H15S14269   2.679   2.011   7.670  0.3853 -1.2875  3.9251
  132OSM   H15T14270   2.504   2.047   7.669  0.0055  0.0777  1.2291
  132OSM   C16S14271   2.608   2.148   7.833  0.1401  0.2632 -0.1248
  132OSM   H16S14272   2.572   2.253   7.829  0.2404  0.3845  1.4773
  132OSM   H16T14273   2.715   2.158   7.861  0.2631 -0.4847 -0.3185
  132OSM   C17S14274   2.538   2.059   7.937 -0.2640 -0.2231 -0.2275
  132OSM   H17S14275   2.573   2.086   8.039  0.9660 -0.6177 -0.5270
  132OSM   H17T14276   2.565   1.953   7.922 -0.0300 -0.0453 -1.0895
  132OSM   C18S14277   2.382   2.072   7.932 -0.2144  0.1130 -0.9055
  132OSM   H18S14278   2.332   1.995   7.995  0.4036 -0.1952 -0.7775
  132OSM   H18T14279   2.330   2.066   7.834 -0.4502  0.0822 -0.7797
  132OSM   H18U14280   2.350   2.165   7.983 -3.5465 -1.8034  0.8484
  132OSM    C1F14281   3.218   2.293   6.642 -0.4239 -0.3530  0.4577
  132OSM     OF14282   3.311   2.355   6.587 -0.2713 -0.3542 -0.3709
  132OSM    C2F14283   3.224   2.222   6.780 -0.3266 -0.5248  0.8485
  132OSM    H2F14284   3.309   2.150   6.783 -1.1520 -1.8364 -2.5773
  132OSM    H2G14285   3.132   2.163   6.797  0.5057 -2.0281  0.3198
  132OSM    C3F14286   3.241   2.341   6.878  0.0176  0.0017 -0.0878
  132OSM    H3F14287   3.152   2.406   6.865 -0.3963 -0.8808 -2.1280
  132OSM    H3G14288   3.331   2.404   6.860  0.6785 -0.2995  1.8871
  132OSM    C4F14289   3.270   2.309   7.020  0.2489 -0.6228  0.1715
  132OSM    H4F14290   3.309   2.394   7.080  2.2933 -0.1160 -1.7717
  132OSM    H4G14291   3.348   2.230   7.024 -0.4313 -1.2887  0.7528
  132OSM    C5F14292   3.149   2.252   7.085 -0.3084  0.7153 -0.0174
  132OSM    H5F14293   3.100   2.177   7.019  1.3911  0.8246 -1.5087
  132OSM    H5G14294   3.073   2.330   7.103 -1.3285  0.4944 -2.8388
  132OSM    C6F14295   3.185   2.168   7.212  0.3208  0.0896  0.0752
  132OSM    H6F14296   3.235   2.239   7.282 -1.7454  0.7537  0.9536
  132OSM    H6G14297   3.259   2.090   7.182  0.2604 -0.0544  0.2960
  132OSM    C7F14298   3.063   2.124   7.297  0.0689 -0.0090  0.0337
  132OSM    H7F14299   2.994   2.062   7.237  0.6583  1.6604 -2.5522
  132OSM    H7G14300   3.013   2.218   7.329  0.5365  0.8854 -1.6881
  132OSM    C8F14301   3.106   2.045   7.415 -0.2871  0.2765  0.0274
  132OSM    H8F14302   3.194   2.096   7.460 -0.3409 -0.9601  1.6177
  132OSM    H8G14303   3.134   1.942   7.386 -1.3248 -0.0327  0.0651
  132OSM    C9F14304   3.003   2.033   7.521  0.3326 -0.8482 -0.0374
  132OSM    H9F14305   2.916   2.096   7.496 -0.3636 -2.1486 -1.0205
  132OSM   C10F14306   2.997   1.951   7.625  0.4652  0.2437  0.2221
  132OSM   H10F14307   2.912   1.961   7.695  1.2430 -0.1567  1.2365
  132OSM   C11F14308   3.102   1.855   7.673  0.7974  0.2701  0.3245
  132OSM   H11F14309   3.195   1.875   7.616 -0.0506 -0.2931 -1.3240
  132OSM   H11G14310   3.076   1.750   7.647 -0.7398  1.2004 -2.2995
  132OSM   C12F14311   3.152   1.845   7.823  0.6107 -0.6386 -0.3491
  132OSM   H12F14312   3.205   1.748   7.833  0.0864 -0.7710  1.3573
  132OSM   H12G14313   3.059   1.842   7.882 -0.2596  0.6409 -1.5826
  132OSM   C13F14314   3.230   1.966   7.871  1.2499  0.2039 -0.1787
  132OSM   H13F14315   3.151   2.043   7.876  0.8455 -0.1586 -0.8424
  132OSM   H13G14316   3.291   2.001   7.785 -0.0450 -1.6560 -1.9778
  132OSM   C14F14317   3.297   1.942   8.003 -0.5743  0.2215 -0.5118
  132OSM   H14F14318   3.364   2.026   8.032 -0.9545 -0.4080  2.5693
  132OSM   H14G14319   3.361   1.852   7.998  0.7275  1.0391  0.5270
  132OSM   C15F14320   3.200   1.923   8.129 -0.3665 -0.5417 -0.6811
  132OSM   H15F14321   3.150   1.827   8.107 -2.0305  0.4960 -1.6463
  132OSM   H15G14322   3.132   2.011   8.129 -0.4469 -0.5809 -2.2547
  132OSM   C16F14323   3.274   1.931   8.265 -0.4500 -0.7684  0.5173
  132OSM   H16F14324   3.332   2.025   8.271  0.4761 -1.2850 -0.0871
  132OSM   H16G14325   3.343   1.846   8.287 -1.6108 -1.4195  1.7422
  132OSM   C17F14326   3.168   1.909   8.372 -0.3111 -0.0618  0.0327
  132OSM   H17F14327   3.101   1.824   8.345 -1.0715  0.9041 -1.2525
  132OSM   H17G14328   3.110   2.004   8.369 -3.9259 -2.0733 -0.1426
  132OSM   C18F14329   3.221   1.885   8.513 -0.1935  0.4295  0.0601
  132OSM   H18F14330   3.269   1.974   8.559 -2.6382  0.9989  1.7277
  132OSM   H18G14331   3.296   1.803   8.510  0.8077  1.3535 -1.7066
  132OSM   H18H14332   3.138   1.871   8.585 -1.2217 -1.0620 -1.3617
  133OSM      N14333   1.838   0.883   6.051 -0.5812  0.4377  0.2709
  133OSM    C1514334   1.864   0.786   5.943 -0.2051  0.4144  0.0276
  133OSM   H15A14335   1.779   0.742   5.893 -1.1598  3.4501 -1.2629
  133OSM   H15B14336   1.931   0.713   5.986  1.3618  0.6881 -1.8483
  133OSM   H15C14337   1.930   0.830   5.870  1.3347  1.5451  1.9951
  133OSM    C1414338   1.745   0.989   6.004 -0.4309 -0.0537 -0.0245
  133OSM   H14A14339   1.791   1.036   5.918  1.4327  0.5599  1.2494
  133OSM   H14B14340   1.730   1.067   6.077  0.6141  0.7773 -0.6560
  133OSM   H14C14341   1.653   0.940   5.974  0.3697 -3.1055  2.0315
  133OSM    C1314342   1.783   0.800   6.161  0.2916 -0.2319 -0.2616
  133OSM   H13A14343   1.760   0.864   6.245  0.8205 -0.5153  0.1060
  133OSM   H13B14344   1.857   0.733   6.201  0.8538  1.2639  1.3894
  133OSM   H13C14345   1.697   0.745   6.127 -0.3464 -0.2588  1.3124
  133OSM    C1214346   1.967   0.954   6.092  0.9122  0.0976  0.0434
  133OSM   H12A14347   1.941   1.036   6.157 -2.8166  0.3111 -1.4687
  133OSM   H12B14348   2.006   1.001   6.003 -2.4427  0.6056 -1.3078
  133OSM    C1114349   2.083   0.872   6.151  0.4094  0.6364  0.2557
  133OSM   H11A14350   2.041   0.817   6.239 -1.1004  0.8976 -0.2714
  133OSM   H11B14351   2.163   0.944   6.179 -2.2011  3.6709  0.5065
  133OSM      P14352   2.217   0.647   6.107  0.4235  0.0304 -0.0642
  133OSM    O1314353   2.186   0.537   6.018 -0.7220  0.2037 -0.0510
  133OSM    O1414354   2.362   0.687   6.129  0.4205  0.0241  0.4594
  133OSM    O1114355   2.142   0.604   6.241  0.0903 -0.4962 -0.5115
  133OSM    O1214356   2.142   0.782   6.054 -0.2319 -0.6259  0.1389
  133OSM    C1S14357   2.215   0.566   6.362 -0.4889  0.4092  0.4967
  133OSM    H1S14358   2.325   0.568   6.351 -0.5731  0.4848 -0.4200
  133OSM    H1T14359   2.188   0.460   6.382  2.3471 -0.5614 -0.2366
  133OSM     NF14360   2.266   0.613   6.600 -0.3369  0.2833  0.1412
  133OSM    HNF14361   2.235   0.543   6.665 -1.5761  0.9412  0.2894
  133OSM    C2S14362   2.173   0.639   6.494  0.8571 -0.0127  0.6424
  133OSM    H2S14363   2.182   0.745   6.461 -1.1116  0.6567  2.0522
  133OSM    C3S14364   2.029   0.604   6.535 -0.3214  0.0571 -0.3178
  133OSM    H3S14365   2.032   0.493   6.536 -0.1289  0.0605  0.4237
  133OSM     O314366   1.931   0.640   6.445 -0.0954  0.3020 -0.4513
  133OSM    HO314367   1.987   0.659   6.370  0.1739  0.9062 -0.1049
  133OSM    C4S14368   1.993   0.665   6.666 -0.4087  0.6150  0.3548
  133OSM    H4S14369   1.962   0.769   6.650  1.4574  1.3273  1.0085
  133OSM    C5S14370   1.977   0.607   6.786  0.6705  0.1529 -0.1254
  133OSM    H5S14371   1.996   0.499   6.791  0.4214  0.1230  0.1769
  133OSM    C6S14372   1.929   0.673   6.916  0.4071 -0.0424  0.0158
  133OSM    H6S14373   1.825   0.641   6.938  1.1486 -0.6127  3.2362
  133OSM    H6T14374   1.913   0.781   6.897  0.1134  0.2183  1.6583
  133OSM    C7S14375   2.000   0.633   7.044 -0.1277 -0.6012 -1.1339
  133OSM    H7S14376   2.097   0.686   7.057 -0.6214  0.0065  0.2275
  133OSM    H7T14377   2.028   0.526   7.032  1.5598 -0.0770 -2.1816
  133OSM    C8S14378   1.920   0.666   7.168  0.1954  0.6924  0.0272
  133OSM    H8S14379   1.827   0.608   7.149 -0.3424  1.8634 -1.0755
  133OSM    H8T14380   1.892   0.773   7.181  1.7658  1.3130 -1.3944
  133OSM    C9S14381   1.991   0.623   7.297  0.3410 -0.0138  0.2564
  133OSM    H9S14382   2.077   0.693   7.304  0.3110  0.0307  0.1807
  133OSM    H9T14383   2.036   0.521   7.297  0.3413 -0.0185 -0.8654
  133OSM   C10S14384   1.897   0.632   7.418  0.3614 -0.0184 -0.8030
  133OSM   H10S14385   1.812   0.562   7.403 -0.6613  0.7293  1.1990
  133OSM   H10T14386   1.869   0.739   7.433 -1.2260 -0.6616  1.2388
  133OSM   C11S14387   1.962   0.589   7.553  0.1910 -0.5734 -0.5232
  133OSM   H11S14388   1.926   0.649   7.639  0.4739 -0.0812 -0.7498
  133OSM   H11T14389   2.073   0.597   7.553  0.2532 -1.1028  0.8721
  133OSM   C12S14390   1.934   0.440   7.569 -1.1215  0.6539  0.9419
  133OSM   H12S14391   1.985   0.391   7.483  2.7383  0.7813  2.9301
  133OSM   H12T14392   1.828   0.409   7.562 -1.2903  1.1810  1.0828
  133OSM   C13S14393   1.995   0.382   7.698 -0.4721  0.6665  0.0348
  133OSM   H13S14394   2.106   0.387   7.703 -0.4217  0.6942 -0.9944
  133OSM   H13T14395   1.975   0.273   7.695 -0.3302  0.6175  0.6957
  133OSM   C14S14396   1.946   0.433   7.838  0.5902  0.4613  0.0435
  133OSM   H14S14397   1.836   0.418   7.839  0.6516 -0.7499 -2.6348
  133OSM   H14T14398   1.964   0.542   7.848  0.5261  0.3874  1.1383
  133OSM   C15S14399   2.007   0.362   7.963 -0.0757  0.3988 -0.2758
  133OSM   H15S14400   2.115   0.343   7.943 -0.1683 -0.8186  0.2632
  133OSM   H15T14401   1.954   0.265   7.973 -1.7731  1.1202 -1.8593
  133OSM   C16S14402   2.007   0.443   8.090 -0.3677 -0.7660  0.2765
  133OSM   H16S14403   1.899   0.444   8.119 -0.1376  0.6937  1.1918
  133OSM   H16T14404   2.033   0.550   8.081  0.9358 -1.0142  0.8393
  133OSM   C17S14405   2.079   0.384   8.216 -0.1809  0.2296  0.2094
  133OSM   H17S14406   2.046   0.449   8.300  0.5126  2.1210 -0.9281
  133OSM   H17T14407   2.189   0.375   8.207 -0.4199 -1.5915 -1.3296
  133OSM   C18S14408   2.038   0.235   8.254 -0.3063  0.0917 -0.1654
  133OSM   H18S14409   1.931   0.224   8.281 -0.0854  0.0946  0.7367
  133OSM   H18T14410   2.094   0.209   8.346  1.0595 -0.6900 -1.1812
  133OSM   H18U14411   2.051   0.168   8.166 -0.0224  1.3621 -1.1413
  133OSM    C1F14412   2.397   0.641   6.605  0.6108  0.2334  0.8224
  133OSM     OF14413   2.442   0.706   6.510 -0.6875  0.1438  0.5644
  133OSM    C2F14414   2.483   0.593   6.720  0.5621  0.3521 -0.0141
  133OSM    H2F14415   2.591   0.600   6.697  0.7458  1.0794  1.0152
  133OSM    H2G14416   2.449   0.490   6.743 -0.8066  0.4756 -1.3231
  133OSM    C3F14417   2.452   0.682   6.846 -0.4703  0.0962 -0.1266
  133OSM    H3F14418   2.344   0.704   6.838 -0.4912 -0.4105 -1.5444
  133OSM    H3G14419   2.503   0.781   6.842 -1.8631  0.8265 -0.1547
  133OSM    C4F14420   2.480   0.616   6.985  0.4704 -0.1159  0.3046
  133OSM    H4F14421   2.590   0.619   6.993  0.4877  0.5332 -0.1058
  133OSM    H4G14422   2.448   0.510   6.975  0.9952 -0.1878 -0.7491
  133OSM    C5F14423   2.414   0.680   7.105  0.7591 -0.6635  0.4329
  133OSM    H5F14424   2.304   0.663   7.104  0.9356 -1.9494 -1.4458
  133OSM    H5G14425   2.438   0.786   7.085  2.1604 -1.2589 -1.3188
  133OSM    C6F14426   2.473   0.627   7.238 -0.6188  0.5763 -0.8106
  133OSM    H6F14427   2.582   0.605   7.229 -0.6288  1.0463 -2.4257
  133OSM    H6G14428   2.427   0.529   7.264  3.3429 -1.3220 -0.1550
  133OSM    C7F14429   2.455   0.729   7.351 -0.8673  0.5174  0.1388
  133OSM    H7F14430   2.352   0.769   7.365 -0.6897  0.5924  1.3760
  133OSM    H7G14431   2.515   0.821   7.333  0.2692  0.4339  2.9165
  133OSM    C8F14432   2.500   0.697   7.499 -0.0556  1.0327  0.2255
  133OSM    H8F14433   2.487   0.783   7.568  0.1858  0.4497  1.0160
  133OSM    H8G14434   2.609   0.677   7.502  0.0337  1.4973  0.1450
  133OSM    C9F14435   2.422   0.573   7.556  0.8084 -0.3456  0.0600
  133OSM    H9F14436   2.363   0.518   7.481 -0.7069 -2.0915  2.4134
  133OSM   C10F14437   2.406   0.542   7.688 -0.4527  0.4482 -0.4548
  133OSM   H10F14438   2.340   0.460   7.720 -0.6981  0.0028 -1.9912
  133OSM   C11F14439   2.472   0.603   7.811 -0.3421  1.2543  0.8244
  133OSM   H11F14440   2.410   0.679   7.864 -0.8776 -0.9014  3.5452
  133OSM   H11G14441   2.570   0.650   7.788 -0.7373  2.0964  0.8334
  133OSM   C12F14442   2.497   0.500   7.919  0.5968 -0.1542  0.5061
  133OSM   H12F14443   2.547   0.405   7.888  1.3296 -0.0820  1.4064
  133OSM   H12G14444   2.401   0.461   7.959  0.6740 -0.3118  0.5394
  133OSM   C13F14445   2.565   0.559   8.042  0.4854  0.2652 -0.1362
  133OSM   H13F14446   2.516   0.656   8.064 -1.4813 -0.1783 -2.1887
  133OSM   H13G14447   2.667   0.592   8.010 -0.0780  1.2658 -0.9572
  133OSM   C14F14448   2.568   0.450   8.150 -0.3649  0.4364 -0.6420
  133OSM   H14F14449   2.628   0.365   8.112 -1.3819 -0.3421 -0.5296
  133OSM   H14G14450   2.466   0.413   8.172 -0.2714  0.3442 -0.3599
  133OSM   C15F14451   2.621   0.504   8.282 -0.3651  0.4991  0.2428
  133OSM   H15F14452   2.556   0.588   8.313 -0.0028 -0.0434  2.6834
  133OSM   H15G14453   2.725   0.543   8.275 -0.0613  0.0939  1.9565
  133OSM   C16F14454   2.606   0.399   8.396  0.2862  0.3999  0.1532
  133OSM   H16F14455   2.498   0.378   8.406  0.6444 -0.7228  2.1064
  133OSM   H16G14456   2.640   0.451   8.488  0.4515 -2.4693  1.8481
  133OSM   C17F14457   2.686   0.271   8.389 -0.6941  0.7957 -0.4774
  133OSM   H17F14458   2.793   0.297   8.384 -0.0330 -1.6817 -0.5154
  133OSM   H17G14459   2.658   0.212   8.299 -1.9360  0.7763 -0.1062
  133OSM   C18F14460   2.664   0.183   8.514 -0.3816  0.2937  0.4553
  133OSM   H18F14461   2.699   0.234   8.606 -0.9009 -1.6234  1.7818
  133OSM   H18G14462   2.723   0.090   8.502  0.0033  0.8159 -2.6085
  133OSM   H18H14463   2.557   0.155   8.519  0.0798 -1.4321  1.3004
  134OSM      N14464   5.030   1.500   6.345  0.8299 -0.1139  0.2820
  134OSM    C1514465   5.122   1.588   6.271 -0.4903  0.1925  0.5523
  134OSM   H15A14466   5.061   1.665   6.225  0.1734  0.3569 -0.0739
  134OSM   H15B14467   5.173   1.535   6.191 -2.1049 -0.6133  0.0282
  134OSM   H15C14468   5.187   1.635   6.343  0.1387  0.6622 -0.2896
  134OSM    C1414469   4.940   1.447   6.230  1.0577 -0.7724 -1.0056
  134OSM   H14A14470   4.980   1.359   6.181  1.9072  0.0304 -1.7788
  134OSM   H14B14471   4.925   1.522   6.154  1.2700  0.1523 -0.1540
  134OSM   H14C14472   4.845   1.423   6.275  1.3244 -1.5924 -0.8575
  134OSM    C1314473   5.099   1.391   6.418  0.0059 -0.1017  0.6674
  134OSM   H13A14474   5.158   1.332   6.349 -1.6328 -0.0350 -0.8508
  134OSM   H13B14475   5.030   1.330   6.475 -0.7539  0.8514  0.7826
  134OSM   H13C14476   5.175   1.431   6.484  0.4723  0.9077 -0.4618
  134OSM    C1214477   4.940   1.581   6.438  0.9718 -0.4513  0.4485
  134OSM   H12A14478   4.993   1.614   6.526  1.4330 -2.6715  1.0678
  134OSM   H12B14479   4.864   1.516   6.479  0.9906 -0.6680  0.1369
  134OSM    C1114480   4.863   1.715   6.380  0.0550 -0.4619  0.4990
  134OSM   H11A14481   4.823   1.764   6.471  1.7923 -0.4820  1.3124
  134OSM   H11B14482   4.781   1.677   6.315  1.0391  0.5008 -1.3952
  134OSM      P14483   5.037   1.903   6.392 -0.0914  0.0880 -0.1082
  134OSM    O1314484   5.131   1.955   6.292  0.4615  0.1004 -0.0057
  134OSM    O1414485   4.942   2.001   6.452 -0.3996 -0.1550  0.0201
  134OSM    O1114486   5.104   1.810   6.499  0.4098 -0.2771 -0.2403
  134OSM    O1214487   4.949   1.803   6.310 -0.4135  0.0462  0.1075
  134OSM    C1S14488   5.235   1.827   6.555 -0.6319  0.8269  0.1586
  134OSM    H1S14489   5.270   1.925   6.517  0.0014  0.3016 -0.6426
  134OSM    H1T14490   5.298   1.739   6.533  1.6054  2.1728  0.8379
  134OSM     NF14491   5.383   1.860   6.746 -0.0046 -0.3183 -0.7574
  134OSM    HNF14492   5.437   1.782   6.778 -0.8865 -0.2751  0.9486
  134OSM    C2S14493   5.242   1.847   6.712 -0.5417  0.1919  0.6917
  134OSM    H2S14494   5.185   1.938   6.738  0.3942  0.4554  1.8918
  134OSM    C3S14495   5.172   1.728   6.774 -0.2529 -0.4663 -0.1589
  134OSM    H3S14496   5.213   1.631   6.738  0.4418 -0.8442  1.5387
  134OSM     O314497   5.034   1.724   6.729 -0.4704 -0.8317 -0.4372
  134OSM    HO314498   5.019   1.789   6.660 -1.4881 -0.9941 -0.3849
  134OSM    C4S14499   5.168   1.742   6.926 -0.1988 -0.9375  0.2858
  134OSM    H4S14500   5.252   1.706   6.987  0.8975  0.7480 -0.1746
  134OSM    C5S14501   5.065   1.810   6.990 -0.6562 -0.0197 -0.1106
  134OSM    H5S14502   4.977   1.846   6.936 -1.8421 -0.6103  1.3404
  134OSM    C6S14503   5.053   1.838   7.137  0.0058 -0.2643  0.8170
  134OSM    H6S14504   4.944   1.820   7.154  0.3217 -1.4275  1.7183
  134OSM    H6T14505   5.085   1.941   7.161  0.3233 -0.0782 -0.3142
  134OSM    C7S14506   5.130   1.745   7.229 -0.2260  0.2607 -0.4353
  134OSM    H7S14507   5.236   1.780   7.227 -0.7972  2.1148  0.3788
  134OSM    H7T14508   5.120   1.636   7.207 -1.7378  0.0012  1.3109
  134OSM    C8S14509   5.092   1.756   7.377 -0.5498 -0.3120  0.1584
  134OSM    H8S14510   4.991   1.713   7.389 -0.4691 -0.9388 -1.1887
  134OSM    H8T14511   5.095   1.859   7.419 -0.4280  0.7120 -2.1820
  134OSM    C9S14512   5.190   1.673   7.470 -0.5457 -0.4436 -0.1978
  134OSM    H9S14513   5.289   1.718   7.450  1.2074 -3.9985 -0.2854
  134OSM    H9T14514   5.195   1.570   7.429  1.0279 -0.8273  0.8681
  134OSM   C10S14515   5.148   1.665   7.621 -0.2205  0.7346  0.3161
  134OSM   H10S14516   5.054   1.609   7.638  0.5109 -1.3610 -1.8410
  134OSM   H10T14517   5.152   1.768   7.663  1.4583  0.4332  1.0058
  134OSM   C11S14518   5.255   1.592   7.687 -0.1373 -0.2818 -0.7800
  134OSM   H11S14519   5.351   1.640   7.659  0.3801 -1.8254 -1.7658
  134OSM   H11T14520   5.246   1.492   7.639 -0.6250 -1.7211  2.0893
  134OSM   C12S14521   5.239   1.598   7.839 -0.1840 -0.0729 -0.5908
  134OSM   H12S14522   5.138   1.555   7.860  0.0022 -1.3029 -2.0056
  134OSM   H12T14523   5.229   1.704   7.871 -2.4076 -0.6589  0.9732
  134OSM   C13S14524   5.348   1.544   7.926 -0.1496  0.1903 -0.5979
  134OSM   H13S14525   5.438   1.607   7.908 -2.0124  3.0860 -0.3837
  134OSM   H13T14526   5.368   1.440   7.892  0.6711  0.2693 -0.3883
  134OSM   C14S14527   5.317   1.545   8.079  0.7876  0.0768  0.2625
  134OSM   H14S14528   5.397   1.485   8.128  2.5260  0.6478 -1.7360
  134OSM   H14T14529   5.225   1.490   8.107  1.3883 -0.4659  1.2233
  134OSM   C15S14530   5.314   1.688   8.141 -0.4553  0.7956  0.1160
  134OSM   H15S14531   5.216   1.739   8.123 -0.3882  1.1967  0.8643
  134OSM   H15T14532   5.404   1.742   8.105  0.1864 -0.2769  0.0733
  134OSM   C16S14533   5.343   1.684   8.291 -0.1456  0.4144 -0.2523
  134OSM   H16S14534   5.359   1.787   8.330  0.6517 -0.1634  1.0094
  134OSM   H16T14535   5.437   1.626   8.306  0.7214  1.6941 -0.4937
  134OSM   C17S14536   5.238   1.615   8.382  0.0773 -0.2185  0.6637
  134OSM   H17S14537   5.225   1.515   8.334  0.4749  0.0668 -0.0540
  134OSM   H17T14538   5.148   1.679   8.373  1.1681  1.0779 -2.6393
  134OSM   C18S14539   5.278   1.591   8.526 -0.1658  0.6129  0.4954
  134OSM   H18S14540   5.373   1.534   8.532  1.0554  2.3602 -1.1183
  134OSM   H18T14541   5.195   1.525   8.562  0.0769 -0.4138 -0.7620
  134OSM   H18U14542   5.288   1.685   8.585 -0.8088 -0.0367  1.6771
  134OSM    C1F14543   5.457   1.974   6.726  0.4650  0.0547 -0.1929
  134OSM     OF14544   5.394   2.074   6.687 -0.3642  0.6637 -0.5538
  134OSM    C2F14545   5.600   1.976   6.758 -0.3712 -0.3226 -1.1515
  134OSM    H2F14546   5.650   1.972   6.659 -0.6879 -0.4787 -1.3085
  134OSM    H2G14547   5.626   1.882   6.810 -0.0602  0.5810  0.3825
  134OSM    C3F14548   5.650   2.097   6.831 -0.7021  0.0049 -0.9175
  134OSM    H3F14549   5.634   2.190   6.773 -2.6823  0.9580  1.0096
  134OSM    H3G14550   5.759   2.081   6.845 -1.0110 -0.6168  1.1819
  134OSM    C4F14551   5.601   2.136   6.970  0.6514  0.0839 -0.2588
  134OSM    H4F14552   5.496   2.171   6.966  0.6551  0.3057  1.0530
  134OSM    H4G14553   5.657   2.214   7.026  0.5489 -0.5374  0.7452
  134OSM    C5F14554   5.600   2.009   7.066  0.0920 -0.0780  0.0221
  134OSM    H5F14555   5.701   1.965   7.076  0.6307  1.2439  0.6200
  134OSM    H5G14556   5.529   1.937   7.020  1.5102 -0.6379 -1.3807
  134OSM    C6F14557   5.548   2.055   7.204 -0.8562 -0.2412  0.1616
  134OSM    H6F14558   5.450   2.105   7.191 -1.7410 -1.6456  1.2050
  134OSM    H6G14559   5.631   2.120   7.239  1.5360 -2.8652 -0.2572
  134OSM    C7F14560   5.516   1.948   7.303  0.1921 -0.0778  0.5931
  134OSM    H7F14561   5.609   1.895   7.335  1.0753  1.0253 -0.0705
  134OSM    H7G14562   5.446   1.877   7.253 -1.4514  2.0964 -0.3272
  134OSM    C8F14563   5.448   2.004   7.424  0.3853 -1.0744 -0.1856
  134OSM    H8F14564   5.407   1.915   7.478  2.3326 -1.4392  0.7633
  134OSM    H8G14565   5.364   2.068   7.391  1.5771  1.0110  0.6687
  134OSM    C9F14566   5.542   2.079   7.515  0.3122 -0.2918 -0.2065
  134OSM    H9F14567   5.614   2.149   7.471 -1.7489  0.7117 -2.1545
  134OSM   C10F14568   5.548   2.060   7.652  1.0974 -0.0772 -0.5366
  134OSM   H10F14569   5.616   2.124   7.710  3.0657 -2.2810 -0.2577
  134OSM   C11F14570   5.480   1.951   7.732 -0.7801  0.1310  0.6853
  134OSM   H11F14571   5.560   1.895   7.784 -0.4180 -1.5255 -1.5135
  134OSM   H11G14572   5.417   1.882   7.672  1.5006  0.1156 -1.8998
  134OSM   C12F14573   5.392   2.015   7.837  0.1280  0.0876 -0.2476
  134OSM   H12F14574   5.344   1.931   7.892  0.3631 -0.9135 -1.5257
  134OSM   H12G14575   5.313   2.076   7.789  0.1539 -1.4519 -2.3791
  134OSM   C13F14576   5.473   2.097   7.936  0.5545  0.0716 -0.1614
  134OSM   H13F14577   5.547   2.163   7.886  1.0380 -1.2283 -1.2098
  134OSM   H13G14578   5.529   2.024   7.997  0.4436  1.2677  1.4373
  134OSM   C14F14579   5.379   2.179   8.028 -0.7525  0.4406 -0.0284
  134OSM   H14F14580   5.293   2.109   8.028 -0.5065  0.1343  0.0943
  134OSM   H14G14581   5.353   2.275   7.979 -1.6024 -0.6559 -1.8783
  134OSM   C15F14582   5.429   2.204   8.169 -0.0658 -0.2504  1.2085
  134OSM   H15F14583   5.437   2.109   8.225 -1.8637 -0.0341  1.9089
  134OSM   H15G14584   5.352   2.267   8.219 -0.7580 -0.2497  0.1768
  134OSM   C16F14585   5.566   2.279   8.180  0.6015  0.3441  0.1672
  134OSM   H16F14586   5.536   2.381   8.213  0.0515 -0.4325  2.1669
  134OSM   H16G14587   5.615   2.291   8.081  1.0268 -0.0224  0.3299
  134OSM   C17F14588   5.661   2.216   8.279 -0.1396 -0.1719 -1.0399
  134OSM   H17F14589   5.759   2.267   8.272 -0.3138  0.7634  1.7173
  134OSM   H17G14590   5.664   2.109   8.253 -0.0334 -0.7953  1.2706
  134OSM   C18F14591   5.620   2.232   8.425 -0.2739 -0.5710  1.0474
  134OSM   H18F14592   5.695   2.191   8.497 -0.0149  1.2324  1.8662
  134OSM   H18G14593   5.519   2.190   8.445 -0.9667 -0.7154 -2.2012
  134OSM   H18H14594   5.606   2.339   8.451 -2.2775 -0.3777 -0.5494
  135OSM      N14595   4.876   3.231   6.126 -0.3415 -0.2444  0.6939
  135OSM    C1514596   4.885   3.093   6.070 -0.1774 -0.7182  0.3856
  135OSM   H15A14597   4.818   3.036   6.133 -1.6977  0.5145 -0.0518
  135OSM   H15B14598   4.987   3.059   6.078 -1.2180 -4.4157 -0.3639
  135OSM   H15C14599   4.849   3.075   5.970  1.0876 -1.5883  0.0625
  135OSM    C1414600   4.735   3.280   6.118 -0.6350 -0.8020 -0.1633
  135OSM   H14A14601   4.700   3.308   6.020 -1.7208 -0.6184  0.2671
  135OSM   H14B14602   4.726   3.362   6.188 -0.7839 -1.7661  0.9695
  135OSM   H14C14603   4.664   3.200   6.133 -0.9097 -0.9226 -1.9004
  135OSM    C1314604   4.907   3.218   6.262 -0.5763  0.1018 -0.6553
  135OSM   H13A14605   4.915   3.312   6.314  2.7550 -0.5412  0.2062
  135OSM   H13B14606   5.001   3.169   6.282 -1.1975 -1.5182 -1.5062
  135OSM   H13C14607   4.828   3.167   6.315 -1.0811  0.0826 -1.4134
  135OSM    C1214608   4.964   3.320   6.047 -0.4119  0.0031  0.6744
  135OSM   H12A14609   4.935   3.423   6.060 -0.7441  0.1737 -1.2347
  135OSM   H12B14610   4.956   3.296   5.943  1.8983 -2.5299  0.9683
  135OSM    C1114611   5.117   3.311   6.065  0.0170 -0.1674 -0.2683
  135OSM   H11A14612   5.132   3.365   6.161 -0.0082  1.2473 -1.0329
  135OSM   H11B14613   5.169   3.371   5.987 -2.6254  2.0580 -0.4692
  135OSM      P14614   5.301   3.138   6.131 -0.1715 -0.0604 -0.6273
  135OSM    O1314615   5.338   3.000   6.093  0.9136 -0.3937  0.1985
  135OSM    O1414616   5.405   3.240   6.107 -0.3578  0.2040 -0.2700
  135OSM    O1114617   5.276   3.133   6.291  0.1920  0.8318  0.0917
  135OSM    O1214618   5.162   3.182   6.076 -0.0445  0.0067  0.6823
  135OSM    C1S14619   5.392   3.131   6.377  0.4372  0.5664  0.2824
  135OSM    H1S14620   5.480   3.180   6.330  0.6510  1.3023  1.3954
  135OSM    H1T14621   5.427   3.028   6.395 -1.4911 -0.5985 -2.0936
  135OSM     NF14622   5.489   3.223   6.576 -0.5210 -0.9437 -0.2655
  135OSM    HNF14623   5.521   3.148   6.634  0.1285  0.0914  0.7514
  135OSM    C2S14624   5.358   3.201   6.509 -0.1338 -0.2489 -0.2486
  135OSM    H2S14625   5.306   3.296   6.484  0.2475 -0.4501 -1.9315
  135OSM    C3S14626   5.255   3.112   6.590  0.3182  0.3217  0.2601
  135OSM    H3S14627   5.298   3.009   6.595 -1.4237 -0.4212  0.4445
  135OSM     O314628   5.131   3.088   6.519 -0.2801  0.6302 -0.4958
  135OSM    HO314629   5.159   3.123   6.434  1.0294 -0.5906 -0.5942
  135OSM    C4S14630   5.221   3.165   6.724  0.3174  0.3647  0.5456
  135OSM    H4S14631   5.140   3.240   6.729  0.0449  0.4952 -3.3037
  135OSM    C5S14632   5.264   3.123   6.840 -0.0679 -0.1685  0.6910
  135OSM    H5S14633   5.338   3.041   6.836  0.5109  0.3127 -4.2261
  135OSM    C6S14634   5.211   3.175   6.967 -0.2510  0.7111  0.0242
  135OSM    H6S14635   5.106   3.207   6.952  0.2880  1.4864 -2.4434
  135OSM    H6T14636   5.272   3.267   6.983  1.7418  0.1174 -3.1895
  135OSM    C7S14637   5.237   3.079   7.085  0.5897 -0.1028 -0.2327
  135OSM    H7S14638   5.347   3.063   7.089  0.2595 -2.8990 -0.7496
  135OSM    H7T14639   5.182   2.983   7.073  0.3124 -0.0115  0.2423
  135OSM    C8S14640   5.198   3.150   7.218  0.1287 -0.7844 -0.2730
  135OSM    H8S14641   5.088   3.168   7.213  0.4821  1.6517 -0.5331
  135OSM    H8T14642   5.228   3.257   7.224 -1.4888 -0.3623  0.9177
  135OSM    C9S14643   5.228   3.078   7.343 -0.9116 -0.2395 -0.1857
  135OSM    H9S14644   5.333   3.043   7.349 -0.7009  0.6062  3.0833
  135OSM    H9T14645   5.162   2.989   7.347 -1.9256  0.4689 -0.7183
  135OSM   C10S14646   5.207   3.156   7.476 -0.2242  0.4355  0.1754
  135OSM   H10S14647   5.106   3.201   7.468  0.5302  1.8173 -2.8261
  135OSM   H10T14648   5.278   3.238   7.497  0.4894 -0.8441  3.4088
  135OSM   C11S14649   5.204   3.065   7.599 -0.0857 -0.4004  0.0441
  135OSM   H11S14650   5.299   3.007   7.603 -0.2880 -0.6586  1.5312
  135OSM   H11T14651   5.126   2.986   7.586 -1.1905  0.5554  0.7056
  135OSM   C12S14652   5.173   3.150   7.723  0.0064 -0.4229  0.1736
  135OSM   H12S14653   5.066   3.179   7.733 -0.3261 -2.2132  2.7328
  135OSM   H12T14654   5.230   3.244   7.705  0.7264 -1.2255 -2.0754
  135OSM   C13S14655   5.212   3.094   7.859 -0.4959 -0.1806 -0.6683
  135OSM   H13S14656   5.321   3.106   7.873 -0.1028 -1.2448 -2.4356
  135OSM   H13T14657   5.188   2.985   7.851  0.8052 -0.5450  0.1225
  135OSM   C14S14658   5.134   3.157   7.973  0.2057  0.1982 -0.1002
  135OSM   H14S14659   5.025   3.140   7.978  0.4758 -1.5333  1.1701
  135OSM   H14T14660   5.150   3.266   7.958  0.9973  0.3559  1.5568
  135OSM   C15S14661   5.183   3.119   8.113 -0.0462  0.6380  1.1488
  135OSM   H15S14662   5.285   3.155   8.137  0.4274  0.4774 -0.4901
  135OSM   H15T14663   5.180   3.009   8.122  0.9165  0.3038 -1.7180
  135OSM   C16S14664   5.090   3.175   8.228  0.2385 -1.2498  0.2142
  135OSM   H16S14665   4.992   3.124   8.214  0.3436 -1.1295 -1.0473
  135OSM   H16T14666   5.078   3.285   8.237  1.4450 -1.1775  1.1384
  135OSM   C17S14667   5.145   3.132   8.368  0.1938  0.0514 -0.0193
  135OSM   H17S14668   5.237   3.190   8.391  0.6513  0.1136 -1.8531
  135OSM   H17T14669   5.166   3.025   8.349  3.4292  0.6520 -0.3386
  135OSM   C18S14670   5.045   3.156   8.471  0.0805  0.1810  0.3177
  135OSM   H18S14671   4.956   3.091   8.458  1.1444 -1.0599 -1.2518
  135OSM   H18T14672   5.023   3.265   8.472  3.8675  1.0697  0.8427
  135OSM   H18U14673   5.088   3.141   8.572  0.0131  1.3564  0.5259
  135OSM    C1F14674   5.576   3.316   6.537 -0.3874  0.5708 -0.3242
  135OSM     OF14675   5.550   3.404   6.455  0.2853  0.0813 -0.4454
  135OSM    C2F14676   5.716   3.304   6.586 -0.0177 -0.7317 -0.0698
  135OSM    H2F14677   5.756   3.402   6.620  0.5178 -0.7597 -0.5825
  135OSM    H2G14678   5.788   3.290   6.502 -0.4526 -0.3695 -0.5128
  135OSM    C3F14679   5.741   3.213   6.705  0.7538  0.1919  0.9432
  135OSM    H3F14680   5.848   3.205   6.732  0.8776 -0.5821  0.2459
  135OSM    H3G14681   5.699   3.114   6.675 -1.6732  1.7425 -1.3038
  135OSM    C4F14682   5.673   3.245   6.839 -0.1518 -0.0770 -0.1164
  135OSM    H4F14683   5.565   3.225   6.821  0.1311  0.1114 -2.3388
  135OSM    H4G14684   5.691   3.351   6.865  1.0116 -0.3499  0.2279
  135OSM    C5F14685   5.734   3.170   6.957  0.5080  0.1434  0.0796
  135OSM    H5F14686   5.839   3.200   6.978  0.2218 -0.2564  2.3711
  135OSM    H5G14687   5.728   3.066   6.919 -1.8208  0.1438  0.3381
  135OSM    C6F14688   5.660   3.190   7.098 -0.1670  0.1351  0.2622
  135OSM    H6F14689   5.561   3.139   7.097 -0.2891  0.3666  0.6821
  135OSM    H6G14690   5.630   3.297   7.101 -1.6418 -0.2664  0.3076
  135OSM    C7F14691   5.736   3.146   7.226  0.6306  0.3491 -0.2559
  135OSM    H7F14692   5.842   3.174   7.212  1.0433 -1.0123 -0.0178
  135OSM    H7G14693   5.723   3.039   7.253  1.3338  0.4489  0.5158
  135OSM    C8F14694   5.699   3.233   7.351  0.0439 -0.2335  0.0048
  135OSM    H8F14695   5.677   3.333   7.308  2.4450  0.1051 -0.5944
  135OSM    H8G14696   5.791   3.265   7.406 -0.8272  2.5906 -0.0045
  135OSM    C9F14697   5.590   3.166   7.432  0.0558 -0.0242  0.2292
  135OSM    H9F14698   5.500   3.131   7.378  1.2196 -1.1202 -1.0563
  135OSM   C10F14699   5.594   3.138   7.565 -0.4111 -1.0533  0.3093
  135OSM   H10F14700   5.511   3.078   7.604 -0.5795 -1.1982 -0.2630
  135OSM   C11F14701   5.708   3.173   7.664  0.4608  0.5396 -0.1201
  135OSM   H11F14702   5.763   3.265   7.635 -0.2713  0.7352 -0.9576
  135OSM   H11G14703   5.781   3.092   7.642 -1.0102 -0.7274 -0.5062
  135OSM   C12F14704   5.675   3.164   7.818 -0.0526  0.3436  0.0801
  135OSM   H12F14705   5.626   3.067   7.841  0.8887  0.0008  0.6947
  135OSM   H12G14706   5.598   3.243   7.828 -1.6171 -0.6807 -2.6648
  135OSM   C13F14707   5.785   3.170   7.924 -0.0077 -0.1415 -0.5853
  135OSM   H13F14708   5.856   3.255   7.929 -0.2474  0.0359 -0.0577
  135OSM   H13G14709   5.857   3.091   7.894  1.4934  1.2214 -0.6699
  135OSM   C14F14710   5.733   3.145   8.062 -0.1737 -0.2718 -0.2256
  135OSM   H14F14711   5.822   3.141   8.128  0.5437 -1.1795 -1.2236
  135OSM   H14G14712   5.673   3.053   8.078  1.6843 -1.3320  1.1352
  135OSM   C15F14713   5.636   3.258   8.112 -0.1871  0.1692 -0.5760
  135OSM   H15F14714   5.542   3.245   8.054 -1.6481  0.4066  1.6015
  135OSM   H15G14715   5.684   3.357   8.095  3.6953 -1.0844  1.6911
  135OSM   C16F14716   5.607   3.236   8.260 -0.3664 -0.0324  0.5070
  135OSM   H16F14717   5.701   3.257   8.315 -0.1890 -1.3261  0.7179
  135OSM   H16G14718   5.584   3.130   8.284 -0.0848  0.3073  2.4373
  135OSM   C17F14719   5.498   3.324   8.318 -0.8720 -0.5492  0.7500
  135OSM   H17F14720   5.399   3.304   8.272 -0.1848 -2.2246 -0.0990
  135OSM   H17G14721   5.517   3.431   8.292 -1.3251 -0.7106 -0.3286
  135OSM   C18F14722   5.474   3.308   8.474 -0.4487 -0.8899  0.2254
  135OSM   H18F14723   5.572   3.331   8.520  2.2347 -2.7407 -3.9116
  135OSM   H18G14724   5.455   3.201   8.494  1.4977 -1.0901  1.2477
  135OSM   H18H14725   5.395   3.375   8.514  1.8559  1.8466  0.5080
  136OSM      N14726   1.408   4.138   5.977  0.5979  0.1072  0.2087
  136OSM    C1514727   1.516   4.032   5.985 -0.0667 -0.1770 -0.1469
  136OSM   H15A14728   1.613   4.079   5.983 -0.6201  0.9908 -0.1142
  136OSM   H15B14729   1.515   3.975   5.893  3.7128  0.5120 -0.7921
  136OSM   H15C14730   1.502   3.959   6.063 -0.2038  0.0198  0.0138
  136OSM    C1414731   1.431   4.219   5.856 -0.2864 -0.2366  0.0194
  136OSM   H14A14732   1.535   4.247   5.845 -0.9065  2.0504 -0.7322
  136OSM   H14B14733   1.370   4.307   5.869 -1.5236 -0.7211 -2.0712
  136OSM   H14C14734   1.402   4.162   5.769  2.5299 -1.0800 -0.4617
  136OSM    C1314735   1.273   4.063   5.959 -0.8626 -0.5594 -0.6279
  136OSM   H13A14736   1.254   4.021   6.057 -0.2998  1.5021  0.4184
  136OSM   H13B14737   1.274   3.986   5.883 -1.6510 -0.8090 -0.3910
  136OSM   H13C14738   1.192   4.132   5.939 -0.5112  0.1485  0.2963
  136OSM    C1214739   1.423   4.216   6.103  0.2764 -0.6550  0.8057
  136OSM   H12A14740   1.419   4.156   6.193  0.9107 -0.0295  1.2580
  136OSM   H12B14741   1.342   4.286   6.121 -2.0978 -2.7215 -1.0739
  136OSM    C1114742   1.562   4.293   6.129  0.7024 -0.3098 -0.6633
  136OSM   H11A14743   1.651   4.228   6.116  2.0942  1.2938  0.3303
  136OSM   H11B14744   1.553   4.328   6.235  0.3442 -0.2859 -0.6984
  136OSM      P14745   1.479   4.529   6.055  0.1299  0.0139  0.0203
  136OSM    O1314746   1.515   4.626   5.945  0.3142  0.1061  0.2250
  136OSM    O1414747   1.338   4.485   6.071  0.1347  0.4186  0.3208
  136OSM    O1114748   1.525   4.595   6.187  0.2639 -0.4244 -0.1418
  136OSM    O1214749   1.582   4.405   6.045  0.5246 -0.3354 -0.1321
  136OSM    C1S14750   1.664   4.657   6.190  0.5373  0.7616  0.3667
  136OSM    H1S14751   1.665   4.736   6.112  0.5708  0.1245 -0.2821
  136OSM    H1T14752   1.748   4.585   6.180  0.3491  0.1438  2.5485
  136OSM     NF14753   1.804   4.799   6.326  0.5371 -0.0661  0.1883
  136OSM    HNF14754   1.884   4.748   6.355  0.0267 -1.0397 -0.0695
  136OSM    C2S14755   1.676   4.735   6.324 -0.0093 -0.0483  0.1346
  136OSM    H2S14756   1.586   4.801   6.318 -0.6557 -1.0300 -1.9605
  136OSM    C3S14757   1.664   4.641   6.451 -0.8477  0.2095 -0.0728
  136OSM    H3S14758   1.763   4.593   6.461 -1.0320  0.3139  2.9512
  136OSM     O314759   1.556   4.540   6.449  0.3002  0.2274 -0.0506
  136OSM    HO314760   1.519   4.550   6.361 -1.6320 -0.8691  0.5754
  136OSM    C4S14761   1.648   4.718   6.579 -0.5414  0.3490 -0.5622
  136OSM    H4S14762   1.737   4.748   6.636 -0.1408  0.0117 -0.9994
  136OSM    C5S14763   1.539   4.770   6.632 -0.1714  0.1030 -0.4273
  136OSM    H5S14764   1.449   4.764   6.570  0.8533 -1.5724 -1.8522
  136OSM    C6S14765   1.538   4.833   6.768 -0.6245  0.4587  0.2984
  136OSM    H6S14766   1.522   4.757   6.848 -0.9812 -0.4373 -0.6047
  136OSM    H6T14767   1.456   4.908   6.774 -1.6175 -0.6545  1.4692
  136OSM    C7S14768   1.660   4.919   6.806 -0.6463 -0.0555 -0.2554
  136OSM    H7S14769   1.669   4.994   6.725 -2.6873  0.8183  0.2701
  136OSM    H7T14770   1.756   4.864   6.800 -0.6262 -0.0397 -0.1006
  136OSM    C8S14771   1.643   5.002   6.936  0.3894 -0.1136  0.2774
  136OSM    H8S14772   1.538   5.037   6.950 -1.0154 -2.7078 -2.5193
  136OSM    H8T14773   1.710   5.091   6.931  0.7814 -0.3991  0.3958
  136OSM    C9S14774   1.671   4.911   7.063  0.4203 -0.6295  0.3571
  136OSM    H9S14775   1.760   4.852   7.033  0.5532 -0.0940 -0.3326
  136OSM    H9T14776   1.581   4.851   7.087 -0.5340  1.1300  1.4360
  136OSM   C10S14777   1.708   4.998   7.188 -0.0273  0.1453  0.3965
  136OSM   H10S14778   1.629   5.074   7.206  0.8795  0.7257  2.1776
  136OSM   H10T14779   1.800   5.055   7.163 -0.9190  2.1734  1.4422
  136OSM   C11S14780   1.727   4.909   7.307 -0.2529  0.0631 -0.5484
  136OSM   H11S14781   1.802   4.829   7.291  0.5155  0.5690  0.3693
  136OSM   H11T14782   1.635   4.862   7.346  0.7640 -0.8847  0.8254
  136OSM   C12S14783   1.778   4.994   7.424  0.1657  0.2307  0.1750
  136OSM   H12S14784   1.696   5.066   7.444  0.3456  0.1158  1.4515
  136OSM   H12T14785   1.868   5.052   7.395 -0.8188  1.1971 -1.0198
  136OSM   C13S14786   1.795   4.916   7.553  0.3713 -0.1965 -0.2080
  136OSM   H13S14787   1.869   4.834   7.540  1.4469  0.4606  1.3236
  136OSM   H13T14788   1.704   4.863   7.588  1.4417 -2.0771 -0.1483
  136OSM   C14S14789   1.849   5.016   7.666  0.4889  0.3531  1.3319
  136OSM   H14S14790   1.791   5.110   7.680 -1.0799  0.1118 -2.3572
  136OSM   H14T14791   1.939   5.045   7.607  0.5832  0.8695  1.7212
  136OSM   C15S14792   1.894   4.946   7.799 -0.3828 -0.2339  0.4968
  136OSM   H15S14793   1.975   5.011   7.839 -0.4714 -0.7504  1.5623
  136OSM   H15T14794   1.914   4.843   7.764  1.0138  0.5346 -1.1212
  136OSM   C16S14795   1.785   4.939   7.904  0.5846  1.0973  0.1155
  136OSM   H16S14796   1.712   4.870   7.856  1.3107  0.3912  0.0067
  136OSM   H16T14797   1.734   5.038   7.906 -0.1007  0.7525 -0.1937
  136OSM   C17S14798   1.845   4.896   8.035 -0.1191  0.1895 -0.3486
  136OSM   H17S14799   1.788   4.948   8.115 -1.3548 -0.3556 -0.8502
  136OSM   H17T14800   1.949   4.933   8.029  0.2778 -0.7360  0.5475
  136OSM   C18S14801   1.843   4.740   8.054  0.2871 -0.3991 -0.0946
  136OSM   H18S14802   1.813   4.704   8.154 -0.7388 -0.9368 -0.5800
  136OSM   H18T14803   1.949   4.708   8.040  0.8395  1.4092 -0.3290
  136OSM   H18U14804   1.784   4.687   7.976 -0.8383 -1.7467  1.5989
  136OSM    C1F14805   1.819   4.916   6.262  0.2376  0.2669  0.4354
  136OSM     OF14806   1.726   4.968   6.203 -0.1664  0.2518 -0.2347
  136OSM    C2F14807   1.952   4.976   6.250 -0.1417  0.3393  0.2016
  136OSM    H2F14808   1.984   4.977   6.144 -1.5302 -0.0988 -0.2509
  136OSM    H2G14809   2.027   4.907   6.295  0.6148 -0.5380 -2.2498
  136OSM    C3F14810   1.953   5.109   6.322  0.1446  0.1690 -0.1127
  136OSM    H3F14811   1.873   5.176   6.285 -0.3018  0.7102  1.7473
  136OSM    H3G14812   2.048   5.162   6.299  0.2245 -0.1490 -0.5457
  136OSM    C4F14813   1.955   5.102   6.474 -0.0180  0.2198 -0.5169
  136OSM    H4F14814   1.866   5.051   6.515  0.1802 -0.7596 -1.2569
  136OSM    H4G14815   1.972   5.200   6.523  0.2330 -1.1638  2.3596
  136OSM    C5F14816   2.073   5.016   6.537 -0.0636  0.6077 -0.3017
  136OSM    H5F14817   2.168   5.048   6.489  0.1233 -1.5080 -1.4271
  136OSM    H5G14818   2.060   4.906   6.535  0.5915  0.5307 -0.4897
  136OSM    C6F14819   2.082   5.040   6.687  1.0249 -0.1775 -0.6540
  136OSM    H6F14820   1.989   5.003   6.734  0.5374 -0.6667 -1.9744
  136OSM    H6G14821   2.090   5.149   6.706 -0.2286 -0.1022 -0.4738
  136OSM    C7F14822   2.199   4.968   6.751  0.3896  0.4403  0.2962
  136OSM    H7F14823   2.296   5.008   6.715 -0.8663  0.2598 -3.8711
  136OSM    H7G14824   2.209   4.868   6.703 -1.9190  0.9576 -1.4986
  136OSM    C8F14825   2.210   4.939   6.898  0.2327 -0.1649  0.2660
  136OSM    H8F14826   2.238   5.039   6.937 -0.7611  0.4629 -0.6016
  136OSM    H8G14827   2.293   4.867   6.917 -0.6817 -1.0857  0.9063
  136OSM    C9F14828   2.092   4.876   6.975 -0.4535  0.6029  0.5757
  136OSM    H9F14829   2.033   4.799   6.923 -3.7402  3.2759 -0.0185
  136OSM   C10F14830   2.056   4.896   7.100  0.2153 -0.7702  0.5603
  136OSM   H10F14831   1.968   4.853   7.150 -0.7522  0.1207 -0.3163
  136OSM   C11F14832   2.125   4.994   7.197  0.0606  0.4267 -0.3209
  136OSM   H11F14833   2.058   5.081   7.211 -0.7027  0.0023 -1.2338
  136OSM   H11G14834   2.218   5.033   7.150 -1.2663  1.7385 -1.9529
  136OSM   C12F14835   2.152   4.939   7.335 -0.2429 -0.0101  0.0289
  136OSM   H12F14836   2.221   4.853   7.319  0.8631  0.8609 -0.0565
  136OSM   H12G14837   2.057   4.907   7.383 -1.4541  3.1002 -0.0533
  136OSM   C13F14838   2.216   5.037   7.438 -0.6109  0.0646  0.1456
  136OSM   H13F14839   2.152   5.127   7.450  0.0786  0.3557  2.1168
  136OSM   H13G14840   2.321   5.066   7.418 -0.3594  0.6044  2.0298
  136OSM   C14F14841   2.228   4.972   7.575 -0.3076  0.7764  0.4111
  136OSM   H14F14842   2.291   4.880   7.575 -1.3871  0.0181 -0.1093
  136OSM   H14G14843   2.127   4.939   7.607 -0.6183 -0.4372 -1.6264
  136OSM   C15F14844   2.283   5.076   7.678 -0.3357 -0.5939 -0.6502
  136OSM   H15F14845   2.229   5.170   7.652 -1.4743 -1.3075 -0.8842
  136OSM   H15G14846   2.389   5.100   7.653 -0.5521  3.6641  1.6012
  136OSM   C16F14847   2.282   5.040   7.827  0.4154  0.5735  0.0808
  136OSM   H16F14848   2.182   4.999   7.851 -0.1137  0.6303 -1.8401
  136OSM   H16G14849   2.312   5.131   7.883  0.9566  1.5191 -1.6669
  136OSM   C17F14850   2.399   4.942   7.849  0.1447  0.2613  0.3751
  136OSM   H17F14851   2.500   4.989   7.840 -0.0833  0.8469  0.8463
  136OSM   H17G14852   2.400   4.871   7.763 -0.3383 -2.5265  2.5213
  136OSM   C18F14853   2.394   4.860   7.975 -0.3360 -0.1069 -0.4977
  136OSM   H18F14854   2.291   4.827   8.000 -0.5488 -0.2428 -1.5131
  136OSM   H18G14855   2.430   4.921   8.060 -0.4567  0.7040 -1.0093
  136OSM   H18H14856   2.462   4.773   7.966 -0.5232 -0.6085  2.2197
  137OSM      N14857   3.417   1.725   6.102  0.1838 -0.4921 -0.2687
  137OSM    C1514858   3.277   1.733   6.066 -0.0764 -0.7690 -0.2593
  137OSM   H15A14859   3.216   1.807   6.114 -0.0705 -1.0934  0.2691
  137OSM   H15B14860   3.245   1.635   6.098  1.8055 -1.5757 -0.6716
  137OSM   H15C14861   3.264   1.732   5.959 -1.9488 -0.9547 -0.0522
  137OSM    C1414862   3.488   1.644   6.007 -0.3046  0.5058  0.5800
  137OSM   H14A14863   3.432   1.554   5.986  1.2497 -1.1309  2.9355
  137OSM   H14B14864   3.579   1.604   6.049 -1.4273 -3.1345 -0.1293
  137OSM   H14C14865   3.490   1.691   5.910 -2.3842 -0.4561  0.0170
  137OSM    C1314866   3.461   1.868   6.104 -0.0348 -0.0253 -0.8094
  137OSM   H13A14867   3.478   1.904   6.205  3.0614  1.3342 -1.7030
  137OSM   H13B14868   3.387   1.936   6.064  0.4318  0.3632 -1.0239
  137OSM   H13C14869   3.558   1.880   6.059 -0.0455 -0.6834 -1.0211
  137OSM    C1214870   3.436   1.667   6.237 -0.2707  0.5381 -0.5197
  137OSM   H12A14871   3.392   1.568   6.240 -0.2841  0.5665  0.6134
  137OSM   H12B14872   3.372   1.726   6.300  3.5367  1.2293  3.1135
  137OSM    C1114873   3.578   1.652   6.301 -0.2824  0.3360  0.0325
  137OSM   H11A14874   3.576   1.643   6.412  0.0911 -2.3565 -0.1092
  137OSM   H11B14875   3.629   1.748   6.279 -0.1224 -0.0137 -1.2049
  137OSM      P14876   3.626   1.396   6.290 -0.7314 -0.3359 -0.1556
  137OSM    O1314877   3.481   1.370   6.297 -0.3823  0.1072 -0.2476
  137OSM    O1414878   3.706   1.300   6.211  0.0043  0.0689  0.6935
  137OSM    O1114879   3.673   1.419   6.437  0.1899  0.1727 -0.3681
  137OSM    O1214880   3.647   1.541   6.235 -0.4396  0.4987 -0.3413
  137OSM    C1S14881   3.819   1.446   6.458 -0.4772 -0.3174  0.4589
  137OSM    H1S14882   3.839   1.549   6.423  0.1217 -0.1340  1.3165
  137OSM    H1T14883   3.879   1.366   6.409 -2.0166 -1.1743 -0.0823
  137OSM     NF14884   3.997   1.497   6.622  0.5896  0.7416  0.3819
  137OSM    HNF14885   4.069   1.438   6.658 -1.8662 -1.6705  1.8125
  137OSM    C2S14886   3.864   1.434   6.610  0.3202 -0.5628  0.2668
  137OSM    H2S14887   3.793   1.507   6.655  3.0054  1.3971  1.6772
  137OSM    C3S14888   3.851   1.295   6.669 -0.2288  0.3046  0.1631
  137OSM    H3S14889   3.934   1.232   6.630  0.4822  2.1434 -1.4395
  137OSM     O314890   3.731   1.229   6.619  0.3475 -0.0919 -0.5539
  137OSM    HO314891   3.704   1.278   6.541 -0.6027  0.2120 -0.0383
  137OSM    C4S14892   3.857   1.303   6.823  0.1022  0.3927  0.1000
  137OSM    H4S14893   3.962   1.314   6.854 -0.1235 -1.8910  1.9540
  137OSM    C5S14894   3.745   1.314   6.902  0.4388  0.0539  0.6683
  137OSM    H5S14895   3.650   1.337   6.852  0.2268 -3.4466 -0.8055
  137OSM    C6S14896   3.750   1.328   7.048 -0.5513 -0.1567  0.0085
  137OSM    H6S14897   3.715   1.428   7.082  0.8226  1.0587 -1.9322
  137OSM    H6T14898   3.848   1.306   7.095 -0.5798  0.6896  0.4877
  137OSM    C7S14899   3.647   1.232   7.103  0.2357 -0.2984  0.2471
  137OSM    H7S14900   3.689   1.135   7.067  0.5975  0.6932 -2.1846
  137OSM    H7T14901   3.550   1.244   7.052 -0.4820  2.4272  2.0232
  137OSM    C8S14902   3.623   1.244   7.253  0.2391  0.8422  0.2301
  137OSM    H8S14903   3.545   1.170   7.282 -0.1955  0.7821 -1.0309
  137OSM    H8T14904   3.588   1.348   7.273  2.3674  1.6140  0.1501
  137OSM    C9S14905   3.749   1.234   7.334 -0.5624  0.3596 -0.8005
  137OSM    H9S14906   3.822   1.314   7.311 -0.3934  0.6571  0.6882
  137OSM    H9T14907   3.787   1.131   7.313 -2.8308 -0.5232 -0.9662
  137OSM   C10S14908   3.713   1.261   7.482 -0.0991 -0.1459  0.4946
  137OSM   H10S14909   3.650   1.182   7.528  2.0333 -2.5795 -0.4529
  137OSM   H10T14910   3.661   1.358   7.479  0.7174  0.2889 -0.0705
  137OSM   C11S14911   3.844   1.298   7.553 -0.1619 -0.0704  0.4596
  137OSM   H11S14912   3.865   1.406   7.538 -0.1215 -0.3266 -1.5526
  137OSM   H11T14913   3.932   1.242   7.516 -0.2653  0.2075 -0.2244
  137OSM   C12S14914   3.842   1.270   7.699  0.4568  0.0307 -0.6579
  137OSM   H12S14915   3.942   1.290   7.743  0.6289 -0.6895 -0.7100
  137OSM   H12T14916   3.821   1.165   7.727 -2.0855  0.2060 -1.6848
  137OSM   C13S14917   3.733   1.348   7.787  0.2489  0.3452  0.1837
  137OSM   H13S14918   3.635   1.305   7.756  0.9694 -0.1813 -1.4509
  137OSM   H13T14919   3.736   1.458   7.769  0.9098  0.3395  0.2676
  137OSM   C14S14920   3.737   1.329   7.938  0.1643 -0.2461 -0.1801
  137OSM   H14S14921   3.661   1.386   7.995  1.0191  0.6308  0.1124
  137OSM   H14T14922   3.840   1.358   7.968  0.7761 -0.0558 -2.3248
  137OSM   C15S14923   3.723   1.182   7.984  0.1542  0.6205 -0.5474
  137OSM   H15S14924   3.791   1.119   7.923 -0.7066 -2.1370  1.1673
  137OSM   H15T14925   3.620   1.149   7.960 -0.2500 -0.1593  1.9759
  137OSM   C16S14926   3.746   1.174   8.136 -0.8076  0.5718 -0.9029
  137OSM   H16S14927   3.856   1.183   8.152 -0.8328  0.1241 -0.4663
  137OSM   H16T14928   3.710   1.077   8.175 -0.1134  1.0069  0.9235
  137OSM   C17S14929   3.675   1.286   8.211  0.0482  0.4619  0.0654
  137OSM   H17S14930   3.569   1.288   8.176  0.1279 -1.6978 -0.4628
  137OSM   H17T14931   3.715   1.388   8.194 -0.2857  0.2089 -2.6898
  137OSM   C18S14932   3.666   1.243   8.364  0.8300 -0.2416  1.2518
  137OSM   H18S14933   3.634   1.137   8.367 -1.5823  0.2829 -1.2667
  137OSM   H18T14934   3.578   1.295   8.407  0.4063  0.2886 -0.1944
  137OSM   H18U14935   3.754   1.268   8.427  0.6441  1.3317  0.9345
  137OSM    C1F14936   4.008   1.624   6.601 -0.1077 -0.5828  0.0481
  137OSM     OF14937   3.910   1.695   6.596  0.2327 -0.3624  0.4928
  137OSM    C2F14938   4.146   1.672   6.580 -0.2026  0.5849 -0.2852
  137OSM    H2F14939   4.170   1.703   6.476  1.0635  0.4489 -0.0528
  137OSM    H2G14940   4.211   1.588   6.614 -0.1645  1.4188  1.8953
  137OSM    C3F14941   4.177   1.789   6.679 -0.0127 -0.2573  0.6672
  137OSM    H3F14942   4.102   1.870   6.669  0.6014  0.1418 -1.2239
  137OSM    H3G14943   4.280   1.828   6.662  0.5140 -1.8867 -0.0359
  137OSM    C4F14944   4.157   1.751   6.832  0.6897 -0.9139 -0.4377
  137OSM    H4F14945   4.198   1.649   6.849  1.6107 -0.8814 -2.1971
  137OSM    H4G14946   4.049   1.740   6.852  0.9771 -0.7569  1.3782
  137OSM    C5F14947   4.218   1.848   6.939  0.1913  0.5046 -0.1646
  137OSM    H5F14948   4.173   1.948   6.918  0.9592  0.5257 -1.8469
  137OSM    H5G14949   4.326   1.865   6.920  0.3281  2.3089  1.8561
  137OSM    C6F14950   4.204   1.795   7.078  0.6189 -0.5764 -0.8164
  137OSM    H6F14951   4.098   1.805   7.108  0.7262 -1.4310 -0.1022
  137OSM    H6G14952   4.261   1.861   7.148 -0.6123  0.4559 -0.7369
  137OSM    C7F14953   4.271   1.654   7.092  0.6412 -0.3146 -0.8461
  137OSM    H7F14954   4.367   1.663   7.036 -0.3251  0.1942 -2.4874
  137OSM    H7G14955   4.212   1.577   7.039 -1.6958  0.7739  0.0490
  137OSM    C8F14956   4.276   1.610   7.244 -0.4262  0.3530  0.3600
  137OSM    H8F14957   4.324   1.694   7.298  1.7833 -2.5986  3.4504
  137OSM    H8G14958   4.354   1.530   7.248 -0.3510  0.4225  0.2915
  137OSM    C9F14959   4.136   1.573   7.289  0.1313  1.3627 -0.5477
  137OSM    H9F14960   4.071   1.537   7.208  1.1506 -0.3078 -0.6948
  137OSM   C10F14961   4.090   1.574   7.413  0.1593 -0.7097  0.4505
  137OSM   H10F14962   3.984   1.549   7.425 -0.7136  2.3508 -0.0348
  137OSM   C11F14963   4.182   1.609   7.539 -0.0897  0.2443 -0.5236
  137OSM   H11F14964   4.228   1.710   7.530 -2.9367  1.7690  0.5101
  137OSM   H11G14965   4.266   1.536   7.540 -1.6210 -1.6145 -1.1814
  137OSM   C12F14966   4.107   1.630   7.664  0.7816 -0.0585  0.4433
  137OSM   H12F14967   4.022   1.559   7.676 -0.3235  1.1695  0.1275
  137OSM   H12G14968   4.037   1.716   7.653 -0.9715 -1.6626 -2.4373
  137OSM   C13F14969   4.189   1.637   7.795  0.0901 -0.4725  0.2020
  137OSM   H13F14970   4.259   1.551   7.793  1.1406  0.3112  1.6362
  137OSM   H13G14971   4.123   1.629   7.883  0.7109 -2.6838  0.5081
  137OSM   C14F14972   4.271   1.760   7.817 -0.6756  0.2768  0.2878
  137OSM   H14F14973   4.213   1.850   7.787 -0.6978  0.4469  0.8242
  137OSM   H14G14974   4.356   1.780   7.747  0.3438 -0.6653  1.2157
  137OSM   C15F14975   4.326   1.780   7.960  0.1838 -0.1620 -1.3586
  137OSM   H15F14976   4.373   1.686   7.997 -2.5797 -1.0857  0.0326
  137OSM   H15G14977   4.247   1.811   8.031  2.8146 -0.0829  1.7937
  137OSM   C16F14978   4.428   1.894   7.962  1.1531  0.1990  0.2327
  137OSM   H16F14979   4.377   1.989   7.935  0.8173  0.5703  2.0450
  137OSM   H16G14980   4.505   1.880   7.883 -0.3188 -1.5483 -0.9562
  137OSM   C17F14981   4.511   1.912   8.086 -0.3544  0.7088 -0.2018
  137OSM   H17F14982   4.537   2.020   8.089  0.4895  0.5009  0.5094
  137OSM   H17G14983   4.605   1.854   8.078 -0.0333  1.2038 -0.0056
  137OSM   C18F14984   4.441   1.868   8.216 -0.1974 -0.1731 -0.2945
  137OSM   H18F14985   4.333   1.896   8.210 -0.2037 -0.3948 -1.2744
  137OSM   H18G14986   4.493   1.922   8.298  2.0583  0.2334 -1.9285
  137OSM   H18H14987   4.446   1.758   8.235 -0.6241 -0.1528 -0.0347
  138OSM      N14988   3.863   6.497   5.863  0.0976 -0.9611  0.0719
  138OSM    C1514989   3.847   6.639   5.903 -1.1326 -0.4314  0.1100
  138OSM   H15A14990   3.759   6.661   5.961 -1.9676 -1.3248 -0.7840
  138OSM   H15B14991   3.842   6.698   5.813  2.1211 -0.4809 -0.2216
  138OSM   H15C14992   3.927   6.678   5.965 -1.6665 -2.0106  1.9006
  138OSM    C1414993   3.722   6.466   5.817 -0.0135 -0.9824 -0.4314
  138OSM   H14A14994   3.734   6.376   5.759  0.2806 -0.7443 -0.7407
  138OSM   H14B14995   3.695   6.557   5.765  0.5407  0.9664  2.4208
  138OSM   H14C14996   3.647   6.452   5.893 -1.3022 -0.7382 -1.6176
  138OSM    C1314997   3.960   6.495   5.740 -0.4356 -0.4406 -0.1922
  138OSM   H13A14998   4.050   6.531   5.787 -1.8005  1.2518  1.2728
  138OSM   H13B14999   3.915   6.553   5.661 -0.0979 -0.1393 -0.1649
  138OSM   H13C15000   3.977   6.393   5.709  3.9999 -0.1272  0.5793
  138OSM    C1215001   3.916   6.403   5.970 -0.3263  0.0386 -0.3533
  138OSM   H12A15002   3.935   6.302   5.934 -0.9533 -0.7129  1.3370
  138OSM   H12B15003   3.845   6.398   6.051 -0.0523 -1.8783 -0.1841
  138OSM    C1115004   4.052   6.452   6.033  0.0726 -0.1544  0.0860
  138OSM   H11A15005   4.052   6.399   6.131 -1.8620  1.4090  1.0036
  138OSM   H11B15006   4.058   6.561   6.053  1.9007 -0.4115  1.1548
  138OSM      P15007   4.288   6.495   5.931  0.4072 -0.3856  0.2542
  138OSM    O1315008   4.400   6.421   5.871  0.1195  0.8088 -0.3739
  138OSM    O1415009   4.246   6.609   5.846 -0.1805 -0.0085  0.6529
  138OSM    O1115010   4.328   6.525   6.077 -0.4769  0.4058 -0.0233
  138OSM    O1215011   4.163   6.395   5.958  0.1007 -0.5837 -0.6205
  138OSM    C1S15012   4.320   6.649   6.139  0.0505 -0.1476 -0.4813
  138OSM    H1S15013   4.216   6.655   6.177  0.4815 -0.1286  0.7287
  138OSM    H1T15014   4.341   6.740   6.078  0.3478  0.8198  1.0077
  138OSM     NF15015   4.401   6.803   6.320  0.5204 -0.3921 -0.2830
  138OSM    HNF15016   4.484   6.859   6.322  1.2638 -1.4552  0.4074
  138OSM    C2S15017   4.419   6.674   6.261  0.2226  0.1637 -0.1500
  138OSM    H2S15018   4.377   6.614   6.344 -0.3838  0.5616 -0.1682
  138OSM    C3S15019   4.559   6.636   6.222 -0.9074  0.9418 -0.3516
  138OSM    H3S15020   4.600   6.697   6.138  0.2259  0.5526 -0.1025
  138OSM     O315021   4.575   6.505   6.165 -0.4277  0.1226 -0.4730
  138OSM    HO315022   4.491   6.493   6.119 -0.4262 -0.2631 -0.3746
  138OSM    C4S15023   4.660   6.655   6.334  0.1044  0.7071  0.7822
  138OSM    H4S15024   4.625   6.613   6.430  2.0716 -0.9847  0.8259
  138OSM    C5S15025   4.772   6.726   6.337  0.4234 -0.2761 -0.2081
  138OSM    H5S15026   4.788   6.795   6.252  0.1812  0.3031  0.2049
  138OSM    C6S15027   4.867   6.745   6.451 -0.5196  0.5682  0.4541
  138OSM    H6S15028   4.887   6.854   6.454 -1.3785  0.8610 -2.2986
  138OSM    H6T15029   4.963   6.693   6.432 -0.5471 -0.2982  2.3993
  138OSM    C7S15030   4.816   6.715   6.590 -0.7756  0.3750 -1.0449
  138OSM    H7S15031   4.808   6.605   6.608 -3.6386  0.3649 -1.9215
  138OSM    H7T15032   4.719   6.758   6.622 -0.5063  1.0131 -1.0801
  138OSM    C8S15033   4.924   6.757   6.699  0.4353 -1.1071  0.2361
  138OSM    H8S15034   4.946   6.866   6.688  0.5329 -1.3306 -2.2916
  138OSM    H8T15035   5.015   6.705   6.663  1.2608 -0.1883  0.9406
  138OSM    C9S15036   4.882   6.722   6.844 -0.5427 -0.3090 -0.0837
  138OSM    H9S15037   4.864   6.612   6.845 -0.6010 -0.3048 -0.4900
  138OSM    H9T15038   4.798   6.783   6.884 -1.7278 -1.7384 -0.2888
  138OSM   C10S15039   4.987   6.746   6.943 -0.4437  0.4290  0.1503
  138OSM   H10S15040   5.030   6.847   6.924  1.7853 -0.6452 -0.7814
  138OSM   H10T15041   5.073   6.676   6.948  0.7276  1.8453  0.6188
  138OSM   C11S15042   4.931   6.739   7.090 -0.0446 -0.4258 -0.5732
  138OSM   H11S15043   4.879   6.643   7.114 -1.3072  0.2251 -0.6083
  138OSM   H11T15044   4.850   6.813   7.106  0.9615  0.5111  0.2300
  138OSM   C12S15045   5.047   6.772   7.185  0.2225  0.9905 -0.7980
  138OSM   H12S15046   5.077   6.877   7.163  0.0644  1.3855  0.7744
  138OSM   H12T15047   5.133   6.703   7.170  0.4444  1.1819 -0.3908
  138OSM   C13S15048   5.028   6.774   7.339 -0.1006  0.0889  0.1354
  138OSM   H13S15049   5.126   6.781   7.389  0.0868  2.0761 -0.4292
  138OSM   H13T15050   4.985   6.676   7.368 -0.2873 -0.4081 -1.7171
  138OSM   C14S15051   4.940   6.897   7.391  0.5702 -0.3491 -0.5629
  138OSM   H14S15052   4.836   6.880   7.355  0.5882 -1.1990 -0.2140
  138OSM   H14T15053   4.982   6.991   7.347 -0.7848  0.4636 -0.2022
  138OSM   C15S15054   4.935   6.900   7.546 -0.5002  0.1000  0.6237
  138OSM   H15S15055   5.038   6.886   7.583 -0.5275 -1.5622  0.1297
  138OSM   H15T15056   4.877   6.814   7.586  1.0594 -1.2328  0.1302
  138OSM   C16S15057   4.877   7.023   7.608 -0.1355 -0.3986 -1.3083
  138OSM   H16S15058   4.772   7.025   7.573 -1.2030 -2.2796  1.4422
  138OSM   H16T15059   4.916   7.121   7.573 -1.5701  0.9988  0.8225
  138OSM   C17S15060   4.885   7.011   7.766 -0.3279 -0.4326  0.1383
  138OSM   H17S15061   4.986   6.984   7.805  0.2744  2.2437  0.6739
  138OSM   H17T15062   4.805   6.938   7.789 -1.1879  0.9406  1.7196
  138OSM   C18S15063   4.848   7.141   7.838 -0.2471 -0.0189  0.3089
  138OSM   H18S15064   4.841   7.139   7.949 -1.0477  1.0264  0.2899
  138OSM   H18T15065   4.752   7.178   7.796 -1.1282 -0.5149  1.8038
  138OSM   H18U15066   4.929   7.212   7.811  0.0806 -0.8403 -0.9502
  138OSM    C1F15067   4.286   6.866   6.355 -0.3840  0.0876 -0.2525
  138OSM     OF15068   4.180   6.807   6.368  0.1513 -0.4074  0.2050
  138OSM    C2F15069   4.300   7.010   6.390  0.0396  0.0021  0.3993
  138OSM    H2F15070   4.265   7.070   6.304  1.2516 -0.8472 -0.7230
  138OSM    H2G15071   4.407   7.036   6.408  0.1106  0.3604 -0.4776
  138OSM    C3F15072   4.221   7.064   6.510  0.4104  0.2452  0.2171
  138OSM    H3F15073   4.112   7.056   6.490  0.9033  0.2859 -3.0222
  138OSM    H3G15074   4.250   7.171   6.513  1.7123 -0.1012  0.2695
  138OSM    C4F15075   4.259   6.990   6.638  0.3398  1.3609  0.0297
  138OSM    H4F15076   4.228   6.883   6.638  1.3209  1.0576 -0.7195
  138OSM    H4G15077   4.206   7.040   6.721  1.6355  1.2244  0.9758
  138OSM    C5F15078   4.409   6.992   6.673  0.1678  0.0236 -0.1089
  138OSM    H5F15079   4.433   7.098   6.651  0.7168 -0.2392 -0.8203
  138OSM    H5G15080   4.469   6.940   6.595  0.0470  1.6772 -1.3541
  138OSM    C6F15081   4.443   6.956   6.819 -0.8338 -0.4052  0.0797
  138OSM    H6F15082   4.439   6.848   6.843  1.1462 -0.7244 -0.8988
  138OSM    H6G15083   4.359   7.000   6.878 -1.8821 -2.9160  0.5835
  138OSM    C7F15084   4.583   7.004   6.864 -0.1680 -0.7016 -0.1031
  138OSM    H7F15085   4.610   7.103   6.822 -1.7951  0.5553  1.6597
  138OSM    H7G15086   4.650   6.921   6.833  1.8373  0.1234  1.7752
  138OSM    C8F15087   4.585   7.021   7.016  0.1469  0.4893 -0.2194
  138OSM    H8F15088   4.510   7.098   7.044  0.5935  1.0988 -0.6713
  138OSM    H8G15089   4.687   7.060   7.037  0.5963 -0.3712 -0.7279
  138OSM    C9F15090   4.572   6.900   7.110  0.2990 -0.1267  0.8563
  138OSM    H9F15091   4.568   6.802   7.059  1.0158  0.1298  0.2904
  138OSM   C10F15092   4.547   6.903   7.242 -0.3535  0.7943 -0.1713
  138OSM   H10F15093   4.563   6.812   7.301  1.2425  1.4450  0.4860
  138OSM   C11F15094   4.556   7.032   7.328 -0.8731  0.6641 -0.2392
  138OSM   H11F15095   4.517   7.118   7.269 -0.4650  1.4223  0.5891
  138OSM   H11G15096   4.659   7.059   7.360 -0.3920  0.3112 -1.4216
  138OSM   C12F15097   4.457   7.011   7.441  0.6296  0.5476 -0.4237
  138OSM   H12F15098   4.357   6.980   7.404  1.6518 -1.1348 -1.9836
  138OSM   H12G15099   4.428   7.110   7.483  0.3287 -0.2653  1.3612
  138OSM   C13F15100   4.494   6.918   7.555 -0.1099 -0.8465 -0.0257
  138OSM   H13F15101   4.576   6.956   7.620  0.9877  2.7400 -3.1184
  138OSM   H13G15102   4.539   6.830   7.504 -2.3133 -1.3448 -1.2659
  138OSM   C14F15103   4.376   6.862   7.635 -0.5396  0.2075  0.3888
  138OSM   H14F15104   4.306   6.822   7.559  0.6253  0.1097 -0.6733
  138OSM   H14G15105   4.324   6.944   7.688 -0.6351  1.1106 -1.0668
  138OSM   C15F15106   4.413   6.740   7.721 -0.0996 -0.7640  0.3931
  138OSM   H15F15107   4.495   6.686   7.670  0.3843  0.0582  0.2771
  138OSM   H15G15108   4.325   6.674   7.734 -1.0274  0.0382 -1.4375
  138OSM   C16F15109   4.451   6.783   7.860 -0.1320 -0.2186 -0.1691
  138OSM   H16F15110   4.378   6.852   7.907 -0.9551 -1.4251  0.3640
  138OSM   H16G15111   4.541   6.847   7.844  0.2907 -1.0390 -1.1580
  138OSM   C17F15112   4.461   6.671   7.969  0.5285  0.0517 -0.4213
  138OSM   H17F15113   4.558   6.623   7.947  1.1089  0.2291  1.5151
  138OSM   H17G15114   4.379   6.596   7.963  0.0140  0.6076 -0.5128
  138OSM   C18F15115   4.463   6.728   8.112  0.0789  0.6763  0.2828
  138OSM   H18F15116   4.520   6.657   8.177  1.9072 -0.4645 -2.3985
  138OSM   H18G15117   4.360   6.742   8.150 -0.6340 -0.5280 -1.1076
  138OSM   H18H15118   4.514   6.826   8.122 -0.9072  1.1400  0.8818
  139OSM      N15119   4.403   5.410   5.786 -0.0942 -0.4223 -0.4324
  139OSM    C1515120   4.476   5.286   5.761  0.2377 -0.5958 -0.0420
  139OSM   H15A15121   4.506   5.269   5.659  1.7950  0.3666  0.2125
  139OSM   H15B15122   4.412   5.202   5.782 -0.0998 -0.6008 -1.0441
  139OSM   H15C15123   4.570   5.283   5.815  0.6098  5.1260  0.2516
  139OSM    C1415124   4.420   5.420   5.939 -0.1505 -1.0792  0.3705
  139OSM   H14A15125   4.406   5.326   5.991  1.4063 -1.7578 -0.3734
  139OSM   H14B15126   4.335   5.482   5.966 -1.0370 -1.6755 -0.9871
  139OSM   H14C15127   4.515   5.467   5.963 -0.0982  0.1031 -1.8815
  139OSM    C1315128   4.466   5.526   5.720 -0.1378 -0.2713  0.2598
  139OSM   H13A15129   4.571   5.533   5.745  0.8635 -2.4508 -2.7792
  139OSM   H13B15130   4.415   5.612   5.761 -0.4793  0.4349 -1.5565
  139OSM   H13C15131   4.451   5.519   5.613 -2.5988 -1.2930  0.5942
  139OSM    C1215132   4.253   5.396   5.750  0.2987  0.6976 -0.1227
  139OSM   H12A15133   4.213   5.336   5.830  0.7070  1.6608  0.8328
  139OSM   H12B15134   4.250   5.338   5.659  1.3532  2.7451 -1.5330
  139OSM    C1115135   4.170   5.519   5.745  0.3230  0.4670  0.6803
  139OSM   H11A15136   4.075   5.493   5.693  0.8271  2.1668 -1.2282
  139OSM   H11B15137   4.209   5.586   5.665 -1.0179 -3.1169 -3.4104
  139OSM      P15138   4.062   5.506   5.981 -0.4538 -0.4251  0.3230
  139OSM    O1315139   3.924   5.569   5.972 -0.1824 -0.3421  0.2366
  139OSM    O1415140   4.073   5.361   5.972 -0.0100 -0.5134 -0.0444
  139OSM    O1115141   4.126   5.564   6.107 -0.1520 -0.7549  0.3097
  139OSM    O1215142   4.150   5.578   5.879  0.0082  0.1902 -0.1275
  139OSM    C1S15143   4.151   5.701   6.131 -0.4796 -0.3306  0.5076
  139OSM    H1S15144   4.053   5.753   6.130 -0.4874 -0.2997  1.6205
  139OSM    H1T15145   4.216   5.739   6.049  0.9466 -0.0610  1.7142
  139OSM     NF15146   4.259   5.874   6.255 -0.5016  0.2478 -0.1092
  139OSM    HNF15147   4.335   5.906   6.199  0.1084 -0.1889  0.4565
  139OSM    C2S15148   4.236   5.728   6.254  0.3037 -0.1006 -0.3242
  139OSM    H2S15149   4.180   5.706   6.348 -2.1472 -2.3329 -2.1648
  139OSM    C3S15150   4.359   5.642   6.243 -0.1931  0.6824  0.4562
  139OSM    H3S15151   4.413   5.653   6.146 -0.9505 -1.2900 -0.2466
  139OSM     O315152   4.339   5.498   6.256 -0.5339 -0.0070  0.1421
  139OSM    HO315153   4.243   5.489   6.253 -0.4204 -1.0357 -1.1892
  139OSM    C4S15154   4.458   5.680   6.351 -0.5232  0.5505 -0.2675
  139OSM    H4S15155   4.529   5.756   6.315  0.2760  0.0949  0.3349
  139OSM    C5S15156   4.473   5.623   6.476  0.0983  0.4034  0.6476
  139OSM    H5S15157   4.407   5.545   6.517  0.4603  0.1750  0.8037
  139OSM    C6S15158   4.574   5.673   6.574 -0.0156 -0.3412 -0.2120
  139OSM    H6S15159   4.670   5.647   6.524  0.2106 -0.9603  0.5227
  139OSM    H6T15160   4.571   5.604   6.661 -0.3922 -1.9321 -1.4388
  139OSM    C7S15161   4.579   5.814   6.618  0.0163 -0.4284  0.2398
  139OSM    H7S15162   4.488   5.841   6.676  0.2647  1.2670 -0.0987
  139OSM    H7T15163   4.581   5.880   6.529 -1.4334 -2.0777 -1.0734
  139OSM    C8S15164   4.696   5.841   6.718 -0.0845 -0.4187 -0.0945
  139OSM    H8S15165   4.786   5.873   6.661  1.2630 -0.8486  1.6951
  139OSM    H8T15166   4.725   5.749   6.772  0.1186 -0.1355  0.2873
  139OSM    C9S15167   4.663   5.955   6.815  0.1767  0.2694  0.0002
  139OSM    H9S15168   4.580   5.924   6.881  0.8616  0.6272  1.0646
  139OSM    H9T15169   4.641   6.055   6.771 -0.3171  0.7485  1.2944
  139OSM   C10S15170   4.788   5.984   6.904 -0.5679  0.0789  1.3508
  139OSM   H10S15171   4.763   6.080   6.954  0.0291  0.6538  0.5703
  139OSM   H10T15172   4.884   6.000   6.850 -0.5911 -0.0787  1.2622
  139OSM   C11S15173   4.799   5.870   7.011  0.0390 -0.0018 -0.1779
  139OSM   H11S15174   4.864   5.785   6.981  0.2160  0.2896 -0.6264
  139OSM   H11T15175   4.707   5.814   7.039  1.6253 -2.5595  0.2516
  139OSM   C12S15176   4.870   5.924   7.136 -0.5816  0.5196 -0.5930
  139OSM   H12S15177   4.804   5.994   7.191 -0.8130  0.2525 -0.5284
  139OSM   H12T15178   4.956   5.985   7.101 -0.6258  0.6268 -0.5140
  139OSM   C13S15179   4.922   5.810   7.236 -0.1438  0.8286 -0.4778
  139OSM   H13S15180   5.013   5.758   7.200 -1.2929 -0.4108 -1.6719
  139OSM   H13T15181   4.849   5.727   7.244 -1.1492  1.7779  0.6953
  139OSM   C14S15182   4.945   5.873   7.377  0.1014 -0.4112 -0.2261
  139OSM   H14S15183   4.852   5.927   7.404  0.3663  0.3203 -0.7254
  139OSM   H14T15184   5.031   5.943   7.364 -0.1445 -0.3335 -1.6357
  139OSM   C15S15185   4.989   5.773   7.489  0.4175 -0.0866 -0.4767
  139OSM   H15S15186   5.061   5.699   7.448 -0.7884 -0.3414 -2.2512
  139OSM   H15T15187   4.902   5.718   7.531  0.9082  0.3547  1.2058
  139OSM   C16S15188   5.049   5.843   7.613  0.1599  0.0810  0.6486
  139OSM   H16S15189   5.149   5.879   7.579 -1.1889  0.5886 -3.3017
  139OSM   H16T15190   5.066   5.765   7.690  0.3923  1.4139  2.0076
  139OSM   C17S15191   4.964   5.964   7.672 -0.2583 -0.4811 -0.2568
  139OSM   H17S15192   4.858   5.935   7.679 -0.7477  1.1036 -0.5660
  139OSM   H17T15193   4.968   6.049   7.600 -1.2889 -0.8162 -0.7222
  139OSM   C18S15194   5.008   6.024   7.811 -0.1616  0.1007 -0.4290
  139OSM   H18S15195   4.952   5.961   7.883 -2.6391 -0.0374 -2.3489
  139OSM   H18T15196   4.973   6.130   7.815 -1.8479 -0.4122 -0.9157
  139OSM   H18U15197   5.118   6.022   7.823 -0.3528  0.9338  2.0830
  139OSM    C1F15198   4.167   5.959   6.290  0.1117 -0.2082 -0.2901
  139OSM     OF15199   4.084   5.923   6.372  0.2332 -0.1789 -0.1628
  139OSM    C2F15200   4.172   6.102   6.232 -0.4072 -0.2604  0.6261
  139OSM    H2F15201   4.088   6.115   6.161  0.0297  0.5226  0.2349
  139OSM    H2G15202   4.266   6.095   6.174  0.6480 -0.5635  2.2866
  139OSM    C3F15203   4.178   6.214   6.338 -0.7889  0.0685 -0.0199
  139OSM    H3F15204   4.083   6.196   6.393 -1.3424 -0.7542 -1.2216
  139OSM    H3G15205   4.184   6.312   6.285  0.1727 -0.1639 -0.3626
  139OSM    C4F15206   4.294   6.197   6.447 -0.2065  0.1498  0.6846
  139OSM    H4F15207   4.310   6.095   6.486  3.4862  0.3280  0.0154
  139OSM    H4G15208   4.267   6.255   6.538  3.1115  0.0669  1.8700
  139OSM    C5F15209   4.433   6.261   6.411 -0.1598 -0.2141 -0.7025
  139OSM    H5F15210   4.426   6.367   6.378  1.0473  1.0712  2.7727
  139OSM    H5G15211   4.482   6.201   6.331  1.3184 -0.8335  0.6252
  139OSM    C6F15212   4.519   6.268   6.536 -0.1314 -0.0036 -0.5169
  139OSM    H6F15213   4.617   6.297   6.495 -0.5007 -0.9966 -2.2070
  139OSM    H6G15214   4.525   6.169   6.586 -0.0166 -0.9969 -2.3836
  139OSM    C7F15215   4.490   6.380   6.637 -0.4761  0.3365  0.1207
  139OSM    H7F15216   4.396   6.353   6.690 -0.5132 -0.3395 -0.2796
  139OSM    H7G15217   4.468   6.482   6.599  2.3510  0.8224 -0.4443
  139OSM    C8F15218   4.603   6.399   6.738 -0.8342  0.3290  0.6130
  139OSM    H8F15219   4.687   6.428   6.672 -1.3942  2.2825  0.6901
  139OSM    H8G15220   4.627   6.300   6.783  1.8803  0.3624 -0.5825
  139OSM    C9F15221   4.582   6.507   6.838 -0.1550 -0.1208  0.4395
  139OSM    H9F15222   4.529   6.597   6.804 -0.6756 -0.8085 -0.6502
  139OSM   C10F15223   4.602   6.508   6.971  0.4591  0.0782  0.2880
  139OSM   H10F15224   4.569   6.593   7.032 -1.1888  0.1189 -0.6062
  139OSM   C11F15225   4.666   6.398   7.051  0.2796 -0.5402 -0.3705
  139OSM   H11F15226   4.773   6.425   7.067  0.3837 -1.6414  0.9333
  139OSM   H11G15227   4.670   6.302   6.995 -1.5954 -1.1940  0.5473
  139OSM   C12F15228   4.600   6.376   7.190  0.3557  0.2312  0.3083
  139OSM   H12F15229   4.656   6.288   7.230  1.2208 -0.1195 -1.5510
  139OSM   H12G15230   4.498   6.340   7.169  0.5547  0.4084 -1.0859
  139OSM   C13F15231   4.596   6.485   7.292 -0.0566  0.1639 -0.0355
  139OSM   H13F15232   4.515   6.552   7.254  0.5502  0.6320 -0.5230
  139OSM   H13G15233   4.692   6.540   7.301  0.2837 -0.1303 -1.5818
  139OSM   C14F15234   4.549   6.444   7.433  0.1252  0.1177  0.5553
  139OSM   H14F15235   4.462   6.375   7.423  0.9093 -0.8843  0.5232
  139OSM   H14G15236   4.514   6.533   7.489 -2.1835 -0.4633  0.1557
  139OSM   C15F15237   4.660   6.376   7.517  0.4082  0.6782 -0.1442
  139OSM   H15F15238   4.751   6.440   7.510  1.0352  0.0594  1.6583
  139OSM   H15G15239   4.684   6.277   7.472  0.6781 -0.6645  2.6977
  139OSM   C16F15240   4.622   6.350   7.660 -0.2714  0.1919 -0.2223
  139OSM   H16F15241   4.522   6.301   7.655 -0.1385  0.0210 -1.4699
  139OSM   H16G15242   4.619   6.445   7.717  2.3617  0.0721  0.2352
  139OSM   C17F15243   4.724   6.259   7.729  0.2970  0.5054 -0.0373
  139OSM   H17F15244   4.821   6.311   7.721  0.3533  0.1847 -1.5957
  139OSM   H17G15245   4.745   6.162   7.680  1.7822  0.2122  1.0993
  139OSM   C18F15246   4.695   6.250   7.878  0.5883 -0.0813 -0.2750
  139OSM   H18F15247   4.784   6.209   7.931  0.0453  1.3359  1.8505
  139OSM   H18G15248   4.609   6.181   7.891 -0.1247  0.6542 -1.0259
  139OSM   H18H15249   4.682   6.350   7.924  1.0921 -0.6221  1.1148
  140OSM      N15250   6.588   6.221   6.113  0.2276 -0.7408  0.6949
  140OSM    C1515251   6.597   6.333   6.011  0.6776  0.4397  0.0984
  140OSM   H15A15252   6.612   6.433   6.050  0.5509  0.1624  0.8813
  140OSM   H15B15253   6.519   6.333   5.936 -1.1920 -0.0190  1.9542
  140OSM   H15C15254   6.689   6.324   5.955  1.3098 -1.6690  1.3950
  140OSM    C1415255   6.452   6.229   6.176  0.0577  0.1412 -0.0298
  140OSM   H14A15256   6.371   6.225   6.104  0.6268  1.0571 -0.7332
  140OSM   H14B15257   6.441   6.323   6.228  1.1470  1.1169 -1.5036
  140OSM   H14C15258   6.440   6.136   6.230  0.2321  1.1631  1.8417
  140OSM    C1315259   6.596   6.096   6.039 -0.1516 -0.4257 -0.5486
  140OSM   H13A15260   6.621   6.014   6.105  0.0795  0.3260  0.3212
  140OSM   H13B15261   6.670   6.100   5.961  0.8158 -0.7408  0.3266
  140OSM   H13C15262   6.505   6.071   5.987 -0.2346 -1.3697  0.0222
  140OSM    C1215263   6.694   6.221   6.215 -0.5073  1.1413  0.4983
  140OSM   H12A15264   6.683   6.130   6.272  0.1738  0.8443  0.1619
  140OSM   H12B15265   6.681   6.302   6.286  0.0125  0.5994  1.2328
  140OSM    C1115266   6.839   6.224   6.169  0.0892 -0.2684  0.6351
  140OSM   H11A15267   6.853   6.156   6.082  1.1033  0.0698  0.5217
  140OSM   H11B15268   6.894   6.190   6.260  1.3714  1.3492  0.5129
  140OSM      P15269   7.018   6.371   6.053 -0.1791 -0.0096  0.1501
  140OSM    O1315270   7.061   6.247   5.977  0.8082  0.7420 -0.3309
  140OSM    O1415271   7.009   6.495   5.976 -0.1795 -0.0284  0.2472
  140OSM    O1115272   7.126   6.392   6.168  0.1059 -0.1668  0.5350
  140OSM    O1215273   6.883   6.352   6.131  0.5114  0.4514  0.0553
  140OSM    C1S15274   7.093   6.462   6.288 -0.3028 -0.4380  0.4038
  140OSM    H1S15275   6.999   6.520   6.285 -0.0839 -0.1083 -0.1594
  140OSM    H1T15276   7.175   6.526   6.327  1.0873 -1.8765 -0.0226
  140OSM     NF15277   7.059   6.442   6.531  0.1716  0.1847 -0.6605
  140OSM    HNF15278   7.132   6.466   6.595  0.4381 -0.3171 -0.7669
  140OSM    C2S15279   7.096   6.363   6.406  0.9897  0.1766  0.7160
  140OSM    H2S15280   7.012   6.291   6.392  0.0646  1.6581 -2.0298
  140OSM    C3S15281   7.234   6.288   6.405 -0.7388  0.4178  0.1085
  140OSM    H3S15282   7.326   6.351   6.405  1.1855 -2.2010  1.1578
  140OSM     O315283   7.239   6.184   6.298 -0.0225 -0.8673  0.0064
  140OSM    HO315284   7.161   6.205   6.247 -1.0128  0.0563  1.7945
  140OSM    C4S15285   7.235   6.216   6.540 -0.3517  0.0413  0.1322
  140OSM    H4S15286   7.155   6.141   6.546 -2.7398  2.5134  2.3354
  140OSM    C5S15287   7.313   6.235   6.645 -0.0672  0.4105 -0.2431
  140OSM    H5S15288   7.401   6.301   6.640  0.6697 -0.2499  2.4095
  140OSM    C6S15289   7.299   6.151   6.769  0.3382 -0.8904  0.4933
  140OSM    H6S15290   7.387   6.086   6.785  2.5849  1.9917  0.7571
  140OSM    H6T15291   7.210   6.084   6.767  1.1755 -2.0231 -1.0301
  140OSM    C7S15292   7.296   6.244   6.890  0.1537  0.6320  0.6731
  140OSM    H7S15293   7.206   6.310   6.886  0.3209  0.8939 -3.2207
  140OSM    H7T15294   7.383   6.311   6.906  1.8207 -1.5852  1.3235
  140OSM    C8S15295   7.304   6.156   7.018  0.2705  0.3438  0.6868
  140OSM    H8S15296   7.398   6.098   7.011 -0.3648 -0.6615  0.2032
  140OSM    H8T15297   7.219   6.085   7.024 -1.6925  2.3413 -1.4374
  140OSM    C9S15298   7.287   6.241   7.145  0.0898 -0.0067  0.5582
  140OSM    H9S15299   7.186   6.288   7.139 -0.4098 -1.1840 -0.5746
  140OSM    H9T15300   7.361   6.322   7.168  1.2431 -0.6591 -0.7368
  140OSM   C10S15301   7.295   6.145   7.265  0.0881 -0.8445 -0.3540
  140OSM   H10S15302   7.395   6.096   7.266 -0.2027 -1.4448 -0.5831
  140OSM   H10T15303   7.228   6.060   7.242  0.9622 -1.0411 -2.4388
  140OSM   C11S15304   7.278   6.204   7.404  0.4082 -0.2719 -0.0807
  140OSM   H11S15305   7.210   6.290   7.419 -0.0538 -0.3376 -1.5819
  140OSM   H11T15306   7.371   6.257   7.432  0.8287 -1.4389  0.8278
  140OSM   C12S15307   7.259   6.096   7.514  0.0546 -0.1911  0.1403
  140OSM   H12S15308   7.326   6.011   7.488 -1.8878 -1.7654 -0.0018
  140OSM   H12T15309   7.157   6.055   7.497 -0.2883  0.8677 -0.4079
  140OSM   C13S15310   7.261   6.126   7.661  0.1704 -0.1109 -0.7110
  140OSM   H13S15311   7.193   6.212   7.680  1.5139  0.7819  0.2062
  140OSM   H13T15312   7.359   6.161   7.700 -0.0724 -0.3255  0.1233
  140OSM   C14S15313   7.231   6.007   7.760 -0.2090 -0.7786  0.4078
  140OSM   H14S15314   7.304   5.924   7.749 -1.2790 -1.6392 -0.5314
  140OSM   H14T15315   7.133   5.963   7.732  0.7126 -3.0071  0.4908
  140OSM   C15S15316   7.221   6.048   7.904 -0.5213 -0.6666 -0.3857
  140OSM   H15S15317   7.133   6.116   7.910  0.2532  0.3319 -0.1878
  140OSM   H15T15318   7.312   6.100   7.941 -1.2402  0.0680  0.3965
  140OSM   C16S15319   7.209   5.922   8.001  0.0116  1.0463  0.3858
  140OSM   H16S15320   7.293   5.851   7.986 -1.8256 -0.6933 -2.7829
  140OSM   H16T15321   7.116   5.866   7.977  1.0463 -1.0216  1.0322
  140OSM   C17S15322   7.203   5.961   8.152 -0.3760 -0.2823 -0.3385
  140OSM   H17S15323   7.120   6.033   8.165 -1.1104 -0.9816 -1.1070
  140OSM   H17T15324   7.303   6.004   8.176 -0.6470 -0.4948  1.2740
  140OSM   C18S15325   7.182   5.836   8.236 -0.0296 -0.0415 -0.0561
  140OSM   H18S15326   7.183   5.860   8.345  1.1319 -1.3618  0.2562
  140OSM   H18T15327   7.266   5.766   8.213  1.9480  3.0655 -3.1743
  140OSM   H18U15328   7.086   5.790   8.206 -0.5924  1.1116 -0.0564
  140OSM    C1F15329   6.940   6.502   6.548  0.1199 -0.4197  0.6525
  140OSM     OF15330   6.840   6.458   6.490  0.0130  0.5209  0.3978
  140OSM    C2F15331   6.946   6.616   6.642  0.1873  0.4110 -1.0959
  140OSM    H2F15332   6.962   6.705   6.578 -1.7377  0.8409 -1.0264
  140OSM    H2G15333   7.036   6.596   6.704 -0.1623 -0.1440 -0.7623
  140OSM    C3F15334   6.812   6.629   6.729 -0.2196  0.1953 -0.1911
  140OSM    H3F15335   6.780   6.526   6.753  1.2996 -0.9647 -2.7058
  140OSM    H3G15336   6.741   6.677   6.659 -1.3293  0.7075  1.2361
  140OSM    C4F15337   6.823   6.706   6.864 -0.1733  0.5637  0.1209
  140OSM    H4F15338   6.717   6.705   6.898  0.0544  0.3661  0.8408
  140OSM    H4G15339   6.846   6.813   6.849  0.6063  0.2979 -0.7118
  140OSM    C5F15340   6.919   6.643   6.957 -0.7967  0.3536 -0.1470
  140OSM    H5F15341   7.018   6.693   6.950  0.7805 -2.1797  1.9147
  140OSM    H5G15342   6.929   6.534   6.935 -1.2996  0.4737 -1.0210
  140OSM    C6F15343   6.882   6.673   7.107 -0.1998  0.3043 -0.5107
  140OSM    H6F15344   6.774   6.657   7.125 -0.2246  0.9680 -0.0074
  140OSM    H6G15345   6.890   6.782   7.125  1.4054  0.1645 -0.1950
  140OSM    C7F15346   6.964   6.597   7.205 -0.6457 -1.2470  0.1185
  140OSM    H7F15347   7.073   6.616   7.195 -0.6530 -1.7179 -0.9317
  140OSM    H7G15348   6.967   6.492   7.170  1.7027 -0.9651 -0.6843
  140OSM    C8F15349   6.912   6.606   7.348  0.0725  0.5227 -0.3886
  140OSM    H8F15350   6.803   6.585   7.344  0.2436 -0.3135 -0.9817
  140OSM    H8G15351   6.916   6.711   7.384  4.7055  0.4578 -0.0585
  140OSM    C9F15352   6.979   6.510   7.438 -0.3743 -0.7893 -0.6461
  140OSM    H9F15353   6.926   6.415   7.454  0.2173 -1.2407 -1.3067
  140OSM   C10F15354   7.103   6.530   7.496  0.2647  0.2924  0.5714
  140OSM   H10F15355   7.135   6.465   7.579  1.2572  1.0822  0.8323
  140OSM   C11F15356   7.197   6.644   7.481  0.0527  0.4797 -0.4353
  140OSM   H11F15357   7.145   6.718   7.417  0.5573  0.8038 -0.4782
  140OSM   H11G15358   7.295   6.624   7.432  0.1742 -0.6559  0.2339
  140OSM   C12F15359   7.239   6.700   7.617  0.9198 -0.3426  0.0341
  140OSM   H12F15360   7.327   6.766   7.602  0.0117  1.1795  1.1140
  140OSM   H12G15361   7.274   6.616   7.682  0.4700 -0.2306  0.4312
  140OSM   C13F15362   7.135   6.761   7.704 -0.3522 -0.0334 -0.0509
  140OSM   H13F15363   7.042   6.699   7.701 -0.3416 -0.1273  1.1024
  140OSM   H13G15364   7.088   6.854   7.666  0.6163  0.0358 -1.1300
  140OSM   C14F15365   7.173   6.789   7.848 -0.2283  0.0801  0.4450
  140OSM   H14F15366   7.251   6.868   7.843  0.4356 -0.5509  0.7194
  140OSM   H14G15367   7.205   6.697   7.902 -1.3679  0.4568  1.8258
  140OSM   C15F15368   7.055   6.840   7.933  0.4996  0.1282  0.2578
  140OSM   H15F15369   6.987   6.754   7.954  0.2691  0.4290  0.7303
  140OSM   H15G15370   6.985   6.912   7.885 -0.9276 -1.3108  0.0661
  140OSM   C16F15371   7.108   6.896   8.061  0.0190  0.5679  0.0144
  140OSM   H16F15372   7.181   6.980   8.060  0.3367  0.3232  1.1426
  140OSM   H16G15373   7.147   6.816   8.128  0.4984  1.8670  1.3459
  140OSM   C17F15374   6.994   6.977   8.135  0.4627 -0.2168 -0.0033
  140OSM   H17F15375   6.899   6.921   8.118 -0.1947  0.9768 -0.4294
  140OSM   H17G15376   6.977   7.076   8.088 -1.0058  0.3620  1.6499
  140OSM   C18F15377   7.024   7.016   8.278  1.1039 -0.7978  0.2565
  140OSM   H18F15378   7.105   7.093   8.285  1.4892 -1.1970  0.2065
  140OSM   H18G15379   7.060   6.931   8.340  0.3808  0.6000  2.7497
  140OSM   H18H15380   6.934   7.065   8.321  0.6805 -0.7294 -0.6843
  141OSM      N15381   5.087   2.691   6.430  0.1199  0.0500 -0.4531
  141OSM    C1515382   5.092   2.778   6.545  0.6556 -0.3045  0.6452
  141OSM   H15A15383   5.178   2.770   6.611  0.1462  3.0968  1.9375
  141OSM   H15B15384   5.003   2.760   6.604 -0.5654 -0.2970 -1.1417
  141OSM   H15C15385   5.080   2.880   6.511 -2.1190 -0.1178  1.9309
  141OSM    C1415386   5.210   2.693   6.351 -0.2645  0.0550  0.1503
  141OSM   H14A15387   5.295   2.698   6.419 -0.3598  0.5347  0.2424
  141OSM   H14B15388   5.216   2.782   6.290  2.4156 -0.4701 -0.5097
  141OSM   H14C15389   5.220   2.610   6.284  0.3699  0.5320 -0.3642
  141OSM    C1315390   5.088   2.559   6.496  0.0529 -0.5159 -0.3140
  141OSM   H13A15391   5.014   2.547   6.573  1.7526 -0.2074  1.4577
  141OSM   H13B15392   5.187   2.545   6.537 -0.1849 -0.4866  0.2746
  141OSM   H13C15393   5.071   2.475   6.431 -2.9383 -0.2106 -0.0842
  141OSM    C1215394   4.949   2.687   6.362 -0.3090  0.0267 -0.4618
  141OSM   H12A15395   4.878   2.643   6.430  1.9925 -2.5461  0.4649
  141OSM   H12B15396   4.951   2.618   6.279  1.2326  1.1025 -1.3812
  141OSM    C1115397   4.887   2.827   6.325  0.2267 -0.2619  0.9850
  141OSM   H11A15398   4.962   2.891   6.273 -0.7319 -0.4413 -0.6786
  141OSM   H11B15399   4.867   2.871   6.426  3.6041 -1.7745  2.4602
  141OSM      P15400   4.633   2.857   6.244 -0.3166 -0.3805  0.2069
  141OSM    O1315401   4.624   3.006   6.220  0.7493  0.4909  0.3047
  141OSM    O1415402   4.569   2.768   6.145  0.1981 -0.1619  0.5559
  141OSM    O1115403   4.591   2.825   6.390  0.2235  0.1303 -0.2625
  141OSM    O1215404   4.785   2.809   6.229  0.3626  0.0229  0.0253
  141OSM    C1S15405   4.588   2.690   6.438 -0.0335  0.1296  0.6535
  141OSM    H1S15406   4.692   2.652   6.424 -0.4162 -0.1216 -2.0794
  141OSM    H1T15407   4.524   2.624   6.377 -1.3556  0.8215  1.2650
  141OSM     NF15408   4.615   2.543   6.641  0.2939  0.0201  0.4618
  141OSM    HNF15409   4.544   2.487   6.683 -0.4220  0.3186 -0.3230
  141OSM    C2S15410   4.572   2.676   6.594  0.3203  0.1699 -0.0893
  141OSM    H2S15411   4.639   2.751   6.641  1.4204  0.0236 -1.3705
  141OSM    C3S15412   4.420   2.715   6.628  0.5487 -0.2717 -0.0435
  141OSM    H3S15413   4.359   2.634   6.583 -1.1532  1.3693 -0.8376
  141OSM     O315414   4.382   2.835   6.562 -0.0051 -0.5996  0.6977
  141OSM    HO315415   4.446   2.843   6.492 -1.2246  0.3405 -0.3586
  141OSM    C4S15416   4.389   2.733   6.785 -0.3405 -0.7549  0.6013
  141OSM    H4S15417   4.366   2.644   6.847  1.9878 -0.2407  2.3142
  141OSM    C5S15418   4.420   2.849   6.843  0.3511 -0.4534 -0.3242
  141OSM    H5S15419   4.448   2.941   6.790 -1.0407  1.7634  2.4886
  141OSM    C6S15420   4.408   2.883   6.991 -0.5540 -0.0434 -0.3121
  141OSM    H6S15421   4.330   2.962   6.989 -0.0975  0.4093 -0.3163
  141OSM    H6T15422   4.499   2.938   7.024 -0.0912  0.1847 -1.8970
  141OSM    C7S15423   4.379   2.774   7.088  0.1036  0.3006  0.6622
  141OSM    H7S15424   4.447   2.690   7.066 -1.3200 -0.7217 -0.0038
  141OSM    H7T15425   4.281   2.740   7.047  0.4031 -1.2792  1.1800
  141OSM    C8S15426   4.361   2.826   7.229  0.3309  0.7183 -0.5145
  141OSM    H8S15427   4.278   2.898   7.219 -0.1151 -0.1161 -4.0427
  141OSM    H8T15428   4.451   2.887   7.252 -1.3835  2.1284  3.2495
  141OSM    C9S15429   4.329   2.715   7.326 -0.0488 -0.1790  0.2918
  141OSM    H9S15430   4.415   2.645   7.321  2.2433  2.2085  3.2665
  141OSM    H9T15431   4.238   2.652   7.308 -0.7246  0.3998  1.5842
  141OSM   C10S15432   4.320   2.785   7.462  0.3420 -0.0683  0.5666
  141OSM   H10S15433   4.238   2.858   7.452 -0.4803 -1.2031 -1.6087
  141OSM   H10T15434   4.416   2.840   7.473 -0.0354  0.4023  1.5626
  141OSM   C11S15435   4.307   2.680   7.571 -0.2378  0.2716 -0.1448
  141OSM   H11S15436   4.378   2.596   7.553 -2.0475 -0.9444 -2.0938
  141OSM   H11T15437   4.203   2.641   7.575 -0.2571  0.0001 -2.1223
  141OSM   C12S15438   4.323   2.732   7.713  0.1660 -0.0627 -0.1470
  141OSM   H12S15439   4.239   2.802   7.732 -0.2918 -1.0627  1.8567
  141OSM   H12T15440   4.421   2.778   7.739  0.0170  0.9022 -1.2231
  141OSM   C13S15441   4.311   2.623   7.819 -1.6100 -0.7094 -1.2539
  141OSM   H13S15442   4.256   2.535   7.779 -0.3172 -2.1336 -0.0667
  141OSM   H13T15443   4.265   2.660   7.913  0.3254 -0.5845 -0.2918
  141OSM   C14S15444   4.457   2.570   7.844 -0.4217 -0.1911 -0.5703
  141OSM   H14S15445   4.521   2.649   7.889 -1.1374 -1.2458  2.5833
  141OSM   H14T15446   4.491   2.538   7.743 -2.3096 -2.2203 -0.6389
  141OSM   C15S15447   4.462   2.463   7.957 -0.2479 -0.4856  0.1320
  141OSM   H15S15448   4.393   2.382   7.923 -0.5443  0.6337 -2.1115
  141OSM   H15T15449   4.407   2.508   8.042 -2.9235 -1.0798 -1.1807
  141OSM   C16S15450   4.603   2.414   7.999 -0.1535 -0.2875  0.9038
  141OSM   H16S15451   4.658   2.506   8.028 -0.7481  0.0485  0.9732
  141OSM   H16T15452   4.654   2.369   7.912 -1.0485  1.9603 -0.8865
  141OSM   C17S15453   4.604   2.315   8.113 -0.3739  0.0879 -1.2179
  141OSM   H17S15454   4.703   2.268   8.129 -1.6449 -1.9103  1.5515
  141OSM   H17T15455   4.529   2.235   8.094 -1.4626  0.1365  2.2900
  141OSM   C18S15456   4.548   2.380   8.242 -0.3113  0.0926  0.1059
  141OSM   H18S15457   4.603   2.475   8.259  3.4271 -1.6900 -0.8212
  141OSM   H18T15458   4.537   2.321   8.335 -3.9869  2.3829  1.3095
  141OSM   H18U15459   4.444   2.417   8.230  0.1814  1.9977  1.3895
  141OSM    C1F15460   4.746   2.523   6.658  0.1251 -0.2431 -0.4872
  141OSM     OF15461   4.832   2.601   6.622  0.2532  0.2832 -0.3648
  141OSM    C2F15462   4.786   2.398   6.731  0.5833 -0.5064  0.0550
  141OSM    H2F15463   4.775   2.318   6.655 -1.4967 -0.3121  0.1026
  141OSM    H2G15464   4.721   2.378   6.818 -1.1006  0.4774 -0.9433
  141OSM    C3F15465   4.929   2.416   6.785  0.3973  0.3743 -0.3366
  141OSM    H3F15466   4.935   2.507   6.848 -1.2716  0.9447 -0.9384
  141OSM    H3G15467   5.004   2.426   6.703  0.9201 -1.1413 -0.0833
  141OSM    C4F15468   4.985   2.295   6.865  0.2645 -0.8136 -0.0352
  141OSM    H4F15469   4.968   2.198   6.814 -1.0003 -0.4540 -0.3417
  141OSM    H4G15470   4.918   2.285   6.953 -3.3375 -0.4998 -2.4929
  141OSM    C5F15471   5.129   2.313   6.913  0.1177  0.2820  0.0511
  141OSM    H5F15472   5.118   2.408   6.970 -4.5877 -0.1034  0.1854
  141OSM    H5G15473   5.206   2.320   6.833  1.2343 -1.0492  0.9540
  141OSM    C6F15474   5.175   2.199   7.012 -0.1135 -1.0385 -0.0414
  141OSM    H6F15475   5.277   2.169   6.980 -0.1000  1.8305 -3.2352
  141OSM    H6G15476   5.104   2.113   7.007 -0.9724 -0.3100 -0.8770
  141OSM    C7F15477   5.179   2.244   7.159 -0.3804 -0.3712  0.7543
  141OSM    H7F15478   5.269   2.308   7.162 -0.2866 -0.5585  2.6317
  141OSM    H7G15479   5.224   2.168   7.226  2.6074  1.1846  0.6597
  141OSM    C8F15480   5.059   2.304   7.225  0.8582 -0.0017 -0.1980
  141OSM    H8F15481   5.016   2.380   7.157  0.2791 -0.7660 -0.7110
  141OSM    H8G15482   5.092   2.357   7.317  0.2553 -2.1108  1.3257
  141OSM    C9F15483   4.961   2.199   7.264  0.4248  0.1519 -0.1549
  141OSM    H9F15484   4.922   2.146   7.175 -1.1153 -0.3472  0.7894
  141OSM   C10F15485   4.915   2.168   7.382  0.3931 -0.6110  0.1919
  141OSM   H10F15486   4.859   2.073   7.393  1.2108 -1.0251  0.8669
  141OSM   C11F15487   4.957   2.245   7.505 -0.9749  0.0032 -0.4778
  141OSM   H11F15488   4.867   2.246   7.569  1.3356  0.8856  3.0354
  141OSM   H11G15489   4.973   2.351   7.476 -0.9076  0.3088  0.6511
  141OSM   C12F15490   5.082   2.206   7.597 -0.3811 -0.5565 -0.0327
  141OSM   H12F15491   5.164   2.174   7.530 -0.6115  0.2660 -0.7180
  141OSM   H12G15492   5.055   2.113   7.651 -0.8637 -1.7918 -2.2742
  141OSM   C13F15493   5.123   2.321   7.690 -0.3452  0.2835  0.1141
  141OSM   H13F15494   5.125   2.416   7.633 -0.5642  0.0421 -0.3094
  141OSM   H13G15495   5.225   2.292   7.723 -0.0093  0.0472 -1.0766
  141OSM   C14F15496   5.022   2.361   7.793  0.3114  0.3177 -0.0103
  141OSM   H14F15497   4.989   2.264   7.834  1.8392  0.4898  1.7976
  141OSM   H14G15498   4.933   2.413   7.751 -0.6958 -1.8312 -0.6335
  141OSM   C15F15499   5.083   2.445   7.905 -1.1036  0.3446  0.2632
  141OSM   H15F15500   5.055   2.552   7.905 -1.6195  0.2245 -0.7612
  141OSM   H15G15501   5.193   2.430   7.906 -1.2986 -1.2742  1.1925
  141OSM   C16F15502   5.041   2.395   8.044 -0.0639  0.0285 -0.2554
  141OSM   H16F15503   5.077   2.291   8.061 -0.0515  0.1643  0.6055
  141OSM   H16G15504   4.931   2.404   8.058 -0.1443 -1.6445  0.4331
  141OSM   C17F15505   5.106   2.483   8.157  0.4380 -0.0674  0.2824
  141OSM   H17F15506   5.061   2.584   8.150  0.4281 -0.0990 -0.1465
  141OSM   H17G15507   5.216   2.483   8.143  0.5421 -0.1958  1.0596
  141OSM   C18F15508   5.077   2.414   8.294 -0.9274 -0.1110  0.2473
  141OSM   H18F15509   5.124   2.452   8.387  0.3303 -1.2539  0.1227
  141OSM   H18G15510   5.109   2.308   8.289 -1.2998 -0.2385  0.5721
  141OSM   H18H15511   4.971   2.401   8.322 -0.5373 -1.2645  1.2447
  142OSM      N15512   2.692   3.997   6.097 -0.3023 -0.1478 -0.1500
  142OSM    C1515513   2.701   4.058   5.970 -0.0404  0.3766  0.2275
  142OSM   H15A15514   2.672   4.161   5.963 -0.5316  0.1150 -2.5272
  142OSM   H15B15515   2.635   4.007   5.901 -0.5043 -1.5942  2.0093
  142OSM   H15C15516   2.805   4.061   5.942 -0.2526  4.1088 -0.6783
  142OSM    C1415517   2.559   4.017   6.159 -0.3391  0.0723  0.4953
  142OSM   H14A15518   2.531   4.121   6.152  0.3054  0.1821 -0.8582
  142OSM   H14B15519   2.553   3.984   6.261  1.7779  0.4161  0.7801
  142OSM   H14C15520   2.478   3.968   6.106 -1.1611  1.4763  0.4067
  142OSM    C1315521   2.713   3.847   6.086 -0.1367 -0.2505 -0.2892
  142OSM   H13A15522   2.720   3.797   6.182 -2.2495 -1.0534 -0.4819
  142OSM   H13B15523   2.805   3.828   6.033  0.1185 -0.8825  0.3686
  142OSM   H13C15524   2.631   3.801   6.032 -1.7249  1.4684  0.5511
  142OSM    C1215525   2.788   4.072   6.187 -0.5767  0.5401  0.7461
  142OSM   H12A15526   2.802   4.012   6.276  1.4231  0.1626  0.2130
  142OSM   H12B15527   2.738   4.164   6.214  1.0311  1.1774  1.6157
  142OSM    C1115528   2.918   4.125   6.119 -0.2290  0.5931  0.3293
  142OSM   H11A15529   2.979   4.178   6.195 -0.8098  3.2628 -0.9077
  142OSM   H11B15530   2.906   4.206   6.043 -0.6299  0.5599  0.3537
  142OSM      P15531   3.056   3.900   6.136 -0.1949 -0.7146 -0.2764
  142OSM    O1315532   3.005   3.772   6.081 -0.2766 -0.2409 -0.1791
  142OSM    O1415533   3.201   3.912   6.126  0.0420  0.4600  0.7098
  142OSM    O1115534   3.006   3.907   6.292  0.5178  0.2475  0.7972
  142OSM    O1215535   2.989   4.016   6.060 -0.0134 -0.4533  0.3739
  142OSM    C1S15536   3.068   3.979   6.399 -0.1881 -0.4292  0.6830
  142OSM    H1S15537   3.109   4.076   6.364  1.0565 -0.9844  0.5563
  142OSM    H1T15538   3.150   3.914   6.435  0.4323 -0.9131 -1.4506
  142OSM     NF15539   3.049   4.064   6.630 -0.0835 -0.1219 -0.0207
  142OSM    HNF15540   3.081   4.004   6.702 -1.8083 -1.4059 -0.2497
  142OSM    C2S15541   2.975   4.002   6.528 -0.5103  0.1771 -0.4031
  142OSM    H2S15542   2.893   4.068   6.492 -1.2959 -1.2492 -1.3279
  142OSM    C3S15543   2.918   3.862   6.564  0.3099  0.7888  0.9102
  142OSM    H3S15544   3.007   3.799   6.585  2.7031  4.1866  1.6801
  142OSM     O315545   2.838   3.807   6.464 -0.3296 -0.1961  0.3882
  142OSM    HO315546   2.881   3.846   6.387 -1.2492 -0.2636 -0.1828
  142OSM    C4S15547   2.842   3.877   6.698 -0.6904 -0.5775  0.3396
  142OSM    H4S15548   2.914   3.871   6.781 -1.3501  1.7307  1.1499
  142OSM    C5S15549   2.714   3.896   6.716 -0.6461  0.1896  0.1723
  142OSM    H5S15550   2.651   3.894   6.625 -0.2471 -0.2623 -0.0936
  142OSM    C6S15551   2.648   3.908   6.852  0.0404  0.0761 -0.1030
  142OSM    H6S15552   2.571   3.827   6.846 -1.2623  1.3047 -0.5818
  142OSM    H6T15553   2.595   4.005   6.859  0.9452  0.5077  1.2016
  142OSM    C7S15554   2.748   3.888   6.981  0.4256  0.1328  0.9702
  142OSM    H7S15555   2.830   3.963   6.971  0.1576  0.5829  1.9771
  142OSM    H7T15556   2.790   3.785   6.976  1.2305  0.4550  0.8169
  142OSM    C8S15557   2.668   3.904   7.116 -0.0158  0.2129  0.0356
  142OSM    H8S15558   2.572   3.850   7.106  0.1237 -0.2171  0.9019
  142OSM    H8T15559   2.644   4.012   7.126 -2.8079 -0.3550  0.1162
  142OSM    C9S15560   2.755   3.858   7.229  0.3049 -0.5723 -0.6124
  142OSM    H9S15561   2.842   3.923   7.249 -0.0916 -0.1825 -0.1253
  142OSM    H9T15562   2.780   3.751   7.210  0.3885 -0.6509 -0.0826
  142OSM   C10S15563   2.674   3.865   7.368  0.0760  0.0725 -0.5347
  142OSM   H10S15564   2.595   3.788   7.374  0.5482 -0.3984 -0.1684
  142OSM   H10T15565   2.630   3.967   7.370 -2.4126 -0.9443 -0.2513
  142OSM   C11S15566   2.773   3.834   7.487  0.2719  0.2424  0.7044
  142OSM   H11S15567   2.857   3.907   7.494  0.8105 -0.3701  0.7630
  142OSM   H11T15568   2.806   3.730   7.466 -2.8252 -0.5928 -0.5288
  142OSM   C12S15569   2.712   3.829   7.619  0.0215 -0.2819 -0.2269
  142OSM   H12S15570   2.629   3.755   7.619 -0.4893  0.2847 -0.0157
  142OSM   H12T15571   2.663   3.927   7.636 -0.8458 -0.4964 -1.3226
  142OSM   C13S15572   2.820   3.795   7.729 -0.0157  0.6740  0.6582
  142OSM   H13S15573   2.877   3.890   7.727 -1.1736  1.4086  1.5100
  142OSM   H13T15574   2.884   3.710   7.696 -0.8858  0.2976 -0.0788
  142OSM   C14S15575   2.754   3.779   7.868 -0.1818 -0.1778 -0.0410
  142OSM   H14S15576   2.708   3.678   7.871  0.4918 -0.4791  1.8544
  142OSM   H14T15577   2.670   3.850   7.889  0.4497  0.4235  0.5297
  142OSM   C15S15578   2.850   3.780   7.990  0.1054 -1.2551  0.1986
  142OSM   H15S15579   2.896   3.881   8.002 -0.9249 -1.0219  3.1010
  142OSM   H15T15580   2.928   3.702   7.978 -0.1270 -1.2943 -1.1759
  142OSM   C16S15581   2.770   3.750   8.121  0.7980  0.7189 -0.3466
  142OSM   H16S15582   2.725   3.649   8.111 -3.0405  2.0929  1.0649
  142OSM   H16T15583   2.693   3.825   8.150  1.6881  1.4553  0.2050
  142OSM   C17S15584   2.866   3.738   8.245  0.2014 -0.4510  1.0698
  142OSM   H17S15585   2.810   3.754   8.339  1.4323 -1.0552  1.9462
  142OSM   H17T15586   2.946   3.813   8.222  1.3803 -0.9838  3.1695
  142OSM   C18S15587   2.936   3.603   8.253 -0.6857  0.2444  0.0067
  142OSM   H18S15588   2.988   3.588   8.156  0.6904  1.0341  0.5886
  142OSM   H18T15589   2.868   3.519   8.278 -0.9098  0.2981 -0.4017
  142OSM   H18U15590   3.014   3.598   8.332 -2.3405 -2.6433  1.6170
  142OSM    C1F15591   3.101   4.191   6.621 -0.2027  0.0417  0.0086
  142OSM     OF15592   3.088   4.256   6.520  0.2199 -0.2067  0.2702
  142OSM    C2F15593   3.168   4.239   6.748  0.0015 -0.1867  0.3650
  142OSM    H2F15594   3.275   4.210   6.761 -0.4777 -2.0613  0.4114
  142OSM    H2G15595   3.111   4.200   6.835 -0.5561  0.0107  0.0917
  142OSM    C3F15596   3.148   4.393   6.752  0.0469 -0.0403  0.3207
  142OSM    H3F15597   3.041   4.420   6.754  0.0109 -0.1549 -0.0095
  142OSM    H3G15598   3.193   4.440   6.662  2.7272 -0.4590  1.3494
  142OSM    C4F15599   3.214   4.445   6.883  0.4998 -0.4575  0.5466
  142OSM    H4F15600   3.242   4.364   6.953 -1.6767 -0.8492  1.0245
  142OSM    H4G15601   3.135   4.509   6.929 -0.3587  0.0938 -1.5689
  142OSM    C5F15602   3.331   4.535   6.864 -0.1406  0.5755 -0.1883
  142OSM    H5F15603   3.307   4.615   6.791 -1.5182  1.1323  0.8175
  142OSM    H5G15604   3.412   4.470   6.824 -0.3811  0.0632  0.1363
  142OSM    C6F15605   3.403   4.607   6.980  0.1168 -0.4856 -1.1227
  142OSM    H6F15606   3.336   4.683   7.025 -0.3825 -1.1420 -0.7281
  142OSM    H6G15607   3.491   4.666   6.948  0.2770  0.5040  1.0099
  142OSM    C7F15608   3.449   4.510   7.093  0.3083 -0.2950  0.0599
  142OSM    H7F15609   3.480   4.417   7.040 -1.0658 -0.3126 -0.7488
  142OSM    H7G15610   3.360   4.486   7.155 -0.4327  1.3826 -0.2976
  142OSM    C8F15611   3.562   4.554   7.185 -0.3846 -0.3588 -0.8744
  142OSM    H8F15612   3.542   4.653   7.232  2.0561 -0.1574 -0.1282
  142OSM    H8G15613   3.652   4.570   7.122  1.0993  2.2249  1.6518
  142OSM    C9F15614   3.606   4.453   7.287  0.1733 -0.0502  0.7902
  142OSM    H9F15615   3.592   4.350   7.250 -0.7381  1.0922 -2.3446
  142OSM   C10F15616   3.649   4.467   7.414 -0.5000 -0.5267 -0.5059
  142OSM   H10F15617   3.669   4.382   7.481  2.2456  1.4298  1.3820
  142OSM   C11F15618   3.675   4.607   7.475 -0.3778 -0.1305  0.0147
  142OSM   H11F15619   3.616   4.689   7.428  0.7811 -0.6348 -2.4912
  142OSM   H11G15620   3.777   4.648   7.462 -1.2630  1.7831 -1.2568
  142OSM   C12F15621   3.636   4.624   7.627 -0.5016  0.4760  0.8832
  142OSM   H12F15622   3.536   4.584   7.656 -1.2509  2.9770  1.9754
  142OSM   H12G15623   3.639   4.730   7.661  0.5551  0.6027  0.4203
  142OSM   C13F15624   3.744   4.554   7.721 -0.5543  0.6971  0.8595
  142OSM   H13F15625   3.849   4.568   7.689 -0.9945  1.6280 -0.2490
  142OSM   H13G15626   3.718   4.446   7.717  0.8676  0.3625 -0.3611
  142OSM   C14F15627   3.724   4.597   7.871 -0.5063 -0.6576  1.2253
  142OSM   H14F15628   3.616   4.585   7.892 -0.4474 -1.3613  1.1345
  142OSM   H14G15629   3.756   4.703   7.880 -0.4304 -0.3858 -1.3074
  142OSM   C15F15630   3.804   4.518   7.964  0.1602  0.2235  0.2484
  142OSM   H15F15631   3.909   4.524   7.928  0.2444  0.2112  0.4857
  142OSM   H15G15632   3.781   4.409   7.954 -0.8598  0.5095 -0.6284
  142OSM   C16F15633   3.813   4.557   8.114 -1.1885 -0.2658  0.2618
  142OSM   H16F15634   3.774   4.662   8.110 -0.6788 -0.0704  0.3556
  142OSM   H16G15635   3.921   4.552   8.140 -1.6062  0.6928  2.3553
  142OSM   C17F15636   3.723   4.473   8.210 -0.2353  0.2680  0.7387
  142OSM   H17F15637   3.751   4.366   8.201  1.4636  0.7228  0.1560
  142OSM   H17G15638   3.618   4.476   8.176  0.2718 -0.3544 -0.9464
  142OSM   C18F15639   3.731   4.509   8.362 -0.2757 -0.2678  0.4277
  142OSM   H18F15640   3.697   4.612   8.386 -0.9322 -0.1934 -0.7951
  142OSM   H18G15641   3.832   4.500   8.408 -0.7880  1.5765  2.0762
  142OSM   H18H15642   3.657   4.449   8.420 -1.8361 -1.5703 -2.6966
  143OSM      N15643   0.588   6.554   5.982 -0.2379 -0.4045  0.2720
  143OSM    C1515644   0.555   6.691   6.036 -0.3329 -0.3868  0.4710
  143OSM   H15A15645   0.615   6.707   6.124 -1.8503 -1.3694  1.7377
  143OSM   H15B15646   0.452   6.688   6.068 -0.2510 -1.5568  0.6737
  143OSM   H15C15647   0.571   6.768   5.962  0.0710  0.1313  1.0791
  143OSM    C1415648   0.480   6.523   5.879  1.0227 -0.1496  0.4073
  143OSM   H14A15649   0.485   6.424   5.836 -3.0216 -0.5270  0.4536
  143OSM   H14B15650   0.478   6.600   5.803  0.6142 -0.5526  0.0080
  143OSM   H14C15651   0.384   6.517   5.929  1.2936  1.0084  1.1119
  143OSM    C1315652   0.715   6.566   5.901  0.0718  0.2636 -0.0098
  143OSM   H13A15653   0.801   6.580   5.966 -0.2621 -0.2078  0.5464
  143OSM   H13B15654   0.712   6.654   5.838 -1.6383  0.3314  0.1195
  143OSM   H13C15655   0.737   6.480   5.840  0.2497  0.3849 -0.1195
  143OSM    C1215656   0.596   6.444   6.084 -0.1184  0.0054  0.1396
  143OSM   H12A15657   0.622   6.351   6.035 -2.3018 -0.6732  0.1822
  143OSM   H12B15658   0.496   6.438   6.126 -0.2096  2.8915  0.5229
  143OSM    C1115659   0.683   6.476   6.215 -0.3813  0.3882  1.6603
  143OSM   H11A15660   0.669   6.388   6.282 -0.9020 -0.3973  0.5532
  143OSM   H11B15661   0.646   6.562   6.276 -2.5126  0.6255  0.1456
  143OSM      P15662   0.913   6.354   6.144  0.0200 -0.1799  0.1138
  143OSM    O1315663   0.837   6.234   6.112 -0.1269  0.7225  0.1826
  143OSM    O1415664   1.017   6.394   6.052 -0.4380  0.1122 -0.7060
  143OSM    O1115665   0.985   6.335   6.279  0.4556  0.4307 -0.1689
  143OSM    O1215666   0.821   6.483   6.182  0.1302  0.1457  0.6195
  143OSM    C1S15667   1.011   6.443   6.370  0.2415 -0.1046 -0.0885
  143OSM    H1S15668   0.922   6.463   6.435  1.6126 -0.9757  2.1686
  143OSM    H1T15669   1.039   6.541   6.325 -1.5690 -0.3184 -1.8226
  143OSM     NF15670   1.160   6.533   6.547 -0.0975 -0.0255  0.3923
  143OSM    HNF15671   1.220   6.587   6.489 -1.3451  0.2450 -0.7073
  143OSM    C2S15672   1.127   6.408   6.472 -0.1147  0.0271 -0.1876
  143OSM    H2S15673   1.092   6.328   6.541 -0.3053 -0.4129 -0.7859
  143OSM    C3S15674   1.251   6.346   6.399 -0.0289 -0.6990  0.4386
  143OSM    H3S15675   1.301   6.412   6.325  1.4283 -0.5835  1.4716
  143OSM     O315676   1.217   6.230   6.322  0.2492 -0.3965 -0.3804
  143OSM    HO315677   1.125   6.249   6.299  0.1698 -1.6199 -1.1897
  143OSM    C4S15678   1.351   6.309   6.503  0.6740 -0.2544  0.6855
  143OSM    H4S15679   1.387   6.399   6.556 -0.3259  0.4117  0.2792
  143OSM    C5S15680   1.387   6.179   6.544  0.2081 -0.4869 -0.6064
  143OSM    H5S15681   1.343   6.086   6.503  0.3740 -0.5285 -0.6902
  143OSM    C6S15682   1.491   6.175   6.651 -0.0772 -0.1991 -0.3242
  143OSM    H6S15683   1.571   6.249   6.629  1.2598 -1.5828 -0.2500
  143OSM    H6T15684   1.537   6.075   6.650 -0.1663 -0.2460 -1.9079
  143OSM    C7S15685   1.426   6.195   6.792  0.0538 -0.0886 -0.1416
  143OSM    H7S15686   1.348   6.117   6.806 -0.6299  0.6270  0.1309
  143OSM    H7T15687   1.380   6.296   6.793  0.9289  0.3302 -0.4952
  143OSM    C8S15688   1.531   6.177   6.905  0.3995 -0.3108  0.0111
  143OSM    H8S15689   1.603   6.261   6.897  0.6891 -0.2223  2.5655
  143OSM    H8T15690   1.584   6.081   6.886  2.4383  0.9725 -1.2670
  143OSM    C9S15691   1.474   6.169   7.046 -0.4109  0.1218 -1.0712
  143OSM    H9S15692   1.383   6.106   7.057 -0.5306  0.4500 -0.1002
  143OSM    H9T15693   1.441   6.268   7.083 -1.7153  0.1587 -2.2410
  143OSM   C10S15694   1.582   6.134   7.145 -0.0785 -0.0301 -0.4297
  143OSM   H10S15695   1.662   6.211   7.143 -1.4819  1.6321  1.9733
  143OSM   H10T15696   1.624   6.035   7.117  1.6438  0.4958  0.1898
  143OSM   C11S15697   1.529   6.156   7.285 -0.0616 -0.1405  0.7732
  143OSM   H11S15698   1.430   6.106   7.290 -1.1720  1.8788 -0.0200
  143OSM   H11T15699   1.525   6.262   7.317  1.4579 -0.0846  0.8759
  143OSM   C12S15700   1.637   6.094   7.382  0.2672 -0.7416  0.0182
  143OSM   H12S15701   1.742   6.130   7.373 -0.0100  1.5367  3.6461
  143OSM   H12T15702   1.641   5.985   7.363 -1.4752 -0.3530 -3.3618
  143OSM   C13S15703   1.595   6.123   7.529  0.0444 -0.3450 -0.0234
  143OSM   H13S15704   1.634   6.028   7.571 -0.3836 -1.0962 -1.2661
  143OSM   H13T15705   1.485   6.123   7.547  0.3153 -0.7966  1.8649
  143OSM   C14S15706   1.651   6.254   7.593 -0.3021 -0.1998  0.6434
  143OSM   H14S15707   1.630   6.335   7.520 -1.8360  0.4971  1.8164
  143OSM   H14T15708   1.761   6.250   7.607 -0.3762  1.2699  1.8113
  143OSM   C15S15709   1.595   6.295   7.726 -0.1302 -0.6811  0.7080
  143OSM   H15S15710   1.673   6.336   7.793  0.4859 -0.3619 -0.1793
  143OSM   H15T15711   1.548   6.209   7.778 -1.2811 -0.4508  0.1075
  143OSM   C16S15712   1.494   6.413   7.718 -0.6604  0.2887  0.2588
  143OSM   H16S15713   1.403   6.358   7.685 -0.5162 -0.8171  1.6122
  143OSM   H16T15714   1.526   6.482   7.638  2.3290 -2.3533 -1.0172
  143OSM   C17S15715   1.466   6.477   7.856  0.0869  0.9104 -0.4893
  143OSM   H17S15716   1.564   6.492   7.906  0.5608 -2.2952 -0.2555
  143OSM   H17T15717   1.418   6.396   7.915  0.6333 -0.2727 -1.6207
  143OSM   C18S15718   1.378   6.607   7.844  0.6459 -0.0918  0.1876
  143OSM   H18S15719   1.271   6.578   7.841  0.2040  1.5257 -0.8019
  143OSM   H18T15720   1.398   6.661   7.749  0.9277  0.9331  0.8180
  143OSM   H18U15721   1.407   6.665   7.934  0.8772  0.5158 -0.2725
  143OSM    C1F15722   1.083   6.580   6.650  0.3054 -0.2305  0.3416
  143OSM     OF15723   0.999   6.510   6.692  0.4035  0.6742 -0.3954
  143OSM    C2F15724   1.116   6.723   6.697  0.1661  0.1605  0.0363
  143OSM    H2F15725   1.029   6.764   6.753 -1.1497 -0.4787 -1.4655
  143OSM    H2G15726   1.112   6.789   6.607 -0.4968 -1.0996 -0.8956
  143OSM    C3F15727   1.237   6.715   6.789 -0.0372 -0.0170  0.0450
  143OSM    H3F15728   1.271   6.820   6.797  1.0003 -0.2284 -1.2680
  143OSM    H3G15729   1.314   6.657   6.735 -1.4249 -0.5393 -1.4658
  143OSM    C4F15730   1.206   6.664   6.933 -0.0444 -0.1375 -0.6642
  143OSM    H4F15731   1.142   6.574   6.925 -0.5168  0.0981  0.3457
  143OSM    H4G15732   1.152   6.739   6.995  1.3835 -0.3890  0.9557
  143OSM    C5F15733   1.338   6.625   7.011  0.5792  0.3450 -0.0289
  143OSM    H5F15734   1.409   6.708   6.993 -0.9568  2.1867  1.9390
  143OSM    H5G15735   1.373   6.540   6.947 -1.0218  1.8517 -3.1673
  143OSM    C6F15736   1.318   6.590   7.159 -0.4179  0.2353 -0.7857
  143OSM    H6F15737   1.261   6.495   7.167  0.9475 -0.4972  0.6856
  143OSM    H6G15738   1.256   6.663   7.216  0.3555 -0.0939  0.5257
  143OSM    C7F15739   1.452   6.585   7.236 -0.4442  0.4791  0.3609
  143OSM    H7F15740   1.519   6.671   7.214 -0.3995  0.4624  0.4312
  143OSM    H7G15741   1.494   6.486   7.206 -1.2438 -0.1045  1.1030
  143OSM    C8F15742   1.441   6.580   7.391  0.0388  0.1197  0.2245
  143OSM    H8F15743   1.414   6.681   7.429 -2.5788 -1.1080  1.9518
  143OSM    H8G15744   1.541   6.549   7.429 -0.3088  0.5489  1.5439
  143OSM    C9F15745   1.337   6.485   7.440  0.0932  0.2660  0.7613
  143OSM    H9F15746   1.368   6.381   7.425 -0.6784  0.2077 -0.6128
  143OSM   C10F15747   1.226   6.510   7.511  0.2698  0.3724 -0.2255
  143OSM   H10F15748   1.161   6.423   7.528  2.7765 -1.6441 -0.3868
  143OSM   C11F15749   1.178   6.647   7.540  0.4734  0.0446  0.0393
  143OSM   H11F15750   1.158   6.713   7.453  0.6051  1.4473  1.0373
  143OSM   H11G15751   1.257   6.702   7.596 -0.4283 -0.8778  2.3782
  143OSM   C12F15752   1.057   6.669   7.645 -0.2250  0.4972  0.5703
  143OSM   H12F15753   1.070   6.597   7.728  3.2429 -0.5256 -0.7025
  143OSM   H12G15754   0.967   6.646   7.583  0.9039  0.2015 -1.0004
  143OSM   C13F15755   1.047   6.804   7.706 -0.2528 -0.2659 -0.4280
  143OSM   H13F15756   1.027   6.881   7.629  2.7684  2.3267  1.1471
  143OSM   H13G15757   1.139   6.837   7.759 -1.5716  1.9332  0.6394
  143OSM   C14F15758   0.932   6.819   7.801 -0.2838 -0.3364 -1.0781
  143OSM   H14F15759   0.844   6.778   7.746  0.7448 -1.4467 -1.9382
  143OSM   H14G15760   0.912   6.928   7.808  1.8753  0.0673 -0.4478
  143OSM   C15F15761   0.944   6.759   7.941  0.5143  0.1025 -0.4788
  143OSM   H15F15762   1.028   6.806   7.997 -0.7325 -1.3375  2.8851
  143OSM   H15G15763   0.962   6.650   7.932 -3.2341 -0.4808 -3.1092
  143OSM   C16F15764   0.813   6.788   8.010  0.4711 -0.0259  0.3957
  143OSM   H16F15765   0.730   6.738   7.955  1.1216 -2.9731  1.8798
  143OSM   H16G15766   0.800   6.898   8.017  0.8702  0.0937 -0.6491
  143OSM   C17F15767   0.808   6.723   8.146 -0.0489 -0.0472  0.0133
  143OSM   H17F15768   0.892   6.754   8.212  2.1564  0.9659 -3.0342
  143OSM   H17G15769   0.816   6.613   8.133  0.7389  0.2972 -3.2152
  143OSM   C18F15770   0.672   6.749   8.209 -0.0016  0.1270 -0.5668
  143OSM   H18F15771   0.586   6.726   8.143 -1.7672 -1.7230  2.1545
  143OSM   H18G15772   0.665   6.855   8.240 -1.8867 -0.1690  0.1922
  143OSM   H18H15773   0.652   6.690   8.301 -1.5246 -1.7313 -1.9991
  144OSM      N15774   3.866   0.773   5.986  0.8542 -0.0552 -0.0126
  144OSM    C1515775   3.743   0.788   5.899 -0.6709  0.1693  0.5159
  144OSM   H15A15776   3.687   0.878   5.917 -1.5803 -0.0981 -0.8334
  144OSM   H15B15777   3.680   0.701   5.903 -0.6476 -0.4564 -5.1646
  144OSM   H15C15778   3.772   0.792   5.796  0.1974  0.7295  0.7689
  144OSM    C1415779   3.946   0.653   5.946 -0.3119  0.4632 -0.2627
  144OSM   H14A15780   4.038   0.658   6.002 -0.9561 -0.2885  0.9107
  144OSM   H14B15781   3.963   0.664   5.840 -1.2104 -1.1439 -0.6019
  144OSM   H14C15782   3.890   0.561   5.959  1.1205 -0.1229  2.4533
  144OSM    C1315783   3.944   0.900   5.952 -0.0106  0.4970 -0.4405
  144OSM   H13A15784   4.035   0.914   6.008 -0.9081 -0.1606  1.2914
  144OSM   H13B15785   3.877   0.985   5.955 -1.8231 -0.8850  0.5361
  144OSM   H13C15786   3.980   0.895   5.851  0.5608 -0.2705 -0.2087
  144OSM    C1215787   3.830   0.767   6.136  0.1751 -0.1580  0.4394
  144OSM   H12A15788   3.920   0.761   6.194  1.6962  1.5886 -1.5740
  144OSM   H12B15789   3.776   0.677   6.163  0.0555  0.3313  1.9111
  144OSM    C1115790   3.748   0.892   6.194 -0.5191 -0.4009  0.6421
  144OSM   H11A15791   3.800   0.989   6.176  0.5191 -1.0153  0.2342
  144OSM   H11B15792   3.758   0.883   6.305  0.8483 -2.2946  0.4150
  144OSM      P15793   3.491   0.823   6.224 -0.2465 -0.3262  0.3940
  144OSM    O1315794   3.358   0.882   6.187  0.2050 -0.1860  0.3564
  144OSM    O1415795   3.513   0.682   6.183  0.1940 -0.0756  0.0371
  144OSM    O1115796   3.516   0.854   6.374  0.3630  0.2546  0.1238
  144OSM    O1215797   3.611   0.901   6.147 -0.5869  0.3657 -0.2215
  144OSM    C1S15798   3.487   0.983   6.418  0.1019  0.1151  0.7462
  144OSM    H1S15799   3.412   1.040   6.360  2.3859  0.3665 -2.1659
  144OSM    H1T15800   3.579   1.044   6.407 -0.0908  0.1418 -0.8475
  144OSM     NF15801   3.442   1.120   6.613 -0.1033  0.4132  0.6692
  144OSM    HNF15802   3.520   1.157   6.663 -2.1974  2.7208  2.4568
  144OSM    C2S15803   3.451   0.986   6.567  0.8463 -0.0459  0.8667
  144OSM    H2S15804   3.348   0.946   6.582  1.2817 -1.2402  0.8122
  144OSM    C3S15805   3.550   0.904   6.654  0.0663  0.1630 -0.0229
  144OSM    H3S15806   3.653   0.917   6.614 -0.7373 -0.6864 -2.5845
  144OSM     O315807   3.542   0.768   6.618 -0.2176 -0.3268 -0.0334
  144OSM    HO315808   3.513   0.774   6.527 -0.3220 -2.3736 -0.1827
  144OSM    C4S15809   3.531   0.931   6.801  0.0715 -0.2184 -0.4684
  144OSM    H4S15810   3.612   0.997   6.838 -1.5819  1.2722  0.6844
  144OSM    C5S15811   3.430   0.893   6.887 -0.0605 -0.3762 -0.1235
  144OSM    H5S15812   3.341   0.833   6.862 -1.0811  0.8342  0.5020
  144OSM    C6S15813   3.425   0.943   7.035 -0.2457  0.0828  0.1235
  144OSM    H6S15814   3.398   1.050   7.023 -2.2885 -0.5144 -0.9987
  144OSM    H6T15815   3.529   0.948   7.074  0.0926  1.9890 -0.9135
  144OSM    C7S15816   3.318   0.885   7.127  1.2835  0.4143 -0.1051
  144OSM    H7S15817   3.322   0.775   7.144  0.9302  0.5433  0.9144
  144OSM    H7T15818   3.214   0.911   7.098  0.5236  0.5151  2.4397
  144OSM    C8S15819   3.349   0.950   7.266  0.1566  0.1649 -0.4975
  144OSM    H8S15820   3.331   1.059   7.257 -1.0174  0.0500  0.2194
  144OSM    H8T15821   3.456   0.933   7.291  0.4204  1.5728 -0.5775
  144OSM    C9S15822   3.268   0.890   7.385 -0.0570 -0.0334 -0.0486
  144OSM    H9S15823   3.299   0.783   7.388 -1.3579 -0.6406 -3.4730
  144OSM    H9T15824   3.163   0.883   7.350 -0.5746  1.8297  0.9873
  144OSM   C10S15825   3.292   0.964   7.516  0.0060 -0.1174  0.2362
  144OSM   H10S15826   3.243   0.900   7.593  0.7721  1.0747  1.7846
  144OSM   H10T15827   3.242   1.063   7.510  0.6045  0.2542  1.0390
  144OSM   C11S15828   3.443   0.982   7.544  0.0095 -0.7418 -0.1221
  144OSM   H11S15829   3.460   1.071   7.479 -2.0288  0.1300  0.4612
  144OSM   H11T15830   3.497   0.892   7.508 -1.1619 -1.4063 -0.2593
  144OSM   C12S15831   3.459   1.004   7.698  0.0934 -0.7370 -0.5174
  144OSM   H12S15832   3.383   1.079   7.731  1.7076  1.0778 -0.7432
  144OSM   H12T15833   3.552   1.061   7.719  0.2144 -0.9302 -0.5261
  144OSM   C13S15834   3.460   0.883   7.791  0.3306 -0.2183  0.2793
  144OSM   H13S15835   3.567   0.866   7.815  1.1819  1.3135 -2.0716
  144OSM   H13T15836   3.430   0.792   7.735  2.0343 -0.7327  0.1328
  144OSM   C14S15837   3.379   0.900   7.917 -0.9064  0.7434 -0.2643
  144OSM   H14S15838   3.274   0.931   7.896 -0.4353  0.1183 -4.3716
  144OSM   H14T15839   3.433   0.979   7.973 -0.2168  0.8398 -1.0469
  144OSM   C15S15840   3.383   0.773   8.002  0.2957 -0.4161 -0.5655
  144OSM   H15S15841   3.480   0.721   7.990  1.5033  1.8765 -1.3760
  144OSM   H15T15842   3.294   0.710   7.979  1.5314 -3.0026  1.2174
  144OSM   C16S15843   3.387   0.800   8.159 -0.2171  0.1725  0.7670
  144OSM   H16S15844   3.371   0.697   8.195 -2.2706  0.9438  2.2664
  144OSM   H16T15845   3.292   0.849   8.190  0.0412  1.6447 -0.6064
  144OSM   C17S15846   3.513   0.863   8.219 -0.3823 -0.3926 -0.4071
  144OSM   H17S15847   3.529   0.967   8.181 -0.3912  0.8574  2.7079
  144OSM   H17T15848   3.599   0.794   8.212  0.0994  0.0351  0.9210
  144OSM   C18S15849   3.483   0.882   8.370 -0.0232 -0.0644  0.9157
  144OSM   H18S15850   3.406   0.962   8.375  0.4296  0.3119  2.2566
  144OSM   H18T15851   3.569   0.905   8.436  0.6469  0.1042  0.0075
  144OSM   H18U15852   3.440   0.789   8.414  0.2874 -0.3697  0.5789
  144OSM    C1F15853   3.344   1.206   6.568 -0.2072  0.1616  0.2072
  144OSM     OF15854   3.253   1.170   6.495  0.1720 -0.2049 -0.1643
  144OSM    C2F15855   3.351   1.347   6.614 -0.5639  0.2493  0.6064
  144OSM    H2F15856   3.350   1.402   6.517 -0.5901  0.0223  0.4776
  144OSM    H2G15857   3.448   1.357   6.667  1.3380 -1.1228 -2.3313
  144OSM    C3F15858   3.228   1.364   6.703 -0.5063 -0.3353 -0.5534
  144OSM    H3F15859   3.131   1.346   6.651 -0.7215  0.9051 -0.6043
  144OSM    H3G15860   3.224   1.471   6.732 -1.1462 -0.4167 -0.3241
  144OSM    C4F15861   3.241   1.293   6.839  0.2267 -0.2326  0.7842
  144OSM    H4F15862   3.336   1.338   6.876  1.7631 -0.5723 -2.4511
  144OSM    H4G15863   3.261   1.185   6.829 -0.8975 -0.3410 -0.5821
  144OSM    C5F15864   3.136   1.306   6.940  0.5721 -1.1144  0.3932
  144OSM    H5F15865   3.040   1.261   6.909 -0.5250  1.5213 -0.2947
  144OSM    H5G15866   3.117   1.415   6.936  0.4200 -1.1611 -2.9276
  144OSM    C6F15867   3.180   1.261   7.084 -0.0902  0.1235  0.0045
  144OSM    H6F15868   3.278   1.312   7.093 -1.5154  3.7307 -2.4863
  144OSM    H6G15869   3.186   1.151   7.099 -2.2091  0.1402  1.5075
  144OSM    C7F15870   3.082   1.316   7.194 -0.6456  0.5853 -0.0143
  144OSM    H7F15871   2.976   1.310   7.160 -0.5701 -0.5189 -0.1209
  144OSM    H7G15872   3.100   1.424   7.211 -1.2621  0.9866 -1.6693
  144OSM    C8F15873   3.098   1.238   7.320 -0.3625 -0.2564 -0.0171
  144OSM    H8F15874   3.208   1.231   7.337  0.0775  2.3063 -1.2828
  144OSM    H8G15875   3.060   1.138   7.290 -1.1092 -0.1359  0.5192
  144OSM    C9F15876   3.025   1.284   7.446 -0.0898 -0.5826 -0.2584
  144OSM    H9F15877   2.932   1.230   7.467 -1.2563  1.5090  0.2771
  144OSM   C10F15878   3.084   1.357   7.542 -0.4516  0.5970  0.9417
  144OSM   H10F15879   3.030   1.378   7.635 -0.9261 -0.9615  1.0497
  144OSM   C11F15880   3.220   1.423   7.533 -0.0230  0.0093  0.5923
  144OSM   H11F15881   3.211   1.530   7.562 -0.2421 -0.1316  1.0408
  144OSM   H11G15882   3.245   1.430   7.425 -0.5317 -1.9659  0.3088
  144OSM   C12F15883   3.317   1.350   7.618 -0.5051  0.4732  0.6607
  144OSM   H12F15884   3.407   1.415   7.609 -1.3322  1.6819  0.8989
  144OSM   H12G15885   3.355   1.254   7.577 -1.3456  0.9147 -1.2387
  144OSM   C13F15886   3.280   1.339   7.764 -0.8115 -0.8890 -0.0709
  144OSM   H13F15887   3.364   1.276   7.799  0.4784  0.6746 -0.2360
  144OSM   H13G15888   3.186   1.280   7.770 -2.7335  2.0658  1.0034
  144OSM   C14F15889   3.258   1.467   7.841 -0.4580  0.5716  0.6013
  144OSM   H14F15890   3.166   1.505   7.794 -1.1886 -0.5537  1.0620
  144OSM   H14G15891   3.340   1.541   7.835 -0.0542  0.0361 -0.8624
  144OSM   C15F15892   3.233   1.440   7.987  0.1603 -0.4290 -0.7307
  144OSM   H15F15893   3.330   1.406   8.030 -0.6754  0.1295  1.7781
  144OSM   H15G15894   3.159   1.357   7.999 -1.0356  0.9333  2.1561
  144OSM   C16F15895   3.168   1.559   8.061  0.0908  0.1008  0.6820
  144OSM   H16F15896   3.082   1.600   8.004  1.8779  1.7082 -1.0166
  144OSM   H16G15897   3.241   1.641   8.049  0.4733 -0.6096 -3.4177
  144OSM   C17F15898   3.136   1.534   8.206 -0.5147 -0.4014  0.2213
  144OSM   H17F15899   3.137   1.631   8.260  0.6533 -1.5031  2.2939
  144OSM   H17G15900   3.225   1.483   8.249  0.7221 -0.1009 -1.8344
  144OSM   C18F15901   3.017   1.445   8.228  0.6096 -0.5386  0.4764
  144OSM   H18F15902   3.006   1.415   8.334  1.3625 -2.7932 -0.0378
  144OSM   H18G15903   3.030   1.352   8.169  1.3845 -0.2597  0.1885
  144OSM   H18H15904   2.925   1.497   8.194  2.2603  1.4297 -1.2761
  145SAPE     N15905   2.101   0.906  10.508  0.1235  0.3245  0.5602
  145SAPE   HN115906   2.088   0.955  10.418 -1.1440 -0.9816 -0.0078
  145SAPE   HN215907   2.178   0.839  10.489  0.8707  2.2920 -4.9209
  145SAPE   HN315908   2.011   0.854  10.519 -0.0873  0.3587 -0.8121
  145SAPE   C1215909   2.128   1.002  10.617 -0.3389  0.5533 -0.6890
  145SAPE  H12A15910   2.128   0.953  10.717  3.5801  1.1544 -0.2289
  145SAPE  H12B15911   2.055   1.085  10.611 -0.5567  0.2840 -1.9853
  145SAPE   C1115912   2.277   1.058  10.602 -0.1489 -0.3350  0.3232
  145SAPE  H11A15913   2.334   0.969  10.635  0.2669 -0.7889 -1.4877
  145SAPE  H11B15914   2.279   1.140  10.677 -0.3971 -0.9402  1.0012
  145SAPE     P15915   2.381   1.238  10.439  0.0160  0.4671 -0.2220
  145SAPE   O1315916   2.285   1.348  10.462 -0.2328  0.4318 -0.6950
  145SAPE   O1415917   2.504   1.235  10.521 -0.3559  0.1518  0.0686
  145SAPE   O1215918   2.309   1.096  10.465  0.0218  0.3698 -0.3082
  145SAPE   O1115919   2.421   1.232  10.288 -0.1173  0.2300 -0.1139
  145SAPE    C115920   2.468   1.125  10.212  0.3777 -0.1158  0.4370
  145SAPE    HA15921   2.413   1.030  10.232  2.0832 -0.7864  2.2866
  145SAPE    HB15922   2.464   1.153  10.105 -0.4188 -0.3426  0.4003
  145SAPE    C215923   2.617   1.090  10.246 -0.4522 -0.5378  0.4391
  145SAPE    HS15924   2.635   1.114  10.353  1.0661  1.7061 -0.2562
  145SAPE   O2115925   2.701   1.186  10.172  0.5269  0.6325 -0.2139
  145SAPE   C2115926   2.831   1.176  10.190  0.6153  0.0879 -0.0601
  145SAPE   O2215927   2.878   1.109  10.276 -0.5148  0.1379 -0.2737
  145SAPE   C2215928   2.907   1.259  10.080  0.3955 -0.5514 -0.2450
  145SAPE   H2R15929   2.893   1.212   9.981 -0.3290 -1.1103  0.1114
  145SAPE   H2S15930   2.856   1.356  10.101 -1.0579 -1.3952  0.2704
  145SAPE    C315931   2.647   0.937  10.221  0.7384 -0.7203 -0.4920
  145SAPE    HX15932   2.584   0.889  10.299  0.0680  2.6536  1.2328
  145SAPE    HY15933   2.744   0.896  10.260  0.8562 -2.4210 -2.3948
  145SAPE   O3115934   2.644   0.895  10.082  0.0568  0.1749  0.1196
  145SAPE   C3115935   2.542   0.811  10.058  0.2013 -0.0350  0.4126
  145SAPE   O3215936   2.452   0.790  10.133 -0.0600  0.0938  0.1719
  145SAPE   C3215937   2.548   0.770   9.908 -0.2456  0.0096 -0.0485
  145SAPE   H2X15938   2.482   0.681   9.898  0.3627 -0.3977 -0.5866
  145SAPE   H2Y15939   2.653   0.739   9.890  0.7205  2.7116  0.4514
  145SAPE   C2315940   3.058   1.274  10.117 -0.4312 -0.0745  0.1139
  145SAPE   H3R15941   3.086   1.180  10.168 -1.1794  0.7475  2.1239
  145SAPE   H3S15942   3.073   1.361  10.185 -1.8668 -0.2856  0.7284
  145SAPE   C2415943   3.148   1.311  10.001  0.0554  0.5851  0.3605
  145SAPE   H4R15944   3.149   1.217   9.941  1.3187  0.8002  0.0151
  145SAPE   H4S15945   3.255   1.321  10.029  0.1894  1.0866 -0.2819
  145SAPE   C2515946   3.111   1.447   9.932  0.6366  1.3896  0.1172
  145SAPE   H5R15947   3.100   1.537   9.995 -0.0216  2.0337 -0.8898
  145SAPE   C2615948   3.094   1.460   9.802  0.2788  0.6719 -0.1316
  145SAPE   H6R15949   3.057   1.553   9.756 -0.7815  1.3689  1.9935
  145SAPE   C2715950   3.104   1.348   9.698  0.8750 -0.1924 -0.0480
  145SAPE   H7R15951   3.003   1.341   9.652  0.8661  3.0037 -0.6833
  145SAPE   H7S15952   3.125   1.252   9.750  0.1376 -1.0736 -1.3265
  145SAPE   C2815953   3.188   1.368   9.579  0.3445  0.2291  0.5970
  145SAPE   H8R15954   3.295   1.376   9.603  0.9576  0.8295 -1.9923
  145SAPE   C2915955   3.151   1.380   9.442 -0.8377  0.2032 -0.7825
  145SAPE   H9R15956   3.231   1.399   9.369  2.2814 -0.1468  2.2742
  145SAPE  C21015957   3.015   1.368   9.377  0.6242 -0.1396  0.3633
  145SAPE  H10R15958   2.978   1.266   9.405 -0.2703 -0.1341 -0.7206
  145SAPE  H10S15959   3.019   1.366   9.266  2.7245 -0.5720  0.4073
  145SAPE  C21115960   2.912   1.468   9.415 -0.4523 -0.0369 -0.0985
  145SAPE  H11R15961   2.935   1.487   9.521  0.9752 -0.1771 -0.3662
  145SAPE  C21215962   2.804   1.514   9.358 -0.3969 -0.0267 -0.4698
  145SAPE  H12R15963   2.760   1.607   9.397  0.5628  0.4058 -0.3867
  145SAPE  C21315964   2.767   1.489   9.214  0.1191  0.3580  0.3627
  145SAPE  H13R15965   2.681   1.419   9.219  1.4814 -1.3588  0.5159
  145SAPE  H13S15966   2.850   1.437   9.160 -0.6113 -0.0420 -0.3954
  145SAPE  C21415967   2.728   1.610   9.134  0.6936 -0.2320 -0.0335
  145SAPE  H14R15968   2.794   1.697   9.151  0.6910  0.3397 -2.5601
  145SAPE  C21515969   2.635   1.631   9.037 -0.0947 -0.1551 -0.0788
  145SAPE  H15R15970   2.622   1.736   9.006  0.7227 -0.4948 -1.6786
  145SAPE  C21615971   2.545   1.528   8.974  0.4373  0.2460  0.5882
  145SAPE  H16R15972   2.441   1.537   9.012 -0.9234 -3.8514 -1.5744
  145SAPE  H16S15973   2.572   1.426   9.008 -0.6815 -0.3794 -0.3064
  145SAPE  C21715974   2.530   1.530   8.819 -0.5810  0.1563 -0.2118
  145SAPE  H17R15975   2.480   1.626   8.792 -2.9558 -0.7375  0.7845
  145SAPE  H17S15976   2.460   1.447   8.797  0.1481 -0.3320 -0.7241
  145SAPE  C21815977   2.658   1.488   8.754 -0.3932  0.0682 -0.2050
  145SAPE  H18R15978   2.680   1.384   8.787  0.8585  0.2633 -0.4061
  145SAPE  H18S15979   2.742   1.555   8.780  0.0594 -0.6103  0.0916
  145SAPE  C21915980   2.636   1.500   8.601  0.3661  0.0706  0.5095
  145SAPE  H19R15981   2.618   1.604   8.565  0.2147 -0.3278 -0.6088
  145SAPE  H19S15982   2.545   1.438   8.585  0.7651 -0.2235 -0.7154
  145SAPE  C22015983   2.753   1.431   8.523 -0.2162 -0.7726 -0.5472
  145SAPE  H20R15984   2.719   1.427   8.418 -3.0323 -0.6661  0.2809
  145SAPE  H20S15985   2.771   1.332   8.569  0.1616 -0.2851  0.3941
  145SAPE  H20T15986   2.852   1.481   8.534  0.8283 -1.9859 -3.4844
  145SAPE   C3315987   2.514   0.882   9.809 -0.1385  0.0872  0.4096
  145SAPE   H3X15988   2.599   0.953   9.805 -0.7886  0.9445  1.2999
  145SAPE   H3Y15989   2.421   0.941   9.826 -1.6125 -2.0297  0.1057
  145SAPE   C3415990   2.494   0.825   9.666  0.1839  0.2652  0.0813
  145SAPE   H4X15991   2.416   0.746   9.664  0.1912  0.2698 -0.5366
  145SAPE   H4Y15992   2.584   0.778   9.621 -1.7665 -1.2194 -2.6062
  145SAPE   C3515993   2.437   0.929   9.563  0.0153  0.2383  0.5477
  145SAPE   H5X15994   2.506   1.017   9.565 -0.0964  0.4603 -2.1837
  145SAPE   H5Y15995   2.338   0.955   9.605 -1.6069  0.6206 -3.1892
  145SAPE   C3615996   2.425   0.872   9.420 -0.1329  0.0514  0.1372
  145SAPE   H6X15997   2.525   0.836   9.389 -0.1597  1.3448 -1.6439
  145SAPE   H6Y15998   2.398   0.955   9.351  0.8821 -0.2021 -0.5989
  145SAPE   C3715999   2.334   0.755   9.400 -0.2190 -0.2404  0.1529
  145SAPE   H7X16000   2.240   0.779   9.454  1.6691  1.5317  2.9489
  145SAPE   H7Y16001   2.380   0.671   9.457  0.7794  0.1751 -0.0071
  145SAPE   C3816002   2.318   0.698   9.258 -0.3423  0.1351  0.2822
  145SAPE   H8X16003   2.255   0.606   9.264  0.2459 -0.2579  0.5303
  145SAPE   H8Y16004   2.417   0.681   9.210 -0.8055  0.7207 -0.8951
  145SAPE   C3916005   2.229   0.770   9.152 -0.3157  0.1933  0.1444
  145SAPE   H9X16006   2.278   0.866   9.123  0.6116 -0.6400 -1.1379
  145SAPE   H9Y16007   2.131   0.789   9.201 -1.0543  1.3625 -1.6754
  145SAPE  C31016008   2.188   0.679   9.042 -0.0433  0.2969  1.0135
  145SAPE  H10X16009   2.130   0.598   9.091  1.6870 -1.3139  0.5459
  145SAPE  H10Y16010   2.270   0.625   8.990 -0.8000 -0.9128  1.0359
  145SAPE  C31116011   2.086   0.737   8.940  1.4728 -0.2831  0.5388
  145SAPE  H11X16012   2.076   0.667   8.854 -0.5127 -1.5199  1.6995
  145SAPE  H11Y16013   2.130   0.828   8.894 -1.5567  0.9218 -0.2941
  145SAPE  C31216014   1.949   0.777   8.991  0.9082  0.7341  0.4372
  145SAPE  H12X16015   1.896   0.813   8.900 -0.6878 -3.1365 -0.3583
  145SAPE  H12Y16016   1.958   0.858   9.067  1.1215  1.1791 -0.0572
  145SAPE  C31316017   1.866   0.658   9.033  0.0576 -0.0853 -0.3453
  145SAPE  H13X16018   1.911   0.621   9.128 -1.2897  0.6964  0.6264
  145SAPE  H13Y16019   1.871   0.565   8.973 -2.4735 -0.8427  0.4959
  145SAPE  C31416020   1.720   0.687   9.060 -0.0367  0.8019 -0.6509
  145SAPE  H14X16021   1.667   0.712   8.965  1.6860  2.2709 -1.2709
  145SAPE  H14Y16022   1.709   0.776   9.125 -0.7843 -0.9727  1.8015
  145SAPE  C31516023   1.655   0.561   9.126 -0.3637 -0.4113  0.4046
  145SAPE  H15X16024   1.716   0.546   9.217 -0.9079 -0.7066  0.7238
  145SAPE  H15Y16025   1.667   0.473   9.060 -1.5211 -0.4548  0.2334
  145SAPE  C31616026   1.511   0.578   9.153 -0.1227  0.0386  0.9767
  145SAPE  H16X16027   1.459   0.571   9.056  0.4553 -0.4922  0.6953
  145SAPE  H16Y16028   1.491   0.683   9.183  2.5195  1.1860 -0.8706
  145SAPE  C31716029   1.457   0.470   9.247  0.1659  0.2407 -0.4370
  145SAPE  H17X16030   1.479   0.496   9.352 -0.2200  0.6733 -0.4622
  145SAPE  H17Y16031   1.511   0.375   9.226  0.2879  0.2705 -0.2576
  145SAPE  C31816032   1.310   0.443   9.233  0.0252  0.2112 -0.8227
  145SAPE  H18X16033   1.251   0.536   9.242 -0.8669 -0.4855  0.9487
  145SAPE  H18Y16034   1.272   0.368   9.305 -1.7435 -0.1156 -2.0170
  145SAPE  H18Z16035   1.285   0.395   9.136 -0.2254 -1.7427  0.1434
  146SAPE     N16036   0.606   4.224  10.183  0.2033  0.2444 -0.5673
  146SAPE   HN116037   0.601   4.304  10.249 -1.1591 -0.5436  0.3241
  146SAPE   HN216038   0.695   4.235  10.129  1.5034 -0.5066  1.3230
  146SAPE   HN316039   0.526   4.229  10.116  1.0754 -0.1707 -1.6848
  146SAPE   C1216040   0.601   4.086  10.252  0.2703 -0.4128 -0.5115
  146SAPE  H12A16041   0.621   4.014  10.170  0.5504 -1.0460  0.1038
  146SAPE  H12B16042   0.497   4.071  10.289  0.3119  1.8704  0.6960
  146SAPE   C1116043   0.706   4.073  10.367  0.3565 -0.7314 -0.3553
  146SAPE  H11A16044   0.694   4.150  10.445  3.3925 -0.8563  0.3449
  146SAPE  H11B16045   0.806   4.088  10.319  0.5425 -0.7064  0.0408
  146SAPE     P16046   0.743   3.819  10.349 -0.0983  0.0417 -0.0789
  146SAPE   O1316047   0.869   3.845  10.281  0.1419  0.0454 -0.5986
  146SAPE   O1416048   0.751   3.712  10.453 -0.1759  0.5936 -0.3730
  146SAPE   O1216049   0.693   3.940  10.423 -0.4729  0.1078 -0.0669
  146SAPE   O1116050   0.629   3.788  10.251  0.0665 -0.0927  0.1931
  146SAPE    C116051   0.606   3.663  10.204  0.1947  0.0352 -0.5149
  146SAPE    HA16052   0.698   3.602  10.220  0.3139 -0.4651 -2.7219
  146SAPE    HB16053   0.518   3.621  10.256  1.8584 -1.6902  1.0703
  146SAPE    C216054   0.596   3.669  10.050 -0.1162  0.2014 -0.1501
  146SAPE    HS16055   0.550   3.577  10.011 -1.4309 -0.1852  2.1368
  146SAPE   O2116056   0.724   3.700   9.990  0.5280  0.1247 -0.3693
  146SAPE   C2116057   0.821   3.615   9.991  0.1942  0.1446 -0.4529
  146SAPE   O2216058   0.813   3.500  10.029  0.3336 -0.5240 -0.3980
  146SAPE   C2216059   0.949   3.680   9.948 -0.0241  0.0952 -0.6810
  146SAPE   H2R16060   0.918   3.753   9.871  2.7472  0.5788 -1.4364
  146SAPE   H2S16061   0.981   3.729  10.043 -2.4903 -1.1742  0.9045
  146SAPE    C316062   0.509   3.791  10.004 -0.5923  0.6179 -0.4837
  146SAPE    HX16063   0.568   3.879  10.038  0.3366 -0.8857  2.0967
  146SAPE    HY16064   0.418   3.785  10.068  0.3897 -0.0178  0.9083
  146SAPE   O3116065   0.469   3.770   9.866 -0.0039  0.2221  0.0141
  146SAPE   C3116066   0.356   3.843   9.834  0.2935  0.4729 -0.1674
  146SAPE   O3216067   0.295   3.921   9.906  0.4597 -0.1596  0.5099
  146SAPE   C3216068   0.324   3.821   9.687 -0.1936 -0.0503  0.4335
  146SAPE   H2X16069   0.215   3.840   9.670 -0.0651  0.0783 -0.2549
  146SAPE   H2Y16070   0.347   3.716   9.660  1.9053 -0.5518  3.7068
  146SAPE   C2316071   1.050   3.576   9.890 -0.4259 -0.3350 -0.5041
  146SAPE   H3R16072   1.002   3.512   9.814  0.8142  0.5956 -2.1297
  146SAPE   H3S16073   1.083   3.518   9.980 -0.0071  0.1087 -0.3658
  146SAPE   C2416074   1.168   3.642   9.827  0.7385 -0.2578 -0.3522
  146SAPE   H4R16075   1.240   3.559   9.807 -1.3429 -2.5551  1.1505
  146SAPE   H4S16076   1.220   3.708   9.901 -0.3872  0.4846 -0.2079
  146SAPE   C2516077   1.142   3.737   9.715 -0.1788  0.2017  0.8177
  146SAPE   H5R16078   1.091   3.833   9.732  0.7227  1.0295 -0.8578
  146SAPE   C2616079   1.168   3.717   9.586 -0.5281 -0.5998  0.2615
  146SAPE   H6R16080   1.152   3.798   9.513  0.0948  1.4578  2.2981
  146SAPE   C2716081   1.243   3.596   9.533 -0.9494 -0.3596 -0.1457
  146SAPE   H7R16082   1.235   3.506   9.598  1.1844  1.3448  2.6868
  146SAPE   H7S16083   1.351   3.616   9.545 -0.9268 -0.9346  0.7345
  146SAPE   C2816084   1.225   3.562   9.386 -0.6869 -0.7210  0.2630
  146SAPE   H8R16085   1.124   3.518   9.377  0.2314 -2.6673 -1.1330
  146SAPE   C2916086   1.299   3.586   9.272 -0.4092 -1.0786  0.3265
  146SAPE   H9R16087   1.269   3.538   9.178  0.2766 -0.2022 -0.3674
  146SAPE  C21016088   1.436   3.647   9.276 -0.5260 -0.0095  0.1739
  146SAPE  H10R16089   1.504   3.592   9.207 -0.1032  2.3715 -1.4638
  146SAPE  H10S16090   1.488   3.646   9.374  1.9173  0.1545 -1.0373
  146SAPE  C21116091   1.418   3.791   9.243 -0.0229  0.5788 -0.2323
  146SAPE  H11R16092   1.401   3.850   9.335  1.3952 -0.1241  0.5145
  146SAPE  C21216093   1.427   3.857   9.123  0.2126 -0.0274 -0.5439
  146SAPE  H12R16094   1.410   3.966   9.122 -0.9955 -0.2046 -0.8552
  146SAPE  C21316095   1.454   3.780   8.993 -0.5286 -0.1378 -0.2682
  146SAPE  H13R16096   1.503   3.682   9.014  0.9792  0.3747 -1.2635
  146SAPE  H13S16097   1.526   3.841   8.935  0.1009 -1.0714 -0.4841
  146SAPE  C21416098   1.332   3.745   8.913  0.4069  0.8342 -0.1666
  146SAPE  H14R16099   1.234   3.780   8.946 -0.8042 -2.5660  0.2245
  146SAPE  C21516100   1.341   3.674   8.801 -0.5803 -0.2879  0.1906
  146SAPE  H15R16101   1.250   3.643   8.748  0.1195 -0.7544 -0.7711
  146SAPE  C21616102   1.469   3.622   8.738  0.0359  0.4632 -0.5227
  146SAPE  H16R16103   1.493   3.524   8.784  0.4037  1.1955  0.8938
  146SAPE  H16S16104   1.558   3.685   8.758 -1.0934  1.6427  1.1516
  146SAPE  C21716105   1.458   3.609   8.583 -0.4031 -0.1879 -0.2402
  146SAPE  H17R16106   1.561   3.588   8.547 -0.3002 -1.8600  0.9044
  146SAPE  H17S16107   1.421   3.707   8.547  0.5000  0.1160 -0.3772
  146SAPE  C21816108   1.363   3.497   8.540  0.0021 -0.0112 -1.1581
  146SAPE  H18R16109   1.280   3.477   8.612  0.0753 -0.8909 -1.3115
  146SAPE  H18S16110   1.410   3.396   8.544 -1.5338 -0.7326  1.1224
  146SAPE  C21916111   1.299   3.522   8.409  0.6477  0.0137  0.1501
  146SAPE  H19R16112   1.232   3.611   8.404 -0.0287 -0.4770  0.1830
  146SAPE  H19S16113   1.226   3.446   8.372  0.1727  1.3409 -1.7982
  146SAPE  C22016114   1.396   3.538   8.291  0.7950  0.6029 -0.4344
  146SAPE  H20R16115   1.430   3.443   8.246  1.3810  1.3081 -1.5260
  146SAPE  H20S16116   1.470   3.617   8.317  1.4905 -0.4036  0.7534
  146SAPE  H20T16117   1.342   3.586   8.207 -0.1866 -1.0333 -0.7916
  146SAPE   C3316118   0.399   3.937   9.610  0.0543 -0.0797  0.1275
  146SAPE   H3X16119   0.503   3.901   9.602  0.0892 -0.2366  1.1115
  146SAPE   H3Y16120   0.421   4.031   9.665  0.5190  1.2824 -2.2491
  146SAPE   C3416121   0.349   3.981   9.472 -0.2208  0.3961  0.2927
  146SAPE   H4X16122   0.421   4.055   9.431  0.0439  0.9647  1.6995
  146SAPE   H4Y16123   0.254   4.037   9.482 -0.9389 -0.4338 -1.5385
  146SAPE   C3516124   0.331   3.858   9.383 -0.4735 -0.7060  0.2663
  146SAPE   H5X16125   0.249   3.805   9.436  0.8975 -1.8563  1.3230
  146SAPE   H5Y16126   0.428   3.804   9.375  0.3025  0.7644 -0.8063
  146SAPE   C3616127   0.266   3.896   9.251 -0.2177 -0.2379  0.8788
  146SAPE   H6X16128   0.341   3.960   9.200 -0.3504 -0.0191  0.9552
  146SAPE   H6Y16129   0.179   3.960   9.277 -0.6315  0.3528 -1.6971
  146SAPE   C3716130   0.246   3.781   9.152 -0.1241 -0.5321 -0.0542
  146SAPE   H7X16131   0.182   3.830   9.075 -0.3790 -0.1596  0.3891
  146SAPE   H7Y16132   0.193   3.690   9.187 -0.2357 -0.4124  0.0921
  146SAPE   C3816133   0.388   3.751   9.089 -0.0781 -0.8180  0.6298
  146SAPE   H8X16134   0.376   3.646   9.052 -0.6556 -1.0366  1.3995
  146SAPE   H8Y16135   0.471   3.764   9.161  0.3239 -1.4606  0.2882
  146SAPE   C3916136   0.410   3.830   8.960  0.1218 -0.1968 -0.4420
  146SAPE   H9X16137   0.433   3.937   8.978  0.9216 -0.4226 -0.1091
  146SAPE   H9Y16138   0.316   3.818   8.900  1.0512 -3.3388 -1.4513
  146SAPE  C31016139   0.511   3.759   8.869  0.0118 -0.2009 -0.3418
  146SAPE  H10X16140   0.477   3.656   8.847  1.2193 -0.4095 -1.3815
  146SAPE  H10Y16141   0.604   3.759   8.930 -0.0401  3.5625 -0.0255
  146SAPE  C31116142   0.530   3.844   8.742  0.0787  0.7403  0.0213
  146SAPE  H11X16143   0.603   3.777   8.693 -0.4206 -0.5208  0.9602
  146SAPE  H11Y16144   0.584   3.939   8.764  2.7890 -0.9020  0.9874
  146SAPE  C31216145   0.408   3.862   8.647  0.1239  0.7993 -0.0933
  146SAPE  H12X16146   0.325   3.931   8.675 -1.6309 -1.0435 -0.4926
  146SAPE  H12Y16147   0.362   3.763   8.630  0.9234  0.5520 -0.8812
  146SAPE  C31316148   0.465   3.907   8.511  0.2599 -1.2567 -0.3042
  146SAPE  H13X16149   0.387   3.924   8.433 -0.1795  1.3235  0.5852
  146SAPE  H13Y16150   0.536   3.830   8.474 -0.5759 -1.2561 -1.9852
  146SAPE  C31416151   0.534   4.047   8.493 -0.1887 -0.7307  0.1194
  146SAPE  H14X16152   0.617   4.055   8.566 -0.1219  3.5250 -0.1654
  146SAPE  H14Y16153   0.460   4.126   8.518  0.8161  0.1289  0.4400
  146SAPE  C31516154   0.598   4.064   8.357  0.8500  0.9374  0.1178
  146SAPE  H15X16155   0.517   4.053   8.282  1.1940  2.7070 -0.5709
  146SAPE  H15Y16156   0.668   3.981   8.336 -0.9472 -0.0803 -2.5053
  146SAPE  C31616157   0.669   4.198   8.339 -0.1239  0.3532 -0.1844
  146SAPE  H16X16158   0.751   4.208   8.413 -0.7788  2.1975  0.3731
  146SAPE  H16Y16159   0.590   4.274   8.359  0.9747  1.5259 -0.1719
  146SAPE  C31716160   0.719   4.221   8.192 -0.0486  0.8082  0.2055
  146SAPE  H17X16161   0.761   4.323   8.194 -2.7362  2.0160  2.1210
  146SAPE  H17Y16162   0.626   4.216   8.132 -1.0635  3.6626  1.3841
  146SAPE  C31816163   0.811   4.116   8.133  0.5094  0.0829  0.1318
  146SAPE  H18X16164   0.824   4.132   8.024 -0.3931 -2.1848 -0.3740
  146SAPE  H18Y16165   0.781   4.009   8.131 -0.9630  0.4210 -3.6180
  146SAPE  H18Z16166   0.913   4.132   8.173  0.9281  1.6793 -1.4701
  147SAPE     N16167   3.626   0.919  10.964  0.2084  0.2588  0.0376
  147SAPE   HN116168   3.669   1.008  10.933 -0.3951  0.3862 -0.4676
  147SAPE   HN216169   3.529   0.933  11.001 -1.5168  0.9940 -4.1805
  147SAPE   HN316170   3.686   0.879  11.038 -0.2145 -2.0193 -0.7755
  147SAPE   C1216171   3.627   0.822  10.850  0.4132 -0.2117 -0.9763
  147SAPE  H12A16172   3.571   0.869  10.767  1.1056 -1.3101 -2.1162
  147SAPE  H12B16173   3.564   0.734  10.875 -1.3943  0.3364 -3.2665
  147SAPE   C1116174   3.767   0.788  10.810  0.3264  0.4942 -0.6568
  147SAPE  H11A16175   3.819   0.879  10.775  1.6127  0.5998  1.4093
  147SAPE  H11B16176   3.761   0.718  10.723 -0.8729 -0.0122 -0.2012
  147SAPE     P16177   3.966   0.664  10.911  0.0938 -0.1405  0.0120
  147SAPE   O1316178   4.052   0.782  10.895  0.1107 -0.1885 -0.2806
  147SAPE   O1416179   3.988   0.582  11.032  0.7012 -0.2870 -0.0900
  147SAPE   O1216180   3.819   0.720  10.923  0.2870  0.3140  0.1800
  147SAPE   O1116181   3.962   0.584  10.782  0.1868 -0.2007 -0.8792
  147SAPE    C116182   4.050   0.504  10.717 -0.1187 -0.1035 -0.0596
  147SAPE    HA16183   4.154   0.511  10.756  0.1520 -0.9222 -0.6024
  147SAPE    HB16184   4.032   0.395  10.732  0.2975 -0.1493  0.1125
  147SAPE    C216185   4.052   0.543  10.563 -0.4447 -0.6404 -0.5709
  147SAPE    HS16186   4.059   0.654  10.560 -1.0800 -0.5430  0.7899
  147SAPE   O2116187   3.924   0.494  10.515 -0.6139  0.3161 -0.7022
  147SAPE   C2116188   3.864   0.575  10.427 -0.0147 -0.0947 -0.1686
  147SAPE   O2216189   3.890   0.694  10.414  0.3106 -0.2312  0.5830
  147SAPE   C2216190   3.763   0.499  10.345  0.6173  0.2795  0.0194
  147SAPE   H2R16191   3.773   0.388  10.351 -1.3199 -0.2468 -3.5795
  147SAPE   H2S16192   3.659   0.523  10.378  0.7014  0.6174  0.0336
  147SAPE    C316193   4.175   0.493  10.485  0.1197  0.1189  0.1806
  147SAPE    HX16194   4.181   0.382  10.487  1.3824  0.1665 -0.4950
  147SAPE    HY16195   4.274   0.524  10.523  0.6485 -2.1077  0.7412
  147SAPE   O3116196   4.163   0.525  10.343 -0.0953 -0.5821  0.5204
  147SAPE   C3116197   4.248   0.457  10.268 -0.1234 -0.4667  0.2555
  147SAPE   O3216198   4.338   0.381  10.304  0.0521 -0.2885 -0.1055
  147SAPE   C3216199   4.197   0.462  10.115 -0.2829 -0.5213  0.1553
  147SAPE   H2X16200   4.153   0.563  10.100 -0.6599 -0.8905 -1.4688
  147SAPE   H2Y16201   4.106   0.399  10.107 -1.2616  0.9316 -0.9071
  147SAPE   C2316202   3.774   0.534  10.197 -0.5109  0.3400 -0.1530
  147SAPE   H3R16203   3.881   0.520  10.171 -0.3248  1.6860 -0.1980
  147SAPE   H3S16204   3.744   0.641  10.190 -1.6492  0.0069 -0.7557
  147SAPE   C2416205   3.679   0.451  10.101  0.2938 -0.8025 -0.0953
  147SAPE   H4R16206   3.586   0.431  10.159  0.4825  1.4986  1.1184
  147SAPE   H4S16207   3.726   0.351  10.086  2.1791  0.2099 -1.2602
  147SAPE   C2516208   3.650   0.508   9.959  0.5674 -0.5600  0.4668
  147SAPE   H5R16209   3.552   0.559   9.952 -0.4100 -2.4393 -0.4115
  147SAPE   C2616210   3.729   0.504   9.847  0.3953 -0.2205 -0.4258
  147SAPE   H6R16211   3.692   0.548   9.754  0.1139 -0.6736 -0.5359
  147SAPE   C2716212   3.862   0.438   9.837 -0.4944 -0.3100  0.3082
  147SAPE   H7R16213   3.902   0.403   9.934 -1.0033  0.9888  1.0142
  147SAPE   H7S16214   3.941   0.511   9.809 -0.2732 -0.9528 -0.7876
  147SAPE   C2816215   3.867   0.328   9.734  0.0394  0.1569  0.3453
  147SAPE   H8R16216   3.885   0.229   9.778 -1.1593 -0.0108  0.4913
  147SAPE   C2916217   3.854   0.342   9.600 -0.0485  1.0220  0.8944
  147SAPE   H9R16218   3.868   0.256   9.534  0.5285  1.3492  0.5854
  147SAPE  C21016219   3.852   0.473   9.525 -0.2781 -0.2158 -0.6182
  147SAPE  H10R16220   3.928   0.453   9.446 -1.1136 -0.9331 -1.2642
  147SAPE  H10S16221   3.892   0.554   9.590 -1.0200 -0.2545 -0.1038
  147SAPE  C21116222   3.709   0.490   9.474  0.1902  0.0027  0.1042
  147SAPE  H11R16223   3.631   0.507   9.550  1.6609 -1.2474  2.0097
  147SAPE  C21216224   3.674   0.509   9.346 -0.6308 -0.4161  0.3926
  147SAPE  H12R16225   3.569   0.519   9.316 -0.3783 -0.5379 -0.5540
  147SAPE  C21316226   3.761   0.516   9.225  0.0671  0.5050  0.2696
  147SAPE  H13R16227   3.766   0.417   9.176 -1.7615  0.9213 -0.8527
  147SAPE  H13S16228   3.861   0.553   9.258  0.0705 -0.1495  1.0243
  147SAPE  C21416229   3.723   0.622   9.118  0.4154  0.0530 -0.2063
  147SAPE  H14R16230   3.762   0.722   9.142 -0.8129  0.6805 -0.7314
  147SAPE  C21516231   3.640   0.604   9.014 -0.4034 -0.1465  0.3754
  147SAPE  H15R16232   3.620   0.682   8.939 -2.6307 -1.9187 -1.0035
  147SAPE  C21616233   3.577   0.471   8.965  0.2553  0.8437  0.1206
  147SAPE  H16R16234   3.469   0.463   8.991  0.2344 -0.2477 -0.2887
  147SAPE  H16S16235   3.615   0.383   9.020 -1.4805 -1.5197 -2.2234
  147SAPE  C21716236   3.608   0.433   8.820  0.2913  0.4205  0.6467
  147SAPE  H17R16237   3.713   0.461   8.797  1.1554 -2.3712  0.8685
  147SAPE  H17S16238   3.544   0.500   8.758 -1.0654 -1.9672 -0.6840
  147SAPE  C21816239   3.567   0.291   8.767 -0.1703 -0.2736  0.1225
  147SAPE  H18R16240   3.524   0.293   8.665  0.5864 -0.8582 -0.2191
  147SAPE  H18S16241   3.487   0.246   8.830 -1.3450  1.6462  0.0735
  147SAPE  C21916242   3.689   0.191   8.750  0.2859 -0.5555 -1.0145
  147SAPE  H19R16243   3.654   0.086   8.758  0.9171 -0.7411 -0.6325
  147SAPE  H19S16244   3.753   0.195   8.841 -0.9379 -1.0622 -0.1091
  147SAPE  C22016245   3.789   0.212   8.636  0.0827 -0.1526  0.2639
  147SAPE  H20R16246   3.883   0.154   8.648 -0.0795 -1.0051 -2.0688
  147SAPE  H20S16247   3.823   0.318   8.635 -0.4619  0.0367 -1.1301
  147SAPE  H20T16248   3.746   0.184   8.537 -1.1105  0.0052  0.7334
  147SAPE   C3316249   4.305   0.424  10.020 -0.8276  0.0267  0.9389
  147SAPE   H3X16250   4.339   0.320  10.040  0.0797  0.1902  0.3511
  147SAPE   H3Y16251   4.400   0.482  10.024  1.2636 -3.0210 -0.4873
  147SAPE   C3416252   4.261   0.419   9.870 -0.9759  0.4104  0.4307
  147SAPE   H4X16253   4.227   0.516   9.830 -0.1167  0.4612 -0.2270
  147SAPE   H4Y16254   4.168   0.358   9.867 -2.1396  2.1308 -0.7860
  147SAPE   C3516255   4.370   0.354   9.782 -0.3262 -0.3120 -0.3321
  147SAPE   H5X16256   4.404   0.266   9.840 -0.6734  0.8333  1.6855
  147SAPE   H5Y16257   4.457   0.422   9.767  0.9407 -1.3570  1.7746
  147SAPE   C3616258   4.314   0.302   9.649  0.6023 -0.1531 -0.2829
  147SAPE   H6X16259   4.227   0.233   9.661  1.9764 -1.7333  1.0916
  147SAPE   H6Y16260   4.397   0.252   9.595  1.7793  0.4832  0.8737
  147SAPE   C3716261   4.264   0.415   9.559 -0.1159 -0.2043 -0.0493
  147SAPE   H7X16262   4.339   0.496   9.568  0.5704 -0.7474 -0.7158
  147SAPE   H7Y16263   4.167   0.455   9.596 -0.0728  1.0870 -1.2333
  147SAPE   C3816264   4.242   0.368   9.414  0.0946  0.4630 -0.5331
  147SAPE   H8X16265   4.158   0.295   9.418  1.7382 -1.4610  1.1094
  147SAPE   H8Y16266   4.335   0.320   9.377  0.3376  1.0767 -0.7346
  147SAPE   C3916267   4.206   0.479   9.311 -0.4208  0.0517  0.0906
  147SAPE   H9X16268   4.287   0.548   9.279 -1.7981  2.1989  1.0383
  147SAPE   H9Y16269   4.140   0.554   9.359  0.6606  0.4880  0.9340
  147SAPE  C31016270   4.143   0.421   9.185  0.7246 -0.0251 -0.2209
  147SAPE  H10X16271   4.075   0.501   9.148 -0.3028 -0.4439  0.7176
  147SAPE  H10Y16272   4.086   0.335   9.225 -2.2685  2.1024  0.4215
  147SAPE  C31116273   4.235   0.389   9.063 -0.8959  0.3705  0.1094
  147SAPE  H11X16274   4.320   0.332   9.106 -0.9277 -1.0076 -1.5417
  147SAPE  H11Y16275   4.271   0.482   9.015  1.3121 -0.6379 -0.3253
  147SAPE  C31216276   4.174   0.312   8.947 -0.8515 -0.3663 -0.0244
  147SAPE  H12X16277   4.092   0.372   8.902  1.0041  1.9465 -0.5118
  147SAPE  H12Y16278   4.123   0.222   8.989 -0.5491 -1.3694 -1.7327
  147SAPE  C31316279   4.270   0.297   8.828  0.3151 -0.5989 -0.2736
  147SAPE  H13X16280   4.348   0.223   8.854  1.0684 -0.6369 -2.4525
  147SAPE  H13Y16281   4.322   0.393   8.809  0.5672 -0.5524  0.6101
  147SAPE  C31416282   4.186   0.233   8.712  0.1090 -0.3050  0.1754
  147SAPE  H14X16283   4.084   0.277   8.703 -0.8483 -2.6962 -1.8865
  147SAPE  H14Y16284   4.176   0.128   8.749  0.2184 -0.4457 -0.1941
  147SAPE  C31516285   4.252   0.247   8.575 -0.8512 -0.1139 -0.0099
  147SAPE  H15X16286   4.177   0.191   8.515 -1.2665 -1.5722  1.7405
  147SAPE  H15Y16287   4.341   0.180   8.567 -0.1281  0.9986 -1.7210
  147SAPE  C31616288   4.251   0.392   8.519 -0.6038  0.2144  0.1124
  147SAPE  H16X16289   4.305   0.474   8.571 -0.7678  0.1258  0.4257
  147SAPE  H16Y16290   4.143   0.415   8.537 -0.3016  1.2472  0.7270
  147SAPE  C31716291   4.272   0.406   8.368 -0.8940  0.4278  0.3277
  147SAPE  H17X16292   4.204   0.338   8.312 -0.6176  0.9403 -0.6387
  147SAPE  H17Y16293   4.373   0.369   8.341 -1.5625 -0.2255 -1.3943
  147SAPE  C31816294   4.254   0.546   8.327  0.2463 -0.9546 -0.0406
  147SAPE  H18X16295   4.320   0.604   8.394 -0.9810 -0.1260  0.4971
  147SAPE  H18Y16296   4.147   0.570   8.347  0.5090 -0.4774  0.8507
  147SAPE  H18Z16297   4.281   0.565   8.221  0.0743  0.7131  0.1833
  148SAPE     N16298   3.459   6.815  10.877 -0.0668  0.2047 -0.0076
  148SAPE   HN116299   3.514   6.862  10.951 -1.2454 -0.6125  1.4491
  148SAPE   HN216300   3.362   6.849  10.892 -0.0029 -0.3115  1.8304
  148SAPE   HN316301   3.449   6.713  10.896 -1.6715  0.6050  1.5983
  148SAPE   C1216302   3.493   6.827  10.731  0.5079  0.3062  0.3784
  148SAPE  H12A16303   3.451   6.747  10.666  1.7211  0.3531 -0.4933
  148SAPE  H12B16304   3.601   6.804  10.727  0.5022  0.1746  0.9490
  148SAPE   C1116305   3.462   6.963  10.662 -0.0568 -0.4149  0.2190
  148SAPE  H11A16306   3.509   6.963  10.561  0.5147 -2.7890  0.4109
  148SAPE  H11B16307   3.529   7.027  10.722 -2.6384  0.3154  2.5385
  148SAPE     P16308   3.223   6.980  10.552  0.4086  0.0516  0.1842
  148SAPE   O1316309   3.199   6.830  10.542 -0.4814 -0.3251 -0.5963
  148SAPE   O1416310   3.100   7.061  10.568 -0.1137  0.0222  0.5271
  148SAPE   O1216311   3.324   7.010  10.669  0.1636 -0.0343 -0.0798
  148SAPE   O1116312   3.305   7.023  10.427  0.4071  0.2863 -0.4903
  148SAPE    C116313   3.369   7.152  10.415 -0.2210  0.6226  0.2591
  148SAPE    HA16314   3.392   7.190  10.517  0.6251 -0.3340  0.4362
  148SAPE    HB16315   3.465   7.145  10.359 -0.5732 -1.0107 -0.1893
  148SAPE    C216316   3.282   7.246  10.318 -0.2194  0.9593 -0.4991
  148SAPE    HS16317   3.175   7.231  10.341  0.1198 -1.1851 -0.1489
  148SAPE   O2116318   3.323   7.222  10.183 -0.1624 -0.0927 -0.5625
  148SAPE   C2116319   3.228   7.235  10.085  1.0425  0.3088 -0.5773
  148SAPE   O2216320   3.114   7.265  10.105  0.1694  0.3907  0.3124
  148SAPE   C2216321   3.293   7.210   9.951  0.0683  0.4558 -0.0859
  148SAPE   H2R16322   3.397   7.175   9.968  0.4227  1.9518  1.0668
  148SAPE   H2S16323   3.234   7.131   9.900  3.3243 -0.5574 -2.6326
  148SAPE    C316324   3.307   7.397  10.353  0.1130  0.6287 -0.9098
  148SAPE    HX16325   3.414   7.422  10.339  0.0613  0.4520 -1.6228
  148SAPE    HY16326   3.283   7.407  10.461  0.3682 -4.0274 -0.2170
  148SAPE   O3116327   3.233   7.495  10.273 -0.8895  0.8938  0.5806
  148SAPE   C3116328   3.112   7.518  10.301 -0.8061  0.5742 -0.4784
  148SAPE   O3216329   3.044   7.461  10.383 -0.0327 -0.3911  0.3270
  148SAPE   C3216330   3.066   7.631  10.217  0.2281  0.6633 -0.1060
  148SAPE   H2X16331   3.128   7.719  10.245 -0.0707  0.9593 -0.3711
  148SAPE   H2Y16332   2.962   7.657  10.248 -0.2325 -1.1985  0.0125
  148SAPE   C2316333   3.300   7.325   9.852 -0.5301 -0.4786  0.4164
  148SAPE   H3R16334   3.367   7.408   9.885  1.9592 -1.4789 -1.7421
  148SAPE   H3S16335   3.203   7.378   9.843 -0.1173  0.3495  0.6877
  148SAPE   C2416336   3.346   7.293   9.711  0.8815  0.1852 -0.7736
  148SAPE   H4R16337   3.275   7.221   9.666 -0.5186  0.9225  0.1879
  148SAPE   H4S16338   3.448   7.249   9.708  0.8583  0.1243 -0.6804
  148SAPE   C2516339   3.348   7.414   9.628 -0.5027 -0.0204  0.3699
  148SAPE   H5R16340   3.435   7.479   9.643 -0.4541  0.7184 -2.5290
  148SAPE   C2616341   3.275   7.443   9.522 -0.3540 -0.0904  0.4251
  148SAPE   H6R16342   3.309   7.538   9.479  0.6883 -1.2507 -1.4893
  148SAPE   C2716343   3.177   7.368   9.446  0.9213 -0.0551  0.0429
  148SAPE   H7R16344   3.083   7.424   9.429  0.4401 -0.8265  0.0970
  148SAPE   H7S16345   3.134   7.293   9.516 -3.9808  2.5549  0.2987
  148SAPE   C2816346   3.213   7.303   9.312 -0.0512  0.1858 -0.3949
  148SAPE   H8R16347   3.230   7.194   9.310 -5.0981 -0.8197 -1.8226
  148SAPE   C2916348   3.216   7.362   9.191  0.3639  0.2213 -1.1481
  148SAPE   H9R16349   3.238   7.294   9.107  1.3324 -0.9599  0.0044
  148SAPE  C21016350   3.189   7.507   9.152  0.6047 -1.0130 -0.6888
  148SAPE  H10R16351   3.197   7.574   9.239 -0.8880 -1.2349 -0.3431
  148SAPE  H10S16352   3.084   7.533   9.125  0.4749  0.8536  1.3931
  148SAPE  C21116353   3.288   7.563   9.052 -0.7231  0.1655 -0.2737
  148SAPE  H11R16354   3.391   7.571   9.087 -0.3723 -1.1073 -0.9258
  148SAPE  C21216355   3.262   7.587   8.921  0.0310 -0.3328  0.4316
  148SAPE  H12R16356   3.352   7.613   8.864  0.1886 -0.6636  0.5300
  148SAPE  C21316357   3.130   7.569   8.842  0.2043  0.5101  0.3782
  148SAPE  H13R16358   3.046   7.632   8.879 -0.6488 -1.2419  1.5649
  148SAPE  H13S16359   3.088   7.466   8.841  2.0163 -0.2693 -0.9899
  148SAPE  C21416360   3.158   7.583   8.692 -0.3219 -0.6745  0.2520
  148SAPE  H14R16361   3.172   7.490   8.634  0.4400  0.2321 -1.0836
  148SAPE  C21516362   3.187   7.692   8.623 -0.6444 -0.3546 -0.2694
  148SAPE  H15R16363   3.209   7.688   8.515 -2.0276 -1.0093 -0.5568
  148SAPE  C21616364   3.188   7.827   8.689  0.1793 -0.3191  0.2161
  148SAPE  H16R16365   3.261   7.833   8.772  0.1875 -0.5853  0.2287
  148SAPE  H16S16366   3.084   7.846   8.725 -1.0803  1.2211 -3.7295
  148SAPE  C21716367   3.219   7.934   8.586  0.0560 -0.3612 -0.1895
  148SAPE  H17R16368   3.141   7.938   8.507  0.6510  0.3382 -0.7587
  148SAPE  H17S16369   3.320   7.918   8.543 -0.7030 -3.6119 -1.0513
  148SAPE  C21816370   3.221   8.078   8.639 -0.5481  0.1524  0.0832
  148SAPE  H18R16371   3.304   8.100   8.709 -0.8022  1.3542  0.0145
  148SAPE  H18S16372   3.126   8.097   8.694 -1.3453 -1.0949 -0.8020
  148SAPE  C21916373   3.229   8.186   8.525  0.4192  0.0334 -0.6557
  148SAPE  H19R16374   3.126   8.191   8.485  0.0487  1.4350  0.3932
  148SAPE  H19S16375   3.305   8.149   8.454  1.2153  0.5060 -0.0720
  148SAPE  C22016376   3.268   8.329   8.580  0.0117  0.4421 -0.7835
  148SAPE  H20R16377   3.267   8.413   8.507  0.1333  1.6181  0.5403
  148SAPE  H20S16378   3.369   8.318   8.624 -0.4001  1.4414  0.4632
  148SAPE  H20T16379   3.208   8.358   8.669  0.7433  2.1007 -0.8024
  148SAPE   C3316380   3.082   7.601  10.066  0.5240 -0.3556  0.5671
  148SAPE   H3X16381   3.051   7.495  10.052  1.1894 -0.4553 -0.2679
  148SAPE   H3Y16382   3.191   7.603  10.044  0.5477 -0.3769  0.6771
  148SAPE   C3416383   2.998   7.692   9.976 -0.2443 -0.2248 -0.2075
  148SAPE   H4X16384   3.036   7.794   9.999  0.2678 -0.7645  1.4783
  148SAPE   H4Y16385   2.895   7.689  10.017  0.0675  0.7854  0.6786
  148SAPE   C3516386   2.994   7.663   9.827  0.3571 -0.2757  0.4874
  148SAPE   H5X16387   2.955   7.561   9.806 -0.2320  0.0872 -0.1917
  148SAPE   H5Y16388   3.095   7.670   9.780  0.3227  2.5090  0.6329
  148SAPE   C3616389   2.902   7.768   9.754 -0.4502  0.1106 -0.8774
  148SAPE   H6X16390   2.938   7.871   9.772 -2.6701  1.0920 -1.7284
  148SAPE   H6Y16391   2.800   7.764   9.796 -0.6597 -1.1587 -1.4467
  148SAPE   C3716392   2.905   7.746   9.599 -0.2544 -0.2289 -0.5025
  148SAPE   H7X16393   2.877   7.640   9.578  0.2119 -0.5297  0.3608
  148SAPE   H7Y16394   3.003   7.763   9.550  0.2048  0.4852  0.6314
  148SAPE   C3816395   2.817   7.840   9.521 -0.0405  0.3405 -0.3547
  148SAPE   H8X16396   2.847   7.940   9.557  0.5518 -1.0591  3.5065
  148SAPE   H8Y16397   2.713   7.818   9.551  0.2893 -0.2866  0.3864
  148SAPE   C3916398   2.840   7.825   9.369 -0.0135 -0.1759 -0.1902
  148SAPE   H9X16399   2.827   7.723   9.327  0.4971 -0.0220 -0.7307
  148SAPE   H9Y16400   2.944   7.849   9.337 -0.6800  0.0293 -2.4267
  148SAPE  C31016401   2.747   7.926   9.298  0.3538  0.0511  0.2238
  148SAPE  H10X16402   2.763   8.034   9.315 -0.6134  0.4846 -1.3732
  148SAPE  H10Y16403   2.647   7.903   9.340  1.0631 -0.8679  1.4876
  148SAPE  C31116404   2.749   7.898   9.147  0.7599 -0.0447  0.2996
  148SAPE  H11X16405   2.758   7.788   9.133  0.5875  0.0604 -0.6493
  148SAPE  H11Y16406   2.844   7.932   9.100  1.1385 -1.0349  0.3051
  148SAPE  C31216407   2.633   7.944   9.059  0.8327 -0.9335 -0.6006
  148SAPE  H12X16408   2.642   8.053   9.077 -1.6200 -0.7476 -0.1087
  148SAPE  H12Y16409   2.535   7.904   9.094  1.9693 -2.1771  1.4074
  148SAPE  C31316410   2.637   7.915   8.907 -0.2477 -0.0521 -0.0638
  148SAPE  H13X16411   2.741   7.922   8.869  0.3297 -1.3979  1.1649
  148SAPE  H13Y16412   2.570   7.984   8.852 -2.1430 -1.5781  0.1904
  148SAPE  C31416413   2.586   7.771   8.877  0.0825 -0.9344  0.0651
  148SAPE  H14X16414   2.480   7.767   8.909  0.2218 -2.3233  0.4078
  148SAPE  H14Y16415   2.646   7.703   8.940 -0.5158 -0.1249  1.5555
  148SAPE  C31516416   2.581   7.736   8.721 -0.1308 -0.7609  0.4918
  148SAPE  H15X16417   2.513   7.811   8.677 -0.6430 -1.0655  0.7513
  148SAPE  H15Y16418   2.537   7.635   8.705  1.4728 -1.4369  0.1249
  148SAPE  C31616419   2.720   7.733   8.662 -0.2976 -0.3723  0.3399
  148SAPE  H16X16420   2.777   7.663   8.727 -1.7083 -0.5896  1.3945
  148SAPE  H16Y16421   2.775   7.830   8.667 -0.7021 -0.1868  1.3780
  148SAPE  C31716422   2.711   7.673   8.523 -0.3634  0.1286  0.5287
  148SAPE  H17X16423   2.661   7.747   8.456 -0.8080 -0.1857  0.5117
  148SAPE  H17Y16424   2.643   7.586   8.535 -0.8966  0.3599 -0.6676
  148SAPE  C31816425   2.842   7.632   8.464 -0.4720 -0.5221  0.0153
  148SAPE  H18X16426   2.897   7.573   8.540 -0.9912 -0.2251  0.6343
  148SAPE  H18Y16427   2.901   7.719   8.428 -2.3692  0.6393 -0.4065
  148SAPE  H18Z16428   2.838   7.566   8.375  2.0030 -0.5121 -0.1850
  149SAPE     N16429   5.425   3.273  10.842 -0.5000  0.6382  0.3629
  149SAPE   HN116430   5.344   3.221  10.880  0.4617 -1.6887 -0.5658
  149SAPE   HN216431   5.498   3.250  10.912 -0.1097 -0.3615 -0.3317
  149SAPE   HN316432   5.415   3.376  10.836  1.4451  0.7792 -2.8531
  149SAPE   C1216433   5.466   3.221  10.697  0.7994  0.3887  0.0371
  149SAPE  H12A16434   5.382   3.245  10.629 -0.9407  1.7220  2.4838
  149SAPE  H12B16435   5.482   3.111  10.702 -1.5848 -0.1162 -1.8103
  149SAPE   C1116436   5.592   3.294  10.641 -0.3176 -0.2608 -0.1621
  149SAPE  H11A16437   5.562   3.398  10.617 -1.7277 -0.5918  0.0608
  149SAPE  H11B16438   5.620   3.252  10.542  0.6288  2.2477 -1.0399
  149SAPE     P16439   5.823   3.226  10.771 -0.3184  0.0261 -0.1602
  149SAPE   O1316440   5.869   3.293  10.892 -0.0885  0.2821  0.0896
  149SAPE   O1416441   5.792   3.084  10.772 -0.1437 -0.5771 -0.4129
  149SAPE   O1216442   5.690   3.301  10.735 -0.8961 -0.1667  0.1722
  149SAPE   O1116443   5.925   3.259  10.650  0.0880 -0.0176  0.5797
  149SAPE    C116444   6.021   3.356  10.658 -0.0693  0.1282  1.0497
  149SAPE    HA16445   6.050   3.396  10.757  1.2145  0.9004  0.3980
  149SAPE    HB16446   6.114   3.327  10.605 -1.4222 -2.2684 -0.1857
  149SAPE    C216447   5.974   3.490  10.596  0.0038  0.3851 -0.2003
  149SAPE    HS16448   5.891   3.528  10.661 -0.4893  0.4034 -0.8330
  149SAPE   O2116449   5.940   3.476  10.456 -0.2313 -0.4138 -0.0917
  149SAPE   C2116450   5.823   3.508  10.419 -0.0410 -0.9131 -0.7370
  149SAPE   O2216451   5.734   3.545  10.495  0.3587  0.0611 -0.1509
  149SAPE   C2216452   5.807   3.491  10.266  0.0236  0.0039 -0.3905
  149SAPE   H2R16453   5.905   3.460  10.223  0.8114 -1.9808  2.5140
  149SAPE   H2S16454   5.738   3.406  10.250 -0.3821  0.5507 -1.7487
  149SAPE    C316455   6.092   3.591  10.613  0.3560 -0.2088  0.1244
  149SAPE    HX16456   6.185   3.554  10.564  1.3023  2.0791  0.0793
  149SAPE    HY16457   6.107   3.591  10.723  0.4712 -0.1808  0.1084
  149SAPE   O3116458   6.048   3.715  10.561  0.6886 -0.2285 -0.0416
  149SAPE   C3116459   6.141   3.794  10.524 -0.0215 -0.3755 -1.0324
  149SAPE   O3216460   6.262   3.782  10.556  0.3901  0.2395  0.1781
  149SAPE   C3216461   6.069   3.914  10.463  0.4989  0.2446  0.8889
  149SAPE   H2X16462   6.152   3.982  10.431  1.1976 -0.9869  0.0096
  149SAPE   H2Y16463   6.002   3.963  10.537  0.1218  0.2552  0.5409
  149SAPE   C2316464   5.747   3.623  10.199  0.6703  0.7646 -0.3569
  149SAPE   H3R16465   5.826   3.701  10.190  1.3644  0.4060  2.0419
  149SAPE   H3S16466   5.666   3.660  10.266  3.0689 -1.6415  4.3360
  149SAPE   C2416467   5.680   3.574  10.067 -0.0722 -0.1197 -0.9018
  149SAPE   H4R16468   5.615   3.486  10.085  1.0977 -0.6433  1.1295
  149SAPE   H4S16469   5.765   3.538  10.006  0.2499 -1.4075  0.2681
  149SAPE   C2516470   5.590   3.674   9.999  0.3167  0.0291  0.9356
  149SAPE   H5R16471   5.610   3.777  10.035 -1.5686 -0.1949  2.8228
  149SAPE   C2616472   5.495   3.653   9.903 -0.3024 -1.0311  0.5175
  149SAPE   H6R16473   5.449   3.745   9.863  1.2254 -0.5020 -0.1264
  149SAPE   C2716474   5.453   3.526   9.844  0.1863 -0.0566  0.5377
  149SAPE   H7R16475   5.350   3.527   9.802  0.9878 -2.3106 -1.7293
  149SAPE   H7S16476   5.444   3.448   9.923 -0.8831 -1.6817 -1.0932
  149SAPE   C2816477   5.550   3.480   9.737  0.0666 -0.3117 -0.0437
  149SAPE   H8R16478   5.631   3.415   9.773  3.1169  2.0038 -2.1510
  149SAPE   C2916479   5.535   3.503   9.601 -0.6865  0.1224 -0.2318
  149SAPE   H9R16480   5.592   3.445   9.527 -2.7120 -2.0658 -0.1659
  149SAPE  C21016481   5.429   3.582   9.534 -0.5746  0.4341 -0.4795
  149SAPE  H10R16482   5.355   3.630   9.602  0.9115  1.0049  0.8041
  149SAPE  H10S16483   5.376   3.501   9.479 -0.9170  0.2662  0.0869
  149SAPE  C21116484   5.487   3.692   9.446 -0.6531  0.1477 -0.6662
  149SAPE  H11R16485   5.568   3.748   9.493 -0.3575 -0.3559 -0.5658
  149SAPE  C21216486   5.463   3.706   9.316 -0.0064 -0.3050  0.2821
  149SAPE  H12R16487   5.510   3.791   9.264 -1.5782  1.4350  1.5537
  149SAPE  C21316488   5.375   3.627   9.228  0.4325  0.8648  0.1603
  149SAPE  H13R16489   5.295   3.677   9.169  2.1038  3.8140  0.1941
  149SAPE  H13S16490   5.329   3.546   9.288  0.0242  1.5491  0.7949
  149SAPE  C21416491   5.468   3.567   9.121 -0.0643  0.8619  0.2179
  149SAPE  H14R16492   5.509   3.474   9.162 -2.0422 -0.9618 -1.7028
  149SAPE  C21516493   5.489   3.618   9.000 -1.1846 -1.0689  0.3001
  149SAPE  H15R16494   5.549   3.551   8.937 -1.9461 -2.8034  1.3359
  149SAPE  C21616495   5.426   3.746   8.946 -0.0084 -0.2355  0.7633
  149SAPE  H16R16496   5.448   3.832   9.012  1.1498  0.4570 -0.4929
  149SAPE  H16S16497   5.316   3.739   8.933 -0.2344  1.3423  1.6516
  149SAPE  C21716498   5.491   3.773   8.807 -0.4717  0.9653 -0.2523
  149SAPE  H17R16499   5.600   3.776   8.828 -0.5476 -0.2918  0.3933
  149SAPE  H17S16500   5.473   3.878   8.775  0.7185  1.8401  1.7933
  149SAPE  C21816501   5.449   3.680   8.692 -0.4461  0.7429  0.3657
  149SAPE  H18R16502   5.341   3.678   8.665 -0.5885 -2.1173  0.8587
  149SAPE  H18S16503   5.474   3.576   8.720  1.3187  1.4135  1.4809
  149SAPE  C21916504   5.535   3.706   8.562  0.9494 -0.8818  0.1044
  149SAPE  H19R16505   5.540   3.816   8.553  0.2933 -0.5400  3.0536
  149SAPE  H19S16506   5.497   3.652   8.472  0.5733 -0.3950 -0.0350
  149SAPE  C22016507   5.680   3.679   8.576 -0.1264  0.6012  0.5306
  149SAPE  H20R16508   5.727   3.728   8.664 -0.1091  1.0521  0.2711
  149SAPE  H20S16509   5.731   3.718   8.485  0.6595 -0.5591  0.4439
  149SAPE  H20T16510   5.704   3.570   8.580  2.2519  1.0285 -0.4137
  149SAPE   C3316511   5.979   3.875  10.339 -0.5376  0.3022 -0.2109
  149SAPE   H3X16512   5.901   3.803  10.374  0.2399  0.1529  1.2889
  149SAPE   H3Y16513   6.043   3.821  10.267  0.2464 -1.4746  1.7179
  149SAPE   C3416514   5.898   3.982  10.270  0.6066 -0.0062 -0.4864
  149SAPE   H4X16515   5.859   4.066  10.331 -1.5096  0.4573 -2.3184
  149SAPE   H4Y16516   5.804   3.936  10.233  1.5411 -1.9842 -0.5474
  149SAPE   C3516517   5.974   4.028  10.146  0.0921  0.2838 -0.3649
  149SAPE   H5X16518   6.076   4.058  10.176 -0.7438  1.1914  1.7523
  149SAPE   H5Y16519   5.922   4.122  10.115 -2.1228 -1.1421 -1.2410
  149SAPE   C3616520   5.978   3.935  10.025  0.1434  0.5311  0.3893
  149SAPE   H6X16521   5.881   3.881  10.023 -1.1309  2.6692  0.8968
  149SAPE   H6Y16522   6.063   3.865  10.041  0.6240 -0.1925 -4.1748
  149SAPE   C3716523   5.989   4.007   9.894  0.1170 -0.0511 -0.2216
  149SAPE   H7X16524   6.068   4.084   9.905 -0.5820  0.8296 -1.1605
  149SAPE   H7Y16525   5.899   4.068   9.873 -0.8654 -1.7007 -1.0079
  149SAPE   C3816526   6.006   3.901   9.778 -0.2923 -0.0477 -0.6456
  149SAPE   H8X16527   6.079   3.818   9.791 -1.1971 -0.5614  1.6352
  149SAPE   H8Y16528   6.045   3.955   9.689  2.5900 -1.1086 -0.1558
  149SAPE   C3916529   5.875   3.824   9.751  0.1104 -0.2306  0.4268
  149SAPE   H9X16530   5.796   3.897   9.721  0.1159 -1.1418 -2.0179
  149SAPE   H9Y16531   5.834   3.760   9.831  0.3409 -2.2955 -1.0388
  149SAPE  C31016532   5.900   3.731   9.630  0.3117  0.1783  0.3849
  149SAPE  H10X16533   5.803   3.683   9.606  0.7862  0.2848 -1.9453
  149SAPE  H10Y16534   5.974   3.650   9.648  0.0272 -0.2160 -0.2176
  149SAPE  C31116535   5.943   3.814   9.509 -0.9059  0.3593  0.5183
  149SAPE  H11X16536   6.054   3.822   9.511 -0.8986  0.3345  0.2629
  149SAPE  H11Y16537   5.890   3.911   9.519  1.0201  1.7242 -1.5623
  149SAPE  C31216538   5.899   3.753   9.366 -0.7156 -0.0025 -0.0770
  149SAPE  H12X16539   5.789   3.739   9.362 -0.8743  1.1998 -0.1487
  149SAPE  H12Y16540   5.953   3.657   9.352 -0.0100  0.5437 -1.2404
  149SAPE  C31316541   5.924   3.847   9.251 -0.4817  0.7459  0.0321
  149SAPE  H13X16542   6.027   3.889   9.252  1.0279 -2.6901 -0.0271
  149SAPE  H13Y16543   5.839   3.919   9.259 -1.0662  0.2302 -1.2093
  149SAPE  C31416544   5.905   3.785   9.108 -0.5840 -0.0196 -0.1375
  149SAPE  H14X16545   5.895   3.867   9.034  0.3362  0.2936  0.0762
  149SAPE  H14Y16546   5.807   3.733   9.107  0.1259 -1.6218 -4.1283
  149SAPE  C31516547   6.018   3.689   9.072  0.5642  0.4777 -0.2964
  149SAPE  H15X16548   5.968   3.610   9.013  1.2858 -0.9489  0.9371
  149SAPE  H15Y16549   6.052   3.624   9.156 -0.0018 -1.4179 -1.4898
  149SAPE  C31616550   6.134   3.749   8.997  0.4271  0.0796 -0.6804
  149SAPE  H16X16551   6.208   3.667   8.984  1.0421  0.2924  1.2753
  149SAPE  H16Y16552   6.177   3.838   9.047 -0.2166  0.7915 -1.3698
  149SAPE  C31716553   6.096   3.803   8.857  0.1929  0.1098 -0.7180
  149SAPE  H17X16554   6.192   3.838   8.815  0.9580  0.1115  0.9512
  149SAPE  H17Y16555   6.036   3.896   8.871  0.2643 -0.1906  2.2592
  149SAPE  C31816556   6.013   3.714   8.764 -0.1554 -0.2275 -0.6823
  149SAPE  H18X16557   5.934   3.655   8.816  1.7312 -0.8659  1.6591
  149SAPE  H18Y16558   6.084   3.635   8.731  1.1301 -1.2444  3.8222
  149SAPE  H18Z16559   5.964   3.777   8.687 -1.1796  0.0509  0.1755
  150SAPE     N16560   0.657   2.457  10.622 -0.4007 -0.3251 -0.4638
  150SAPE   HN116561   0.668   2.450  10.519 -1.3780  1.0385 -0.6876
  150SAPE   HN216562   0.751   2.446  10.665 -1.4658 -4.2630  1.4408
  150SAPE   HN316563   0.593   2.390  10.671  0.9944  0.1187  2.1611
  150SAPE   C1216564   0.620   2.597  10.653  0.3075 -0.2788  0.1543
  150SAPE  H12A16565   0.670   2.672  10.588 -0.5884  0.6692  0.5375
  150SAPE  H12B16566   0.652   2.618  10.757  0.9268 -0.6334  0.0380
  150SAPE   C1116567   0.466   2.616  10.653  0.4341  0.0603  0.2975
  150SAPE  H11A16568   0.420   2.571  10.563 -0.2574  3.1084 -0.9987
  150SAPE  H11B16569   0.451   2.725  10.639 -0.4293 -0.1432 -0.3831
  150SAPE     P16570   0.239   2.598  10.782  0.0432  0.0349 -0.1978
  150SAPE   O1316571   0.175   2.504  10.687 -0.1142  0.0238 -0.5658
  150SAPE   O1416572   0.195   2.601  10.922  0.9149 -0.4426  0.6620
  150SAPE   O1216573   0.394   2.575  10.771 -0.8944 -0.0885 -0.0525
  150SAPE   O1116574   0.219   2.739  10.716 -0.0889 -0.7568  0.5631
  150SAPE    C116575   0.103   2.766  10.638 -0.0618  0.7392 -0.4623
  150SAPE    HA16576   0.012   2.726  10.686  1.1466  1.0722  2.2973
  150SAPE    HB16577   0.084   2.874  10.621 -0.6279  1.2097  2.6972
  150SAPE    C216578   0.112   2.716  10.496 -0.0848 -0.5475  0.1915
  150SAPE    HS16579   0.105   2.605  10.497 -2.1609 -0.4650  0.1568
  150SAPE   O2116580   0.238   2.768  10.437  0.0366 -0.5653  0.3160
  150SAPE   C2116581   0.292   2.689  10.347 -0.1847  1.2843 -0.0246
  150SAPE   O2216582   0.268   2.571  10.328 -0.4086 -0.4472 -0.3821
  150SAPE   C2216583   0.404   2.766  10.293 -0.1623 -0.2344 -0.1361
  150SAPE   H2R16584   0.431   2.846  10.366  1.8156 -1.9143  1.0808
  150SAPE   H2S16585   0.485   2.690  10.298 -0.6839 -0.7327  2.2901
  150SAPE    C316586  -0.018   2.769  10.419 -0.1407 -0.5784 -0.0368
  150SAPE    HX16587  -0.008   2.880  10.410  2.7270 -0.6625  1.0086
  150SAPE    HY16588  -0.113   2.750  10.472 -2.2604 -0.0631 -3.3535
  150SAPE   O3116589  -0.006   2.717  10.286  0.2503  0.4763  0.1780
  150SAPE   C3116590  -0.070   2.602  10.271 -0.3786  0.8270  0.6066
  150SAPE   O3216591  -0.143   2.545  10.343 -0.2067  0.0062 -0.0587
  150SAPE   C3216592  -0.053   2.561  10.119 -0.0022  0.1767 -0.3129
  150SAPE   H2X16593   0.046   2.511  10.121 -0.3928 -0.6787  2.6200
  150SAPE   H2Y16594  -0.037   2.660  10.071  0.2125  1.1254  1.5997
  150SAPE   C2316595   0.391   2.809  10.145  0.1728  1.0850 -0.3406
  150SAPE   H3R16596   0.313   2.887  10.139 -2.3020 -1.1510  0.9774
  150SAPE   H3S16597   0.360   2.722  10.083 -1.1576 -0.2262  2.0361
  150SAPE   C2416598   0.528   2.856  10.096 -0.0499  0.8687 -0.5214
  150SAPE   H4R16599   0.605   2.777  10.109  0.2052  1.3302  1.0267
  150SAPE   H4S16600   0.553   2.946  10.157 -2.2996  0.7242  0.7356
  150SAPE   C2516601   0.510   2.902   9.952 -0.5933 -0.6134 -0.6965
  150SAPE   H5R16602   0.427   2.972   9.931  0.7392  1.0330 -0.7271
  150SAPE   C2616603   0.587   2.874   9.846  0.0667 -0.1580  0.0395
  150SAPE   H6R16604   0.576   2.940   9.759  2.2208  1.9852  1.2807
  150SAPE   C2716605   0.718   2.799   9.849  0.2300 -0.3036 -0.1529
  150SAPE   H7R16606   0.737   2.747   9.946  0.8645 -1.0951 -0.6861
  150SAPE   H7S16607   0.803   2.870   9.849 -0.5080  0.7586 -3.3201
  150SAPE   C2816608   0.741   2.699   9.742  0.2902 -0.1545 -0.1637
  150SAPE   H8R16609   0.665   2.621   9.727  0.3238 -0.2889  0.3706
  150SAPE   C2916610   0.841   2.691   9.653 -0.2129  0.2157  0.2354
  150SAPE   H9R16611   0.853   2.603   9.588  0.6939  1.2114 -1.0098
  150SAPE  C21016612   0.955   2.787   9.638 -0.0314  1.0869 -0.1185
  150SAPE  H10R16613   1.051   2.746   9.677  0.5888  2.7228  0.1738
  150SAPE  H10S16614   0.934   2.878   9.699  0.1235  0.6677  0.5731
  150SAPE  C21116615   0.984   2.825   9.495 -0.3589  0.4157 -0.3988
  150SAPE  H11R16616   1.057   2.762   9.441 -1.2356  0.2781 -1.4513
  150SAPE  C21216617   0.914   2.925   9.432  0.1327  0.2580 -0.0964
  150SAPE  H12R16618   0.932   2.950   9.326  2.0098  1.8645  0.5331
  150SAPE  C21316619   0.801   3.007   9.492  0.9829 -0.3599  0.3228
  150SAPE  H13R16620   0.827   3.068   9.581 -2.0607  0.9628  0.4292
  150SAPE  H13S16621   0.721   2.944   9.537  0.0510 -0.0122 -0.8272
  150SAPE  C21416622   0.731   3.106   9.392 -0.3764 -0.0639  0.1560
  150SAPE  H14R16623   0.779   3.205   9.391 -0.8046  0.1528  0.4710
  150SAPE  C21516624   0.639   3.085   9.294  0.5059  0.8138 -0.4582
  150SAPE  H15R16625   0.597   3.166   9.233  0.3700  0.8701 -0.2940
  150SAPE  C21616626   0.562   2.955   9.284  0.1634  0.0997  0.2014
  150SAPE  H16R16627   0.474   2.953   9.351 -0.7580  0.6015 -0.9662
  150SAPE  H16S16628   0.628   2.871   9.315 -1.5636 -1.7470 -0.8838
  150SAPE  C21716629   0.499   2.942   9.143 -0.6429  0.1790  0.5505
  150SAPE  H17R16630   0.443   3.035   9.119 -1.3803 -0.0595  1.3099
  150SAPE  H17S16631   0.419   2.865   9.145 -1.5695  1.0894  3.2654
  150SAPE  C21816632   0.606   2.924   9.036 -0.9119  0.4168 -0.0202
  150SAPE  H18R16633   0.687   2.860   9.077  0.5660  2.6322  0.6515
  150SAPE  H18S16634   0.658   3.018   9.010 -2.5105  1.0832 -0.9717
  150SAPE  C21916635   0.556   2.881   8.903  0.3793  0.1425  0.7223
  150SAPE  H19R16636   0.459   2.928   8.876 -0.3289 -2.2692 -1.4490
  150SAPE  H19S16637   0.525   2.774   8.912 -0.3912  0.2203 -0.7154
  150SAPE  C22016638   0.658   2.890   8.787 -0.1363  0.1260 -0.5193
  150SAPE  H20R16639   0.683   2.991   8.750  0.6583 -0.1725 -0.8304
  150SAPE  H20S16640   0.613   2.837   8.700  0.7859  0.0906 -0.9846
  150SAPE  H20T16641   0.754   2.842   8.818 -0.8895 -0.8241  0.4441
  150SAPE   C3316642  -0.167   2.473  10.056 -0.0426 -0.2231  0.0478
  150SAPE   H3X16643  -0.260   2.532  10.037  1.0119  2.3694  2.2551
  150SAPE   H3Y16644  -0.189   2.384  10.119  0.6450  0.1609  0.8562
  150SAPE   C3416645  -0.136   2.415   9.923 -0.1487  0.6603 -0.5907
  150SAPE   H4X16646  -0.220   2.360   9.876  1.0636 -0.5243 -1.4396
  150SAPE   H4Y16647  -0.053   2.341   9.933  0.9134  1.9159  0.1917
  150SAPE   C3516648  -0.111   2.518   9.813  0.2329 -0.7695  0.5224
  150SAPE   H5X16649  -0.012   2.567   9.822 -0.8018  1.2597  1.5225
  150SAPE   H5Y16650  -0.195   2.591   9.814  0.8585  0.0035 -0.9949
  150SAPE   C3616651  -0.101   2.446   9.674  0.4652  0.5139 -0.6012
  150SAPE   H6X16652  -0.185   2.375   9.658  0.3029  0.9030 -1.4985
  150SAPE   H6Y16653  -0.015   2.379   9.694  0.3073  0.5970  0.4494
  150SAPE   C3716654  -0.095   2.534   9.555 -0.1315 -0.1780 -0.3069
  150SAPE   H7X16655  -0.007   2.602   9.558  0.8548 -1.3446 -1.3948
  150SAPE   H7Y16656  -0.184   2.597   9.539  0.2662  1.4335  2.9622
  150SAPE   C3816657  -0.085   2.444   9.431  0.0294 -0.0641  0.0048
  150SAPE   H8X16658  -0.182   2.389   9.426  0.5893 -0.9829 -1.1949
  150SAPE   H8Y16659  -0.001   2.376   9.453  1.1527  0.9995 -0.8650
  150SAPE   C3916660  -0.047   2.523   9.302  0.3161 -0.1483 -0.7906
  150SAPE   H9X16661   0.038   2.585   9.336 -0.1143  0.5886 -1.0378
  150SAPE   H9Y16662  -0.130   2.593   9.277 -2.9716 -3.7648 -0.9677
  150SAPE  C31016663  -0.026   2.432   9.181  0.0905  0.3956  0.2479
  150SAPE  H10X16664  -0.121   2.385   9.146 -0.3811  2.1921 -1.0608
  150SAPE  H10Y16665   0.044   2.348   9.202  2.1079  1.7877 -0.5839
  150SAPE  C31116666   0.025   2.498   9.057 -0.2161 -0.5481  0.0249
  150SAPE  H11X16667   0.110   2.547   9.109 -1.7904  1.4996  0.8125
  150SAPE  H11Y16668  -0.038   2.581   9.018  2.4044  2.6535  2.0019
  150SAPE  C31216669   0.067   2.408   8.940  0.0634 -0.2877  0.5430
  150SAPE  H12X16670  -0.019   2.360   8.888  1.3352 -0.0980 -1.8466
  150SAPE  H12Y16671   0.135   2.325   8.969  1.4613  0.8070  0.4824
  150SAPE  C31316672   0.138   2.486   8.828  0.0130  0.2260 -0.4331
  150SAPE  H13X16673   0.225   2.538   8.873  0.5977 -0.8358 -0.3116
  150SAPE  H13Y16674   0.075   2.562   8.777 -0.6191 -0.2076 -0.3132
  150SAPE  C31416675   0.203   2.397   8.726  0.0232  0.0046  0.1353
  150SAPE  H14X16676   0.120   2.349   8.671  0.1830 -0.3458  0.1978
  150SAPE  H14Y16677   0.268   2.315   8.762 -0.5914 -0.2922  0.5893
  150SAPE  C31516678   0.283   2.476   8.625  0.1997 -0.1768  0.3245
  150SAPE  H15X16679   0.241   2.571   8.586  0.9457 -1.0349 -2.8335
  150SAPE  H15Y16680   0.306   2.415   8.535 -0.6006  0.6365 -0.4537
  150SAPE  C31616681   0.425   2.510   8.664 -0.6444  0.2551 -0.0580
  150SAPE  H16X16682   0.474   2.421   8.709 -0.5845 -0.0968 -0.7975
  150SAPE  H16Y16683   0.411   2.582   8.747  0.0773 -0.6980  0.9225
  150SAPE  C31716684   0.519   2.559   8.551  0.2847 -0.0606  0.1173
  150SAPE  H17X16685   0.535   2.497   8.460  1.5742  2.3112 -1.3652
  150SAPE  H17Y16686   0.618   2.580   8.597 -0.3181  1.6021  0.7365
  150SAPE  C31816687   0.466   2.692   8.492 -0.3371  0.1392 -0.6656
  150SAPE  H18X16688   0.372   2.678   8.435 -1.2273  1.4859  0.3931
  150SAPE  H18Y16689   0.534   2.736   8.416  0.6982  1.6592  1.0562
  150SAPE  H18Z16690   0.441   2.769   8.569  1.1192  0.8778 -0.8914
  151SAPE     N16691   5.496   5.788  10.585  0.0298 -0.2758 -0.2379
  151SAPE   HN116692   5.487   5.783  10.481  0.2561  2.4658 -0.4619
  151SAPE   HN216693   5.493   5.690  10.621  1.0703 -0.8316 -1.5496
  151SAPE   HN316694   5.418   5.842  10.627 -0.5749 -2.2291  1.3379
  151SAPE   C1216695   5.620   5.862  10.637  0.3556 -0.5345  0.5678
  151SAPE  H12A16696   5.690   5.864  10.551 -0.9707 -0.9830 -0.5767
  151SAPE  H12B16697   5.650   5.802  10.725  0.4000  0.8774  1.5407
  151SAPE   C1116698   5.579   6.000  10.693 -0.6459  0.3428  0.3496
  151SAPE  H11A16699   5.671   6.061  10.708 -0.5991  0.3432  0.0601
  151SAPE  H11B16700   5.524   5.994  10.789 -0.4133  2.6959  0.6744
  151SAPE     P16701   5.550   6.125  10.460 -0.0615 -0.4092 -0.0903
  151SAPE   O1316702   5.488   6.253  10.419  0.0472  0.3600 -0.2187
  151SAPE   O1416703   5.693   6.112  10.449 -0.3737  0.3312  0.0051
  151SAPE   O1216704   5.502   6.075  10.604  0.0481 -0.0711 -0.0711
  151SAPE   O1116705   5.472   6.016  10.372 -0.1296 -0.7085 -0.6271
  151SAPE    C116706   5.532   5.963  10.254 -0.2673  0.4141 -0.0025
  151SAPE    HA16707   5.640   5.991  10.257 -0.3035  0.5000  0.5897
  151SAPE    HB16708   5.522   5.853  10.251  0.9875  0.2992 -0.8333
  151SAPE    C216709   5.445   6.015  10.140 -0.0574  0.8692 -0.3611
  151SAPE    HS16710   5.486   5.957  10.055 -0.4956  0.3489 -0.2196
  151SAPE   O2116711   5.461   6.158  10.132  0.2430  0.0749  0.6963
  151SAPE   C2116712   5.571   6.208  10.076  0.6844  0.7993 -0.5298
  151SAPE   O2216713   5.665   6.142  10.036  0.1766  0.4976  0.2279
  151SAPE   C2216714   5.568   6.354  10.064  0.8993 -0.2875  0.5079
  151SAPE   H2R16715   5.545   6.398  10.164 -0.4754 -0.6268  0.3613
  151SAPE   H2S16716   5.666   6.393  10.029  1.0736 -1.4279 -0.3264
  151SAPE    C316717   5.297   5.979  10.165  0.1975  0.3555 -0.3520
  151SAPE    HX16718   5.249   6.032  10.250 -2.0248  0.7727 -1.7752
  151SAPE    HY16719   5.300   5.871  10.193  0.7993  0.3602 -0.3892
  151SAPE   O3116720   5.217   5.983  10.044  0.2859 -0.0707 -0.2609
  151SAPE   C3116721   5.165   6.104  10.027 -0.3189  0.4452 -0.2203
  151SAPE   O3216722   5.173   6.199  10.105 -0.1430 -0.1092 -0.4559
  151SAPE   C3216723   5.104   6.111   9.896 -0.0981 -0.3117  0.7048
  151SAPE   H2X16724   5.166   6.036   9.843 -0.5993 -0.6947  0.6615
  151SAPE   H2Y16725   5.126   6.216   9.866 -1.4940  0.7675  3.1681
  151SAPE   C2316726   5.458   6.399   9.967  0.6068 -0.1976 -0.2614
  151SAPE   H3R16727   5.436   6.505   9.993  0.0394 -0.3331 -0.1716
  151SAPE   H3S16728   5.364   6.342   9.982  1.5236 -1.6876 -0.0571
  151SAPE   C2416729   5.495   6.404   9.822 -0.0278  0.3050  0.8753
  151SAPE   H4R16730   5.589   6.461   9.806 -0.0855  0.1108 -0.2903
  151SAPE   H4S16731   5.421   6.472   9.774 -0.4015 -1.7781 -1.7715
  151SAPE   C2516732   5.483   6.269   9.752 -0.7589  0.2198  0.5135
  151SAPE   H5R16733   5.532   6.184   9.802 -0.5592 -0.6998 -1.2008
  151SAPE   C2616734   5.416   6.243   9.636 -0.3250  0.0347  0.1348
  151SAPE   H6R16735   5.417   6.142   9.594  1.2928 -0.0930  0.4270
  151SAPE   C2716736   5.346   6.345   9.551 -0.5147  0.0639 -0.5585
  151SAPE   H7R16737   5.400   6.346   9.454  2.7066  2.7607  1.0295
  151SAPE   H7S16738   5.373   6.449   9.582  1.3459 -0.3216 -0.7663
  151SAPE   C2816739   5.198   6.331   9.543  0.0754  0.1546 -0.3208
  151SAPE   H8R16740   5.157   6.300   9.640 -0.8290 -3.2572 -1.6605
  151SAPE   C2916741   5.109   6.352   9.446  0.1835  0.2529  0.2344
  151SAPE   H9R16742   5.005   6.333   9.477  0.0941  1.3244  0.6582
  151SAPE  C21016743   5.126   6.404   9.306  0.1613 -0.6656 -0.1266
  151SAPE  H10R16744   5.123   6.328   9.226 -1.2951 -0.7181 -0.0419
  151SAPE  H10S16745   5.225   6.448   9.282 -0.3635  0.9209  0.5126
  151SAPE  C21116746   5.030   6.521   9.279 -0.7046 -0.0458 -0.0141
  151SAPE  H11R16747   5.046   6.607   9.346 -1.5318 -0.3624  0.6012
  151SAPE  C21216748   4.950   6.539   9.180  0.0574 -0.2135  0.5761
  151SAPE  H12R16749   4.888   6.631   9.179  1.4700  0.7755  0.2088
  151SAPE  C21316750   4.922   6.451   9.061 -0.1656 -0.2338 -0.3972
  151SAPE  H13R16751   4.818   6.472   9.030 -0.5293 -0.2356  0.7888
  151SAPE  H13S16752   4.914   6.348   9.101 -2.5960  0.0257 -0.1175
  151SAPE  C21416753   5.018   6.467   8.948  0.3563  0.6582 -0.0391
  151SAPE  H14R16754   5.106   6.532   8.962 -0.7889  1.7231  3.0699
  151SAPE  C21516755   5.000   6.412   8.830 -0.1966 -0.2413  0.5687
  151SAPE  H15R16756   5.076   6.430   8.752  0.9104 -0.7516  1.5186
  151SAPE  C21616757   4.888   6.332   8.773  0.1926  0.2274 -0.2299
  151SAPE  H16R16758   4.863   6.243   8.836  0.9185 -0.7029 -1.2173
  151SAPE  H16S16759   4.930   6.278   8.685 -0.0012  0.0940 -0.2428
  151SAPE  C21716760   4.765   6.421   8.732  0.9148  0.2760 -0.3779
  151SAPE  H17R16761   4.808   6.514   8.687  0.7005  0.8657  0.6254
  151SAPE  H17S16762   4.705   6.458   8.817  0.1966 -0.0189 -0.7443
  151SAPE  C21816763   4.671   6.366   8.625 -0.1907  0.6886 -0.6150
  151SAPE  H18R16764   4.592   6.445   8.627  0.5575  1.4562 -0.6988
  151SAPE  H18S16765   4.628   6.267   8.651 -0.2160  0.8716  0.0624
  151SAPE  C21916766   4.734   6.375   8.487 -0.9595  0.5076  0.1328
  151SAPE  H19R16767   4.810   6.294   8.487 -2.2198 -0.6988  0.0685
  151SAPE  H19S16768   4.776   6.473   8.455 -0.6458  0.2852 -0.1475
  151SAPE  C22016769   4.643   6.328   8.374  0.0816 -0.5037 -0.0293
  151SAPE  H20R16770   4.554   6.392   8.357  0.5008 -0.4417 -2.3369
  151SAPE  H20S16771   4.592   6.232   8.396  0.0902 -0.5847 -0.3527
  151SAPE  H20T16772   4.701   6.329   8.279 -1.2661  0.1950 -0.8835
  151SAPE   C3316773   4.952   6.095   9.888 -0.7233  0.4003  0.5493
  151SAPE   H3X16774   4.902   6.175   9.948  0.5547 -0.2741  2.6075
  151SAPE   H3Y16775   4.923   5.994   9.923 -0.3573 -0.6726 -2.0113
  151SAPE   C3416776   4.908   6.104   9.742 -0.1543 -0.6151  0.2645
  151SAPE   H4X16777   4.969   6.034   9.681 -2.3598 -0.3144 -2.4728
  151SAPE   H4Y16778   4.926   6.207   9.706  0.4254 -0.6521  0.4372
  151SAPE   C3516779   4.755   6.071   9.706 -0.2990 -0.1353 -0.3448
  151SAPE   H5X16780   4.693   6.130   9.777  0.2390  1.2317 -0.9739
  151SAPE   H5Y16781   4.742   5.960   9.708  0.3366 -0.2586 -1.7995
  151SAPE   C3616782   4.724   6.125   9.560  0.2299  0.4953 -0.5528
  151SAPE   H6X16783   4.743   6.234   9.575 -3.2445  0.8786  2.4688
  151SAPE   H6Y16784   4.615   6.106   9.553  0.5975 -1.5834 -1.2496
  151SAPE   C3716785   4.805   6.064   9.450 -0.2708 -0.1226  0.8597
  151SAPE   H7X16786   4.820   5.956   9.472 -1.3966 -0.3728  0.4449
  151SAPE   H7Y16787   4.906   6.110   9.456 -0.0748 -0.5803  1.1810
  151SAPE   C3816788   4.770   6.096   9.300 -0.3497 -0.5911 -0.9019
  151SAPE   H8X16789   4.762   6.207   9.296  0.0722 -0.5365 -0.3213
  151SAPE   H8Y16790   4.674   6.052   9.267 -1.5117  2.8992 -2.7046
  151SAPE   C3916791   4.876   6.042   9.198  0.3456 -0.6803 -0.0880
  151SAPE   H9X16792   4.977   6.086   9.214  1.5980 -2.7525 -1.7778
  151SAPE   H9Y16793   4.850   6.061   9.092  0.7624 -0.7713 -0.2071
  151SAPE  C31016794   4.876   5.892   9.187  0.4261 -0.1805 -0.0578
  151SAPE  H10X16795   4.776   5.852   9.162  0.0299 -0.9400  2.3967
  151SAPE  H10Y16796   4.914   5.846   9.281 -0.0038  0.5253  0.4758
  151SAPE  C31116797   4.972   5.842   9.074 -0.1293 -0.3250  0.1437
  151SAPE  H11X16798   5.060   5.910   9.078 -0.7827  0.6160 -0.9919
  151SAPE  H11Y16799   4.924   5.865   8.977 -0.7348  0.0932  0.5319
  151SAPE  C31216800   5.010   5.692   9.084  0.3484 -0.4008 -0.4077
  151SAPE  H12X16801   4.925   5.624   9.063  1.0799 -1.3975 -0.1847
  151SAPE  H12Y16802   5.042   5.670   9.187  0.2985  0.1568 -0.2687
  151SAPE  C31316803   5.115   5.654   8.978  0.3091  0.1682 -0.1796
  151SAPE  H13X16804   5.204   5.719   8.990  0.0497  0.4164  0.4926
  151SAPE  H13Y16805   5.067   5.660   8.878  0.6461 -1.6084 -0.4753
  151SAPE  C31416806   5.152   5.508   8.995  0.0905 -0.3101 -0.8509
  151SAPE  H14X16807   5.061   5.445   8.987 -1.6002  1.7569  0.8694
  151SAPE  H14Y16808   5.193   5.500   9.098  0.9957  1.9751 -0.9761
  151SAPE  C31516809   5.247   5.441   8.897  0.5008  0.2735  0.7031
  151SAPE  H15X16810   5.284   5.340   8.924  2.7582  0.3135 -1.7653
  151SAPE  H15Y16811   5.345   5.494   8.889  2.7188 -3.3897  1.1511
  151SAPE  C31616812   5.175   5.423   8.764  0.3415 -0.9901  0.0524
  151SAPE  H16X16813   5.121   5.517   8.738 -0.8640 -0.9996  2.2013
  151SAPE  H16Y16814   5.097   5.344   8.771  0.9661 -1.5853  0.3521
  151SAPE  C31716815   5.277   5.402   8.657 -0.0950  0.5548  0.6001
  151SAPE  H17X16816   5.310   5.297   8.667  0.5944  0.7527  0.4573
  151SAPE  H17Y16817   5.360   5.475   8.660  0.5791  0.0134 -2.3065
  151SAPE  C31816818   5.206   5.432   8.526 -0.4411 -0.5805  0.8878
  151SAPE  H18X16819   5.145   5.523   8.546  0.5708  0.2180  0.4076
  151SAPE  H18Y16820   5.144   5.349   8.486 -1.9996  0.9011  0.0679
  151SAPE  H18Z16821   5.286   5.457   8.453  1.3141 -1.1929  2.5043
  152SAPE     N16822   6.164   5.435  10.166 -0.0584  0.3395  0.1159
  152SAPE   HN116823   6.136   5.340  10.196  2.2261 -0.1905  0.7942
  152SAPE   HN216824   6.111   5.513  10.209 -0.0538  1.1639 -1.2788
  152SAPE   HN316825   6.154   5.446  10.063  0.4984 -0.7601 -0.0696
  152SAPE   C1216826   6.307   5.444  10.208  0.0809  0.3297 -0.3292
  152SAPE  H12A16827   6.365   5.367  10.153  0.0420  0.1576 -0.1291
  152SAPE  H12B16828   6.311   5.410  10.313 -1.5269  0.5893 -0.1557
  152SAPE   C1116829   6.355   5.584  10.183  0.3148  0.5404 -0.1176
  152SAPE  H11A16830   6.353   5.589  10.072 -1.6090 -2.3912 -0.3229
  152SAPE  H11B16831   6.461   5.578  10.215 -0.0803 -0.4787  1.0716
  152SAPE     P16832   6.327   5.749  10.370 -0.4491 -0.2791  0.2091
  152SAPE   O1316833   6.245   5.870  10.393  0.4095 -0.0584 -0.5626
  152SAPE   O1416834   6.327   5.641  10.471  0.0162  0.1726  0.4039
  152SAPE   O1216835   6.279   5.690  10.233 -0.5188  0.7142  0.5128
  152SAPE   O1116836   6.473   5.803  10.351  0.1451 -0.0112 -0.0767
  152SAPE    C116837   6.513   5.929  10.297 -0.1403 -0.2475 -0.3807
  152SAPE    HA16838   6.454   6.013  10.340  2.3403  0.7621  1.3088
  152SAPE    HB16839   6.615   5.952  10.335 -0.2585 -0.8226  0.2849
  152SAPE    C216840   6.527   5.931  10.137  0.4901  0.0322 -0.0405
  152SAPE    HS16841   6.424   5.908  10.103  0.2867  0.2730  0.3918
  152SAPE   O2116842   6.635   5.846  10.088  0.1561 -0.0276  0.4117
  152SAPE   C2116843   6.613   5.825   9.956 -0.1879  0.0651 -0.0296
  152SAPE   O2216844   6.504   5.839   9.904  0.8977 -0.7721  0.0116
  152SAPE   C2216845   6.742   5.771   9.885 -0.9219  0.7831 -0.3527
  152SAPE   H2R16846   6.795   5.862   9.849  4.4283 -1.7628  0.1746
  152SAPE   H2S16847   6.803   5.717   9.960 -1.3488  0.0041 -0.5547
  152SAPE    C316848   6.559   6.076  10.095 -0.0400 -0.2390  0.6674
  152SAPE    HX16849   6.646   6.104  10.159 -0.0389 -0.5923  0.8253
  152SAPE    HY16850   6.467   6.127  10.129  1.4851  1.8164  1.9642
  152SAPE   O3116851   6.614   6.106   9.964 -0.1959  0.6013  0.2045
  152SAPE   C3116852   6.536   6.170   9.877  0.1946  0.3183 -0.0905
  152SAPE   O3216853   6.422   6.201   9.900  0.3793 -0.1229 -0.1878
  152SAPE   C3216854   6.615   6.201   9.749 -0.6276 -0.1070  0.1780
  152SAPE   H2X16855   6.666   6.107   9.719  0.9419  0.7660  0.0343
  152SAPE   H2Y16856   6.692   6.275   9.782 -0.2295  0.0557 -1.0754
  152SAPE   C2316857   6.720   5.680   9.764 -0.1231 -0.9471  0.1847
  152SAPE   H3R16858   6.670   5.735   9.682 -1.5844  0.0967  1.7190
  152SAPE   H3S16859   6.651   5.600   9.799 -1.6659  0.5425  0.6745
  152SAPE   C2416860   6.847   5.618   9.712 -0.1283  0.6922  0.4505
  152SAPE   H4R16861   6.901   5.570   9.796  0.0930 -0.5672 -0.3779
  152SAPE   H4S16862   6.909   5.702   9.675  0.0706  0.2616 -0.2237
  152SAPE   C2516863   6.846   5.515   9.605  0.6368 -0.6414  0.1991
  152SAPE   H5R16864   6.871   5.414   9.639 -0.7710 -0.4111  2.0864
  152SAPE   C2616865   6.814   5.535   9.476 -0.0774 -0.0315  0.1920
  152SAPE   H6R16866   6.816   5.442   9.416 -1.8594 -0.0318  0.0931
  152SAPE   C2716867   6.773   5.657   9.402 -0.2174 -0.2844 -0.6671
  152SAPE   H7R16868   6.686   5.710   9.447  1.7584  0.6999  2.3623
  152SAPE   H7S16869   6.744   5.617   9.303 -3.5346  1.3674 -0.5024
  152SAPE   C2816870   6.868   5.768   9.370 -0.1960  0.4186  0.5622
  152SAPE   H8R16871   6.942   5.788   9.449  1.4940  0.9291 -1.0717
  152SAPE   C2916872   6.877   5.840   9.258 -0.3381 -0.7832 -0.1386
  152SAPE   H9R16873   6.944   5.927   9.253  0.5576 -1.5279 -2.8782
  152SAPE  C21016874   6.790   5.816   9.139  0.6831 -0.0315 -0.0410
  152SAPE  H10R16875   6.764   5.708   9.131 -0.9299 -0.1688  4.3362
  152SAPE  H10S16876   6.855   5.847   9.055  1.7111  0.1434  0.7998
  152SAPE  C21116877   6.652   5.888   9.145 -0.4455  0.0161  0.0362
  152SAPE  H11R16878   6.596   5.888   9.240  1.0882  0.8670  0.9831
  152SAPE  C21216879   6.585   5.944   9.045  0.4749  0.2606  0.6208
  152SAPE  H12R16880   6.485   5.976   9.075  0.3524 -0.8343  1.4361
  152SAPE  C21316881   6.618   5.947   8.903  0.6773 -0.1577  0.5068
  152SAPE  H13R16882   6.710   5.892   8.874  1.1983  1.0899 -0.2761
  152SAPE  H13S16883   6.647   6.052   8.881  1.0820 -0.4929 -0.6327
  152SAPE  C21416884   6.495   5.891   8.833 -0.0226 -0.0959  0.1821
  152SAPE  H14R16885   6.472   5.786   8.853 -1.1701  0.1108  0.0039
  152SAPE  C21516886   6.432   5.955   8.732  0.0430  0.2588  0.6230
  152SAPE  H15R16887   6.347   5.920   8.673  0.3983 -0.3573  0.4650
  152SAPE  C21616888   6.471   6.087   8.671 -0.7028 -0.2963  0.1888
  152SAPE  H16R16889   6.572   6.131   8.690 -1.2928  1.3761 -0.3216
  152SAPE  H16S16890   6.396   6.166   8.693  1.9550  2.3634  0.3932
  152SAPE  C21716891   6.478   6.084   8.521 -0.2260  0.0485  0.5359
  152SAPE  H17R16892   6.541   5.996   8.495 -0.2395  0.5418 -1.2864
  152SAPE  H17S16893   6.528   6.179   8.492  0.0128 -0.2761 -0.1290
  152SAPE  C21816894   6.346   6.072   8.453 -0.1070 -0.3220 -0.0438
  152SAPE  H18R16895   6.271   6.146   8.488  0.7383  0.8478 -0.6093
  152SAPE  H18S16896   6.295   5.974   8.456 -0.9312 -0.1885 -3.8699
  152SAPE  C21916897   6.358   6.087   8.301  0.9002 -0.3312  0.1481
  152SAPE  H19R16898   6.430   6.004   8.280 -1.6130 -3.1413  1.8595
  152SAPE  H19S16899   6.406   6.183   8.272 -1.3036  0.3751 -1.4370
  152SAPE  C22016900   6.234   6.064   8.209 -0.3864 -0.0169  0.2434
  152SAPE  H20R16901   6.202   5.958   8.219  0.1641 -0.0998  1.2983
  152SAPE  H20S16902   6.255   6.069   8.101 -2.5476  0.8390 -0.1972
  152SAPE  H20T16903   6.166   6.148   8.236  1.4535  1.4490  0.5208
  152SAPE   C3316904   6.543   6.263   9.628  0.1445 -0.5149  0.1923
  152SAPE   H3X16905   6.521   6.371   9.644 -0.0793 -0.4421 -0.5428
  152SAPE   H3Y16906   6.443   6.213   9.629  0.8876 -2.0684  0.5212
  152SAPE   C3416907   6.612   6.247   9.490 -0.6692  0.0648 -0.0959
  152SAPE   H4X16908   6.536   6.236   9.409  1.2576  1.7700 -2.2770
  152SAPE   H4Y16909   6.676   6.156   9.484 -0.1703  0.4722 -1.4452
  152SAPE   C3516910   6.708   6.365   9.459 -0.0390 -0.1781  0.1516
  152SAPE   H5X16911   6.774   6.368   9.549 -0.0948 -3.0302  0.3998
  152SAPE   H5Y16912   6.650   6.458   9.446  0.3599  0.1310  0.5576
  152SAPE   C3616913   6.798   6.339   9.340 -0.8359 -0.4186 -0.1714
  152SAPE   H6X16914   6.846   6.239   9.346  0.0386 -0.0346 -0.5813
  152SAPE   H6Y16915   6.882   6.411   9.340  0.0521 -1.4098 -1.3821
  152SAPE   C3716916   6.720   6.332   9.209  0.1511 -0.2234  0.1505
  152SAPE   H7X16917   6.639   6.407   9.209 -0.2793 -0.5885 -2.8576
  152SAPE   H7Y16918   6.667   6.235   9.218  0.7423 -0.5235  0.5216
  152SAPE   C3816919   6.811   6.353   9.085  0.4433  0.0616  0.0599
  152SAPE   H8X16920   6.878   6.265   9.075  1.0409  0.4923  0.2179
  152SAPE   H8Y16921   6.875   6.442   9.101 -0.2789  0.5403  0.3359
  152SAPE   C3916922   6.738   6.385   8.955  0.8941  0.0468  0.2964
  152SAPE   H9X16923   6.660   6.460   8.982  0.9119  0.3968 -0.5749
  152SAPE   H9Y16924   6.680   6.297   8.921  0.3989  0.6663 -0.5105
  152SAPE  C31016925   6.836   6.419   8.845  0.6073 -0.0651  0.0445
  152SAPE  H10X16926   6.918   6.344   8.841 -0.9950 -2.0520  1.8042
  152SAPE  H10Y16927   6.878   6.518   8.873  1.2261 -0.6074  1.1038
  152SAPE  C31116928   6.772   6.414   8.704 -0.4156  0.0726  0.0567
  152SAPE  H11X16929   6.713   6.323   8.681  2.9549 -1.8158 -1.9647
  152SAPE  H11Y16930   6.863   6.406   8.640 -0.4518 -0.3006  0.0489
  152SAPE  C31216931   6.687   6.534   8.659 -0.4631 -0.2680 -0.6791
  152SAPE  H12X16932   6.751   6.624   8.655  0.7430 -1.0699 -0.0095
  152SAPE  H12Y16933   6.613   6.554   8.740 -0.4601 -0.0729 -0.7265
  152SAPE  C31316934   6.607   6.529   8.528  0.3087  0.3065  0.5594
  152SAPE  H13X16935   6.543   6.620   8.532 -1.9256 -1.1367 -0.6421
  152SAPE  H13Y16936   6.555   6.431   8.525  2.5439 -0.9360 -0.1942
  152SAPE  C31416937   6.701   6.532   8.408 -0.2449 -0.0227  0.3793
  152SAPE  H14X16938   6.751   6.434   8.396 -0.1806  0.0847 -0.3074
  152SAPE  H14Y16939   6.778   6.611   8.422  0.5906 -0.7337 -0.1267
  152SAPE  C31516940   6.637   6.565   8.271  0.0991 -0.0041 -0.2843
  152SAPE  H15X16941   6.561   6.486   8.254 -0.3671  0.2067  0.7357
  152SAPE  H15Y16942   6.713   6.577   8.192 -0.5944 -0.3422 -1.0168
  152SAPE  C31616943   6.550   6.694   8.265 -0.3723  0.7171  0.6450
  152SAPE  H16X16944   6.461   6.685   8.332 -0.7429  0.5002  0.1319
  152SAPE  H16Y16945   6.509   6.706   8.163  0.2416  2.1744  0.5564
  152SAPE  C31716946   6.625   6.817   8.313 -0.2348 -0.3531 -0.3524
  152SAPE  H17X16947   6.730   6.823   8.278 -0.6272  0.2314 -1.4987
  152SAPE  H17Y16948   6.627   6.822   8.424  0.4793  0.2340 -0.3883
  152SAPE  C31816949   6.557   6.947   8.262  0.3909  0.4798 -0.1094
  152SAPE  H18X16950   6.452   6.950   8.299  0.3187 -1.0848 -0.1327
  152SAPE  H18Y16951   6.555   6.947   8.151 -2.6472 -2.2282 -0.2184
  152SAPE  H18Z16952   6.608   7.036   8.304  0.2154 -0.0077  1.1724
  153SAPE     N16953   1.131   6.587  10.444  0.2999  0.3097 -0.5236
  153SAPE   HN116954   1.124   6.669  10.380 -1.6126 -0.2164 -1.0682
  153SAPE   HN216955   1.213   6.528  10.422  1.2512  1.3435  0.1538
  153SAPE   HN316956   1.053   6.524  10.416 -0.4574  0.8667  0.2501
  153SAPE   C1216957   1.120   6.622  10.591 -0.4455  0.8023  0.4327
  153SAPE  H12A16958   1.206   6.688  10.617  0.1370 -0.1978  1.0801
  153SAPE  H12B16959   1.142   6.528  10.646 -1.7995  0.6951  0.8325
  153SAPE   C1116960   0.992   6.688  10.643  0.3854 -0.2074  1.0725
  153SAPE  H11A16961   0.996   6.680  10.753 -1.8196  2.4421  1.4586
  153SAPE  H11B16962   0.903   6.630  10.611 -0.0716  0.7337  0.5778
  153SAPE     P16963   1.018   6.912  10.488 -0.0014  0.0288 -0.1480
  153SAPE   O1316964   0.951   7.039  10.520 -0.5720 -0.7103 -0.2969
  153SAPE   O1416965   1.163   6.907  10.485 -0.2686 -0.7995  0.2008
  153SAPE   O1216966   0.967   6.821  10.608  0.6411  0.4160  0.0274
  153SAPE   O1116967   0.970   6.846  10.359 -0.0878  0.5384 -0.1631
  153SAPE    C116968   0.838   6.804  10.335 -0.3128 -0.1775 -0.1222
  153SAPE    HA16969   0.802   6.740  10.418  4.6704 -1.1465  1.7006
  153SAPE    HB16970   0.770   6.890  10.322  1.3589  1.0191 -1.4586
  153SAPE    C216971   0.825   6.714  10.205  0.3695  0.0855  0.0710
  153SAPE    HS16972   0.864   6.612  10.225  0.3922  0.4626  2.1601
  153SAPE   O2116973   0.891   6.759  10.086  0.4794  0.0064  0.0008
  153SAPE   C2116974   1.022   6.755  10.099 -0.0368 -0.0264  0.5214
  153SAPE   O2216975   1.084   6.682  10.170 -0.6347 -0.1053 -0.1645
  153SAPE   C2216976   1.096   6.852  10.011  0.6323 -0.8981  0.6197
  153SAPE   H2R16977   1.091   6.952  10.059  3.0936 -0.5220  0.2128
  153SAPE   H2S16978   1.200   6.816   9.995  1.2607  0.6112  1.1099
  153SAPE    C316979   0.678   6.689  10.168  0.2383  0.0497 -0.9448
  153SAPE    HX16980   0.612   6.778  10.174  0.7075  0.6687 -3.7267
  153SAPE    HY16981   0.629   6.618  10.239 -0.5467 -0.2487 -1.7689
  153SAPE   O3116982   0.671   6.646  10.033  0.6434 -0.8073 -0.0430
  153SAPE   C3116983   0.709   6.528  10.005 -0.1926  0.4699  0.2510
  153SAPE   O3216984   0.754   6.445  10.082 -0.5049 -0.4188 -0.2189
  153SAPE   C3216985   0.708   6.501   9.848  0.2882 -0.2016  0.2657
  153SAPE   H2X16986   0.750   6.586   9.789  1.1125 -0.4709  0.4525
  153SAPE   H2Y16987   0.603   6.508   9.814  0.6088  0.6896 -0.6108
  153SAPE   C2316988   1.029   6.868   9.866  0.2512  0.1555  0.6370
  153SAPE   H3R16989   1.104   6.924   9.806 -0.3951 -0.8964 -1.2414
  153SAPE   H3S16990   0.936   6.924   9.883  1.5442  2.2103  1.2884
  153SAPE   C2416991   1.007   6.728   9.802 -0.3591 -0.2088 -0.3560
  153SAPE   H4R16992   0.969   6.750   9.699 -0.0974  2.2376  0.0033
  153SAPE   H4S16993   0.934   6.675   9.866  0.3100 -0.4318  0.2354
  153SAPE   C2516994   1.127   6.639   9.807 -0.6962  0.3513 -0.0258
  153SAPE   H5R16995   1.112   6.556   9.878  1.2278 -0.0830 -0.0431
  153SAPE   C2616996   1.235   6.641   9.726 -0.8208  0.5200  0.1623
  153SAPE   H6R16997   1.314   6.564   9.735 -0.7776  0.4051 -0.9995
  153SAPE   C2716998   1.275   6.738   9.615 -0.4347 -0.4276  0.1737
  153SAPE   H7R16999   1.209   6.827   9.624 -1.7750 -1.4919  1.2720
  153SAPE   H7S17000   1.254   6.688   9.518 -0.8776 -0.5574  0.3333
  153SAPE   C2817001   1.427   6.767   9.613  0.4366  0.4168 -0.1810
  153SAPE   H8R17002   1.474   6.760   9.711 -0.9234 -2.2154  0.3698
  153SAPE   C2917003   1.496   6.799   9.499  0.7045  0.5738 -1.2338
  153SAPE   H9R17004   1.605   6.813   9.502  0.5705  1.6535 -0.6124
  153SAPE  C21017005   1.436   6.812   9.362 -0.4818  0.7172  0.2225
  153SAPE  H10R17006   1.347   6.879   9.362 -0.9103  0.1630  1.5607
  153SAPE  H10S17007   1.392   6.712   9.342 -1.5805  1.4822 -1.4342
  153SAPE  C21117008   1.530   6.854   9.254  0.2256  0.0203  0.0331
  153SAPE  H11R17009   1.507   6.960   9.233 -0.8332 -0.1029  0.5261
  153SAPE  C21217010   1.609   6.778   9.175  0.3193  0.4506 -0.0915
  153SAPE  H12R17011   1.662   6.819   9.087  3.5636 -3.2609 -0.1110
  153SAPE  C21317012   1.629   6.633   9.194 -0.2812  0.1308 -0.2978
  153SAPE  H13R17013   1.571   6.575   9.119 -2.3030 -0.2236  1.4194
  153SAPE  H13S17014   1.585   6.609   9.294 -2.0992  4.1564  0.0746
  153SAPE  C21417015   1.781   6.601   9.196 -0.2114 -0.1310  0.7181
  153SAPE  H14R17016   1.848   6.687   9.209  0.1565 -0.1536 -0.8614
  153SAPE  C21517017   1.835   6.478   9.180 -0.1693 -0.1536 -0.2354
  153SAPE  H15R17018   1.944   6.467   9.183 -0.0930  0.6263  0.0883
  153SAPE  C21617019   1.745   6.359   9.151 -0.3856  0.2296 -0.2190
  153SAPE  H16R17020   1.674   6.370   9.067 -1.0306 -2.1621 -0.0747
  153SAPE  H16S17021   1.680   6.326   9.236  1.2222 -0.3936  0.8275
  153SAPE  C21717022   1.841   6.239   9.125  0.3114  0.0119 -0.2426
  153SAPE  H17R17023   1.889   6.210   9.221 -1.1981  1.1521  0.9060
  153SAPE  H17S17024   1.931   6.263   9.065  0.4138  0.9447  0.2604
  153SAPE  C21817025   1.770   6.108   9.075 -0.1458 -0.8897 -1.7421
  153SAPE  H18R17026   1.741   6.137   8.972 -0.2020  1.8394 -1.0562
  153SAPE  H18S17027   1.677   6.086   9.131 -0.6624  2.7251 -0.9030
  153SAPE  C21917028   1.859   5.989   9.079  0.5041  0.2002 -0.0727
  153SAPE  H19R17029   1.813   5.903   9.025  2.0889 -0.2355 -0.7915
  153SAPE  H19S17030   1.866   5.972   9.188 -3.3522  0.9658  0.4274
  153SAPE  C22017031   1.997   6.015   9.022 -0.2503  0.3481  0.2239
  153SAPE  H20R17032   2.069   5.931   9.035  0.7181  1.3178  1.2278
  153SAPE  H20S17033   2.046   6.100   9.074  0.0817 -0.3012  0.9965
  153SAPE  H20T17034   1.983   6.041   8.915 -0.4169 -0.3171  0.0754
  153SAPE   C3317035   0.761   6.366   9.801 -0.1497 -0.2241  0.5098
  153SAPE   H3X17036   0.676   6.296   9.793  0.8217 -1.2284 -2.4112
  153SAPE   H3Y17037   0.829   6.325   9.879  0.3867  2.1244  1.3794
  153SAPE   C3417038   0.842   6.385   9.670  1.4758  0.1775  0.2419
  153SAPE   H4X17039   0.903   6.294   9.653  0.2035 -0.4759 -0.9801
  153SAPE   H4Y17040   0.906   6.476   9.679  1.5962  0.2149 -0.9173
  153SAPE   C3517041   0.751   6.419   9.546  0.2177 -0.3656  0.0074
  153SAPE   H5X17042   0.714   6.523   9.560  1.7315  0.2179 -0.0458
  153SAPE   H5Y17043   0.671   6.342   9.539  1.1294 -1.3972  0.6149
  153SAPE   C3617044   0.823   6.409   9.411 -0.3857 -0.0681  0.8327
  153SAPE   H6X17045   0.847   6.301   9.399  3.3873  0.4767  2.0300
  153SAPE   H6Y17046   0.924   6.456   9.416  0.8635 -2.4539 -0.0671
  153SAPE   C3717047   0.757   6.457   9.281  0.5520 -0.9975  0.1999
  153SAPE   H7X17048   0.735   6.566   9.292  0.3393 -0.9928 -0.2365
  153SAPE   H7Y17049   0.663   6.406   9.252  1.8773 -2.9606 -0.8386
  153SAPE   C3817050   0.870   6.436   9.183 -0.7679 -0.2070  0.3256
  153SAPE   H8X17051   0.904   6.330   9.193  0.8124 -0.2147 -3.3272
  153SAPE   H8Y17052   0.958   6.502   9.200 -2.5502  2.4643 -0.3419
  153SAPE   C3917053   0.821   6.472   9.037 -0.2913  0.4564  0.4189
  153SAPE   H9X17054   0.843   6.576   9.004 -1.2157 -0.0625 -2.0426
  153SAPE   H9Y17055   0.711   6.468   9.054 -0.3138  0.0626  0.1827
  153SAPE  C31017056   0.858   6.365   8.922 -0.1360 -0.2078  0.1956
  153SAPE  H10X17057   0.831   6.261   8.950  1.8788 -0.7857  0.1479
  153SAPE  H10Y17058   0.968   6.367   8.904 -0.2001 -3.5523 -1.3518
  153SAPE  C31117059   0.793   6.401   8.784  1.0526 -0.4446  0.3631
  153SAPE  H11X17060   0.798   6.512   8.780  0.8715 -0.4477 -0.0655
  153SAPE  H11Y17061   0.683   6.384   8.780  0.4716  2.4122  1.6298
  153SAPE  C31217062   0.852   6.340   8.650 -0.1405 -1.1810  0.1786
  153SAPE  H12X17063   0.780   6.367   8.569 -0.5550 -1.6514  0.3888
  153SAPE  H12Y17064   0.830   6.232   8.656 -1.3262 -0.8900  1.8552
  153SAPE  C31317065   1.002   6.361   8.622 -0.2787 -0.0825  0.1297
  153SAPE  H13X17066   1.029   6.320   8.522  2.0002  1.3959  0.0564
  153SAPE  H13Y17067   1.064   6.307   8.697 -1.7833 -3.3128 -0.7719
  153SAPE  C31417068   1.035   6.509   8.620 -0.5526  0.3767  0.3294
  153SAPE  H14X17069   1.031   6.538   8.727 -0.1882 -0.0422  0.4613
  153SAPE  H14Y17070   0.948   6.550   8.565 -1.6714  2.0562  3.1395
  153SAPE  C31517071   1.168   6.554   8.567  0.1591  0.2276  1.0180
  153SAPE  H15X17072   1.253   6.522   8.630  0.5307  1.2323  1.0340
  153SAPE  H15Y17073   1.156   6.664   8.564  0.4759  0.2719  1.3703
  153SAPE  C31617074   1.196   6.512   8.421 -0.0639  0.5374  1.0111
  153SAPE  H16X17075   1.106   6.479   8.365  0.6659 -0.3961  0.3574
  153SAPE  H16Y17076   1.267   6.426   8.411 -1.4531 -0.8728  2.7073
  153SAPE  C31717077   1.259   6.629   8.338 -0.1497 -0.3014  0.3075
  153SAPE  H17X17078   1.332   6.685   8.401 -1.4272  1.2933  0.4394
  153SAPE  H17Y17079   1.184   6.706   8.308 -2.2357 -2.3040  0.0606
  153SAPE  C31817080   1.335   6.589   8.209  0.4869 -1.2682 -0.8938
  153SAPE  H18X17081   1.285   6.512   8.147 -1.0268 -1.2053  0.1811
  153SAPE  H18Y17082   1.435   6.550   8.236  0.6702 -1.9334 -2.4221
  153SAPE  H18Z17083   1.345   6.685   8.154 -3.4149 -0.2826 -0.2409
  154SAPE     N17084   0.691   1.522  10.917  0.4846 -0.2154  0.0475
  154SAPE   HN117085   0.628   1.533  10.835  0.9441  0.2430 -0.2469
  154SAPE   HN217086   0.788   1.510  10.883  0.1320  1.9127 -1.9202
  154SAPE   HN317087   0.650   1.450  10.981 -2.6104  1.2235 -0.1375
  154SAPE   C1217088   0.693   1.656  10.987 -0.1755 -0.1410  0.2256
  154SAPE  H12A17089   0.765   1.646  11.071 -1.5260 -0.8022  1.3595
  154SAPE  H12B17090   0.592   1.679  11.029 -0.7192  0.0988 -1.1701
  154SAPE   C1117091   0.739   1.761  10.887  0.1800  0.0426 -0.4226
  154SAPE  H11A17092   0.834   1.725  10.842  0.8680 -0.7060  1.5176
  154SAPE  H11B17093   0.767   1.860  10.929 -1.6428  0.0138  0.9876
  154SAPE     P17094   0.599   1.911  10.735 -0.1057  0.4567  0.0474
  154SAPE   O1317095   0.526   1.978  10.843  0.1979  0.9673  0.1755
  154SAPE   O1417096   0.715   1.979  10.685 -0.4520 -0.7615 -0.5650
  154SAPE   O1217097   0.646   1.771  10.782 -0.0906 -0.7662 -0.0941
  154SAPE   O1117098   0.494   1.892  10.618 -0.4368 -0.3099  0.0435
  154SAPE    C117099   0.491   1.764  10.545 -0.0248 -0.4712 -0.0638
  154SAPE    HA17100   0.471   1.680  10.616  0.7620 -0.7435 -0.1637
  154SAPE    HB17101   0.404   1.768  10.476 -0.1774  0.1790  0.1621
  154SAPE    C217102   0.620   1.727  10.468 -0.4516 -0.1753  0.0817
  154SAPE    HS17103   0.701   1.725  10.544  0.3146 -1.9884 -0.7179
  154SAPE   O2117104   0.638   1.836  10.376 -0.1507 -0.7883 -0.3412
  154SAPE   C2117105   0.746   1.836  10.291  0.2188 -0.6450 -0.2724
  154SAPE   O2217106   0.837   1.753  10.287 -0.0281 -0.3736 -0.1665
  154SAPE   C2217107   0.727   1.952  10.190  0.2777 -0.1624  0.0260
  154SAPE   H2R17108   0.765   2.040  10.246 -0.8816  1.1526 -1.1800
  154SAPE   H2S17109   0.790   1.929  10.102 -0.6321  3.8683 -1.9187
  154SAPE    C317110   0.612   1.588  10.401  0.7660  1.0140  0.2623
  154SAPE    HX17111   0.595   1.510  10.479  0.9388  1.7434  1.0503
  154SAPE    HY17112   0.711   1.571  10.355  1.7540  0.3781  2.4910
  154SAPE   O3117113   0.502   1.589  10.301  0.1731 -0.0302 -0.0614
  154SAPE   C3117114   0.492   1.474  10.230  0.2126 -0.6590 -0.1567
  154SAPE   O3217115   0.577   1.390  10.232  0.6685  0.4593  0.1630
  154SAPE   C3217116   0.385   1.491  10.126  0.0189  0.2562  0.3140
  154SAPE   H2X17117   0.424   1.551  10.041 -2.4371 -0.6065 -1.5478
  154SAPE   H2Y17118   0.300   1.545  10.172 -1.1139 -1.1369 -0.0723
  154SAPE   C2317119   0.575   1.970  10.149 -0.5024 -0.8925 -0.7487
  154SAPE   H3R17120   0.575   2.073  10.107 -1.6996  0.1017  1.4747
  154SAPE   H3S17121   0.510   1.993  10.236  0.7188 -0.1576  0.0068
  154SAPE   C2417122   0.523   1.862  10.060 -0.4077  0.0012 -0.1362
  154SAPE   H4R17123   0.571   1.766  10.086  0.2559  0.3642  0.0270
  154SAPE   H4S17124   0.545   1.897   9.956 -0.9194  0.7829  0.0059
  154SAPE   C2517125   0.370   1.850  10.079  0.1701  0.6808 -0.3430
  154SAPE   H5R17126   0.338   1.788  10.164  0.3732 -1.2167 -1.5616
  154SAPE   C2617127   0.273   1.894  10.001 -0.1444 -0.6284  0.1737
  154SAPE   H6R17128   0.172   1.891  10.045  0.6208  1.5567  2.2845
  154SAPE   C2717129   0.295   1.958   9.869  0.3808  0.1121  0.6667
  154SAPE   H7R17130   0.380   2.029   9.874  0.3298  0.1979  0.3371
  154SAPE   H7S17131   0.206   2.021   9.847  0.4904 -0.9266 -3.5618
  154SAPE   C2817132   0.291   1.877   9.744 -0.1115 -0.9126  0.0266
  154SAPE   H8R17133   0.214   1.799   9.744 -0.1513 -0.8914 -1.0409
  154SAPE   C2917134   0.328   1.913   9.622 -0.0642 -0.1569  0.4480
  154SAPE   H9R17135   0.316   1.844   9.537 -3.2409 -0.7087  1.2244
  154SAPE  C21017136   0.389   2.049   9.587  0.6981  1.1251 -0.2129
  154SAPE  H10R17137   0.430   2.095   9.679  0.1503  1.5366 -0.1632
  154SAPE  H10S17138   0.310   2.122   9.556  2.1291  2.4439 -0.8623
  154SAPE  C21117139   0.503   2.047   9.499 -0.1153 -0.2699  0.1145
  154SAPE  H11R17140   0.597   2.078   9.547  0.6071 -2.9969  0.6333
  154SAPE  C21217141   0.499   2.031   9.364  0.3309 -0.5850 -0.3261
  154SAPE  H12R17142   0.587   2.013   9.300 -0.3129  0.5964 -1.5922
  154SAPE  C21317143   0.373   2.003   9.286  0.4921 -0.2791 -0.0072
  154SAPE  H13R17144   0.360   2.084   9.211  1.2153  0.5800  0.7831
  154SAPE  H13S17145   0.281   2.014   9.347  0.2364 -0.3083 -0.3776
  154SAPE  C21417146   0.396   1.868   9.221  0.5772  0.4488 -0.0215
  154SAPE  H14R17147   0.360   1.786   9.284  0.3761  0.3923 -0.2093
  154SAPE  C21517148   0.456   1.843   9.103 -0.0634 -0.0036 -0.5573
  154SAPE  H15R17149   0.454   1.746   9.051  1.3463  0.9453 -2.5510
  154SAPE  C21617150   0.513   1.951   9.015  1.1043  0.1365  0.5098
  154SAPE  H16R17151   0.623   1.942   9.019  0.9989 -1.1215  1.2322
  154SAPE  H16S17152   0.495   2.057   9.042 -2.3431 -0.3477  0.6286
  154SAPE  C21717153   0.451   1.938   8.871  0.0648  0.5064  0.4630
  154SAPE  H17R17154   0.340   1.933   8.880  0.1375 -1.0342  0.7465
  154SAPE  H17S17155   0.487   1.842   8.828 -1.6363 -1.5827  3.3252
  154SAPE  C21817156   0.477   2.057   8.775 -0.1485 -0.0504 -0.7094
  154SAPE  H18R17157   0.585   2.075   8.795 -0.2674  0.0670 -0.1806
  154SAPE  H18S17158   0.413   2.147   8.790  0.4596  0.4935 -1.2946
  154SAPE  C21917159   0.454   2.012   8.634 -0.4627  0.2291  0.3775
  154SAPE  H19R17160   0.345   1.996   8.623 -0.5662 -0.3269  1.8597
  154SAPE  H19S17161   0.507   1.915   8.618  2.0117  1.2558  1.6814
  154SAPE  C22017162   0.507   2.114   8.534 -0.5148 -0.6868 -1.0219
  154SAPE  H20R17163   0.617   2.133   8.535 -0.2476 -1.7984  1.7698
  154SAPE  H20S17164   0.466   2.215   8.550 -1.8748 -1.1973 -1.1388
  154SAPE  H20T17165   0.477   2.080   8.433  0.6848 -1.7468 -1.0643
  154SAPE   C3317166   0.340   1.358  10.067  0.1706 -0.0417  0.4740
  154SAPE   H3X17167   0.292   1.300  10.149 -0.0515 -0.4578  0.0533
  154SAPE   H3Y17168   0.429   1.302  10.032  1.1485  3.2878 -3.0271
  154SAPE   C3417169   0.245   1.381   9.943 -0.1366  0.8207 -0.6930
  154SAPE   H4X17170   0.180   1.465   9.976 -0.0859  0.4065  0.5106
  154SAPE   H4Y17171   0.190   1.286   9.923  0.7392  0.2981 -0.6883
  154SAPE   C3517172   0.319   1.421   9.813  0.0992  0.0428 -0.1517
  154SAPE   H5X17173   0.408   1.356   9.796  1.2573  1.5532 -0.1579
  154SAPE   H5Y17174   0.361   1.524   9.818  0.8119 -0.2893  1.0368
  154SAPE   C3617175   0.226   1.407   9.693  0.4147 -0.5676  0.4163
  154SAPE   H6X17176   0.142   1.479   9.700  1.6912  0.9469  0.7363
  154SAPE   H6Y17177   0.187   1.303   9.680 -1.7010  0.2180  0.1197
  154SAPE   C3717178   0.303   1.458   9.565  0.9468  0.2385 -0.6027
  154SAPE   H7X17179   0.395   1.395   9.561  0.7305 -0.1070 -0.1257
  154SAPE   H7Y17180   0.333   1.564   9.579  1.2120 -0.0130  0.9013
  154SAPE   C3817181   0.219   1.422   9.440  0.2398  0.1683  0.1028
  154SAPE   H8X17182   0.131   1.489   9.438 -0.1932 -0.2421  2.6364
  154SAPE   H8Y17183   0.193   1.316   9.457  0.1556  0.0734 -0.5649
  154SAPE   C3917184   0.306   1.440   9.313 -0.4747  0.0360  0.7423
  154SAPE   H9X17185   0.397   1.376   9.321 -0.6989 -0.6504 -1.4614
  154SAPE   H9Y17186   0.349   1.542   9.317  0.1936 -0.2543  1.0470
  154SAPE  C31017187   0.231   1.414   9.182  0.1685 -0.5237 -0.6540
  154SAPE  H10X17188   0.134   1.469   9.191 -0.0639 -0.9577 -0.4987
  154SAPE  H10Y17189   0.199   1.309   9.172 -1.5908  0.0106 -1.0365
  154SAPE  C31117190   0.294   1.461   9.055 -0.1969  0.4598  0.3229
  154SAPE  H11X17191   0.388   1.407   9.030 -0.8687  0.8530 -3.7084
  154SAPE  H11Y17192   0.332   1.566   9.058 -0.5883  0.5858  1.2773
  154SAPE  C31217193   0.198   1.450   8.944  0.3329 -0.3464 -0.4828
  154SAPE  H12X17194   0.096   1.485   8.969 -1.5809 -4.6973 -1.2482
  154SAPE  H12Y17195   0.190   1.346   8.904 -1.0699  0.4184 -2.3593
  154SAPE  C31317196   0.231   1.537   8.822  0.2209  0.1509  0.1283
  154SAPE  H13X17197   0.224   1.644   8.849 -0.6620  0.6441 -1.8629
  154SAPE  H13Y17198   0.156   1.512   8.744 -0.4172 -1.3448  1.1842
  154SAPE  C31417199   0.363   1.523   8.748  0.1542  0.4952 -0.4007
  154SAPE  H14X17200   0.450   1.553   8.810  1.3135  0.4567 -1.9366
  154SAPE  H14Y17201   0.365   1.583   8.655  0.4232  1.9023  0.4869
  154SAPE  C31517202   0.398   1.379   8.715 -0.3056 -0.0238  0.4366
  154SAPE  H15X17203   0.380   1.304   8.796  1.5051 -0.0554  0.8635
  154SAPE  H15Y17204   0.507   1.376   8.693 -0.8170 -1.1010 -2.3119
  154SAPE  C31617205   0.343   1.324   8.583  0.0794  0.3119  0.2872
  154SAPE  H16X17206   0.377   1.381   8.494  0.7620  0.6934  0.7875
  154SAPE  H16Y17207   0.234   1.343   8.575  0.2022  0.6680 -0.7139
  154SAPE  C31717208   0.391   1.179   8.554 -0.7139  0.0613 -1.0719
  154SAPE  H17X17209   0.362   1.126   8.647  1.4614  3.8381  2.1104
  154SAPE  H17Y17210   0.502   1.183   8.556 -0.7478  1.1534 -0.6935
  154SAPE  C31817211   0.329   1.114   8.434 -0.0795 -0.5962  0.1689
  154SAPE  H18X17212   0.338   1.004   8.443 -0.0633 -0.5230  1.1429
  154SAPE  H18Y17213   0.391   1.143   8.346  0.3524 -0.8793  0.3738
  154SAPE  H18Z17214   0.225   1.148   8.415 -0.2331 -0.5708  1.0224
  155SAPE     N17215   2.134   6.647  10.847 -0.0173  0.0377 -0.1132
  155SAPE   HN117216   2.205   6.698  10.791  0.7950 -0.5215  0.3889
  155SAPE   HN217217   2.050   6.708  10.843 -0.9528 -1.2660 -1.4887
  155SAPE   HN317218   2.177   6.637  10.941 -1.1031 -0.5916  0.3285
  155SAPE   C1217219   2.106   6.524  10.766  0.6404  0.6491 -0.1486
  155SAPE  H12A17220   2.022   6.469  10.814  1.6854 -1.2824 -0.4516
  155SAPE  H12B17221   2.191   6.453  10.756  1.2409  1.6592 -3.9786
  155SAPE   C1117222   2.070   6.556  10.621 -0.2403 -0.2513  0.2364
  155SAPE  H11A17223   2.068   6.471  10.550  1.8564  0.9158 -1.3193
  155SAPE  H11B17224   2.154   6.612  10.575 -1.3225  2.6158  1.4933
  155SAPE     P17225   1.821   6.587  10.545 -0.0494  0.0995  0.7270
  155SAPE   O1317226   1.820   6.444  10.567 -0.0413 -0.1416 -0.3344
  155SAPE   O1417227   1.715   6.658  10.617 -0.2374 -0.1382  0.2946
  155SAPE   O1217228   1.952   6.642  10.605  0.5825  0.0989 -0.2804
  155SAPE   O1117229   1.825   6.618  10.396 -0.6882 -0.1285 -0.2446
  155SAPE    C117230   1.921   6.700  10.328 -0.6490 -0.2012  0.1244
  155SAPE    HA17231   1.872   6.769  10.256  0.2126  1.9591  1.5085
  155SAPE    HB17232   1.973   6.772  10.395 -1.9537 -0.6502  1.7143
  155SAPE    C217233   2.032   6.622  10.251 -0.1258  0.3127 -0.7951
  155SAPE    HS17234   2.119   6.607  10.319 -1.8731 -1.5499  1.2276
  155SAPE   O2117235   2.061   6.690  10.131  0.3658  0.1441  0.1964
  155SAPE   C2117236   2.141   6.791  10.146 -0.1178  0.2937  0.5466
  155SAPE   O2217237   2.199   6.825  10.249  0.1139 -0.0771  0.2839
  155SAPE   C2217238   2.149   6.861  10.011 -0.4641 -0.0901 -0.1939
  155SAPE   H2R17239   2.185   6.794   9.930 -1.8097 -0.3700 -0.5747
  155SAPE   H2S17240   2.046   6.894   9.990 -0.6852 -0.5387  0.1505
  155SAPE    C317241   1.982   6.482  10.219  1.0769  0.4174  0.0028
  155SAPE    HX17242   1.887   6.502  10.165  0.0652  1.6639  2.0937
  155SAPE    HY17243   1.960   6.435  10.317 -2.0440 -0.4986 -1.0018
  155SAPE   O3117244   2.066   6.398  10.136  0.0126  0.1282 -0.1770
  155SAPE   C3117245   2.113   6.297  10.194 -0.1612  0.1084 -0.2342
  155SAPE   O3217246   2.091   6.249  10.306 -0.2570 -0.1543 -0.2813
  155SAPE   C3217247   2.208   6.225  10.094  0.0822 -0.3823 -0.5097
  155SAPE   H2X17248   2.190   6.266   9.992  0.0854  1.7802  0.3077
  155SAPE   H2Y17249   2.169   6.120  10.096 -2.7060  0.5078  3.1197
  155SAPE   C2317250   2.229   6.992  10.031 -0.4680  0.0310 -0.5639
  155SAPE   H3R17251   2.325   6.977  10.086 -0.4558  1.4493 -0.1742
  155SAPE   H3S17252   2.176   7.044  10.113 -1.9382 -2.6978  0.3435
  155SAPE   C2417253   2.236   7.085   9.907  0.4254  0.3830  0.3811
  155SAPE   H4R17254   2.138   7.087   9.855  0.3407 -1.9647  0.3669
  155SAPE   H4S17255   2.305   7.036   9.835  0.8329 -2.4392  2.4870
  155SAPE   C2517256   2.282   7.223   9.949  0.7437  0.4853 -0.2095
  155SAPE   H5R17257   2.328   7.222  10.049  0.7246 -0.7504 -0.1887
  155SAPE   C2617258   2.257   7.328   9.874 -0.2203 -0.4035  0.1267
  155SAPE   H6R17259   2.294   7.426   9.907  1.4380 -0.5418 -1.1978
  155SAPE   C2717260   2.194   7.348   9.740 -0.1235  0.2982 -0.1631
  155SAPE   H7R17261   2.179   7.253   9.684  0.2715  0.0852  0.0944
  155SAPE   H7S17262   2.260   7.413   9.679 -1.9830  2.0162 -0.4943
  155SAPE   C2817263   2.058   7.406   9.765 -0.1955 -0.2874  0.0937
  155SAPE   H8R17264   2.035   7.455   9.861 -1.3779  1.5149 -1.0504
  155SAPE   C2917265   1.949   7.392   9.688  0.5375 -0.2371 -0.3205
  155SAPE   H9R17266   1.854   7.437   9.720  0.3873 -0.6040 -0.2429
  155SAPE  C21017267   1.931   7.312   9.559  0.6044 -0.0193  0.2028
  155SAPE  H10R17268   2.001   7.226   9.556  0.0763 -0.5062  1.2311
  155SAPE  H10S17269   1.969   7.369   9.471 -0.7578  2.2846  1.0140
  155SAPE  C21117270   1.788   7.262   9.538 -0.7025 -0.2577  0.3007
  155SAPE  H11R17271   1.717   7.331   9.489 -1.1687 -0.3367  0.8646
  155SAPE  C21217272   1.741   7.151   9.589  0.0026 -0.0259  0.6346
  155SAPE  H12R17273   1.636   7.128   9.563 -0.3826  2.6034 -0.3975
  155SAPE  C21317274   1.814   7.046   9.668 -0.3859  0.0759  0.1894
  155SAPE  H13R17275   1.913   7.029   9.620  0.9929  0.5063  2.7229
  155SAPE  H13S17276   1.766   6.946   9.668 -3.6305  1.4530 -2.3859
  155SAPE  C21417277   1.837   7.098   9.812 -0.6518  0.6524  0.9859
  155SAPE  H14R17278   1.914   7.175   9.822  0.6700 -0.6583  1.1787
  155SAPE  C21517279   1.773   7.046   9.916  0.1623 -0.2296 -1.2098
  155SAPE  H15R17280   1.816   7.077  10.013 -2.6549  1.5506 -0.4260
  155SAPE  C21617281   1.669   6.933   9.919 -0.6485 -0.0942  0.1381
  155SAPE  H16R17282   1.670   6.869   9.828  1.4886 -1.9380  1.3625
  155SAPE  H16S17283   1.563   6.955   9.941 -0.1316  0.7305  1.9890
  155SAPE  C21717284   1.714   6.833  10.024 -0.9962 -0.0808  0.2611
  155SAPE  H17R17285   1.708   6.871  10.128  0.0163 -1.1368  0.7276
  155SAPE  H17S17286   1.822   6.819  10.006 -1.2919  1.0622 -3.0975
  155SAPE  C21817287   1.655   6.690  10.033  0.2124 -0.3109 -0.1969
  155SAPE  H18R17288   1.692   6.646  10.128 -0.3076  0.7882  0.5475
  155SAPE  H18S17289   1.665   6.632   9.939 -1.9045  1.6168 -1.7376
  155SAPE  C21917290   1.500   6.687  10.058  0.1672 -0.9637 -0.1599
  155SAPE  H19R17291   1.453   6.586  10.058  0.8134 -1.2715 -0.0840
  155SAPE  H19S17292   1.475   6.758   9.976  0.7874  0.5352  0.9021
  155SAPE  C22017293   1.453   6.746  10.194  0.5330  0.0984 -0.2583
  155SAPE  H20R17294   1.456   6.664  10.268  0.8234 -0.2576 -0.6612
  155SAPE  H20S17295   1.349   6.785  10.186  0.3280  0.2319  2.3760
  155SAPE  H20T17296   1.521   6.827  10.229  0.9693 -0.0376 -0.7804
  155SAPE   C3317297   2.357   6.246  10.126  0.0202  0.1176 -0.0571
  155SAPE   H3X17298   2.372   6.212  10.231 -0.1717  0.9435  0.2436
  155SAPE   H3Y17299   2.381   6.353  10.115  3.1444 -0.4619  0.1532
  155SAPE   C3417300   2.456   6.167  10.036 -0.5674  0.2832  0.2065
  155SAPE   H4X17301   2.431   6.059  10.040  0.3218  0.1140  1.9647
  155SAPE   H4Y17302   2.559   6.177  10.077  0.5119  0.6681 -2.4103
  155SAPE   C3517303   2.465   6.214   9.888 -0.1902  0.1686 -0.3450
  155SAPE   H5X17304   2.452   6.324   9.879  0.6858  0.2258 -1.0998
  155SAPE   H5Y17305   2.379   6.174   9.830  1.1231 -0.2719 -2.0950
  155SAPE   C3617306   2.596   6.164   9.830  0.3453 -0.2095  0.5153
  155SAPE   H6X17307   2.621   6.056   9.843  2.1967 -0.1092 -1.6562
  155SAPE   H6Y17308   2.666   6.225   9.890 -1.1623  1.4277  0.6859
  155SAPE   C3717309   2.624   6.202   9.683  0.8234  0.7576 -0.1337
  155SAPE   H7X17310   2.549   6.147   9.622  1.6805 -0.3182 -0.2468
  155SAPE   H7Y17311   2.720   6.152   9.657  0.1321 -0.7050  0.0265
  155SAPE   C3817312   2.618   6.348   9.651 -0.0136 -0.0089 -0.4649
  155SAPE   H8X17313   2.647   6.397   9.746 -0.0448  0.7348 -0.8354
  155SAPE   H8Y17314   2.517   6.391   9.634 -0.7333 -1.7460 -0.8550
  155SAPE   C3917315   2.718   6.398   9.548  0.2052 -0.2793  0.7223
  155SAPE   H9X17316   2.820   6.380   9.588  0.7310 -0.8384 -0.8303
  155SAPE   H9Y17317   2.705   6.505   9.522 -1.6635 -0.8360 -0.8925
  155SAPE  C31017318   2.717   6.315   9.418 -0.0027  1.1486  0.1077
  155SAPE  H10X17319   2.622   6.301   9.362  0.7223 -0.7067 -0.7378
  155SAPE  H10Y17320   2.744   6.211   9.447 -1.3579  1.0402  1.1213
  155SAPE  C31117321   2.809   6.367   9.306 -0.7428 -0.0429  0.0215
  155SAPE  H11X17322   2.851   6.280   9.251 -1.4396 -0.9882  0.9272
  155SAPE  H11Y17323   2.889   6.426   9.356  1.5110 -2.2658 -0.7455
  155SAPE  C31217324   2.734   6.465   9.216  0.1498 -0.1820 -0.1159
  155SAPE  H12X17325   2.697   6.553   9.274  0.2549  0.1378 -0.5222
  155SAPE  H12Y17326   2.662   6.390   9.179  0.5606 -0.8185  0.3677
  155SAPE  C31317327   2.814   6.502   9.087  0.4319 -0.4058 -0.3232
  155SAPE  H13X17328   2.888   6.582   9.106 -1.8296  2.0597 -1.1564
  155SAPE  H13Y17329   2.747   6.553   9.014 -0.4789 -1.3995 -0.2187
  155SAPE  C31417330   2.886   6.394   9.004  0.6214 -0.1958  0.5543
  155SAPE  H14X17331   2.963   6.351   9.072 -0.0188 -2.2411  0.0492
  155SAPE  H14Y17332   2.944   6.442   8.922 -0.4244 -0.7762 -0.5612
  155SAPE  C31517333   2.791   6.291   8.939  0.2454  0.1887 -0.5457
  155SAPE  H15X17334   2.743   6.220   9.010  0.6716  1.2417  0.8628
  155SAPE  H15Y17335   2.859   6.237   8.871  1.9585 -0.5981  1.6660
  155SAPE  C31617336   2.687   6.352   8.843 -0.9627  0.3142 -0.1810
  155SAPE  H16X17337   2.733   6.429   8.778 -1.4522  1.1690  0.4690
  155SAPE  H16Y17338   2.624   6.413   8.912  2.1893  1.6320  1.8102
  155SAPE  C31717339   2.598   6.245   8.763 -0.5460  0.2799 -0.9921
  155SAPE  H17X17340   2.519   6.293   8.702 -0.2128 -0.1309 -1.7515
  155SAPE  H17Y17341   2.548   6.199   8.851  1.8875 -2.0550 -0.7146
  155SAPE  C31817342   2.669   6.128   8.693  0.2494 -0.1205  0.2711
  155SAPE  H18X17343   2.593   6.049   8.674 -1.9334  1.7579  0.8247
  155SAPE  H18Y17344   2.750   6.090   8.759 -0.3972 -1.8843  0.0932
  155SAPE  H18Z17345   2.722   6.161   8.601 -2.0839 -1.2623 -1.5719
  156SAPE     N17346   6.073   5.966  10.199 -0.3051  0.1180 -0.1172
  156SAPE   HN117347   6.126   6.035  10.144  2.0887  0.0043  1.9111
  156SAPE   HN217348   6.004   6.010  10.264  0.2552 -0.8334  1.1829
  156SAPE   HN317349   6.144   5.918  10.258  1.5406  0.1204 -2.2395
  156SAPE   C1217350   6.002   5.862  10.107  0.5007  0.4187  0.1319
  156SAPE  H12A17351   6.055   5.766  10.119 -1.1484 -0.5239  0.2014
  156SAPE  H12B17352   6.004   5.900  10.002 -0.5477 -1.0006 -0.4384
  156SAPE   C1117353   5.847   5.846  10.149 -0.0312  0.1971 -0.2796
  156SAPE  H11A17354   5.796   5.768  10.088  0.0955 -1.9097  2.1437
  156SAPE  H11B17355   5.789   5.940  10.138  0.8243  0.8710  0.8181
  156SAPE     P17356   5.860   5.660  10.335 -0.0696 -0.2294 -0.3911
  156SAPE   O1317357   5.978   5.606  10.271  0.1487  0.1761 -0.0586
  156SAPE   O1417358   5.857   5.641  10.483 -0.6898 -0.2898 -0.4383
  156SAPE   O1217359   5.841   5.807  10.283 -0.1929  0.3214 -1.0430
  156SAPE   O1117360   5.733   5.598  10.269 -0.0080  0.1476  0.1166
  156SAPE    C117361   5.742   5.459  10.215  0.9899 -0.3118  0.1534
  156SAPE    HA17362   5.806   5.392  10.276  0.5261 -2.2586 -1.3765
  156SAPE    HB17363   5.641   5.411  10.215  1.1155 -0.6229 -1.2312
  156SAPE    C217364   5.783   5.460  10.068 -0.2522 -0.5969  0.6330
  156SAPE    HS17365   5.882   5.509  10.063  0.4020 -1.9972 -1.0687
  156SAPE   O2117366   5.683   5.534   9.999  0.9598 -0.5300 -0.1149
  156SAPE   C2117367   5.718   5.605   9.886  0.7730 -0.3720 -0.2188
  156SAPE   O2217368   5.833   5.619   9.858 -1.4610  0.4522  0.6090
  156SAPE   C2217369   5.593   5.639   9.806  0.7574  0.2070  0.0408
  156SAPE   H2R17370   5.565   5.549   9.747 -3.3410  0.2721  1.5988
  156SAPE   H2S17371   5.511   5.651   9.879  2.9617 -1.0708  2.9093
  156SAPE    C317372   5.815   5.325  10.005 -0.1005 -0.1705  0.0896
  156SAPE    HX17373   5.723   5.263  10.002 -0.8884  0.8007  2.1854
  156SAPE    HY17374   5.876   5.279  10.087  1.6757  0.5356 -0.7736
  156SAPE   O3117375   5.893   5.325   9.885 -0.2283  1.0486 -0.6322
  156SAPE   C3117376   5.822   5.320   9.772 -0.1054 -0.0009  0.1088
  156SAPE   O3217377   5.703   5.319   9.762 -0.1883  0.1619  0.4416
  156SAPE   C3217378   5.915   5.301   9.660 -0.6439  0.3096  0.0199
  156SAPE   H2X17379   5.970   5.207   9.684 -2.3343 -0.2064  2.2180
  156SAPE   H2Y17380   5.984   5.388   9.658  2.5057 -2.0244 -1.8170
  156SAPE   C2317381   5.602   5.757   9.702  0.1010  0.4405 -0.0197
  156SAPE   H3R17382   5.608   5.856   9.752  0.8970 -0.7766  2.4717
  156SAPE   H3S17383   5.507   5.750   9.644 -0.4452  2.8720  0.4469
  156SAPE   C2417384   5.709   5.735   9.594  0.2225  0.9938 -0.3240
  156SAPE   H4R17385   5.705   5.629   9.560  0.0991  1.4769 -1.9043
  156SAPE   H4S17386   5.805   5.753   9.646 -0.8855  1.6611  1.6010
  156SAPE   C2517387   5.699   5.838   9.485  0.7286  0.2586  0.5749
  156SAPE   H5R17388   5.697   5.943   9.516  1.7029  0.9418 -1.4639
  156SAPE   C2617389   5.682   5.803   9.357 -0.8136 -0.3016  0.3088
  156SAPE   H6R17390   5.690   5.885   9.284  2.6738  0.0433  0.8783
  156SAPE   C2717391   5.688   5.664   9.300 -0.1625  0.1670  0.0282
  156SAPE   H7R17392   5.586   5.639   9.266  0.1739 -1.9983  0.4946
  156SAPE   H7S17393   5.711   5.581   9.370 -0.3833  0.2402  0.1877
  156SAPE   C2817394   5.783   5.663   9.181  0.1696  0.4794 -0.4601
  156SAPE   H8R17395   5.885   5.637   9.212 -0.0333 -0.9809 -0.9880
  156SAPE   C2917396   5.759   5.675   9.051  0.2941  0.2211  0.0891
  156SAPE   H9R17397   5.847   5.670   8.985 -1.0090  1.8811 -1.8898
  156SAPE  C21017398   5.622   5.698   8.992  0.2331  0.5229 -0.5982
  156SAPE  H10R17399   5.552   5.730   9.072 -1.6560  0.6059 -2.2054
  156SAPE  H10S17400   5.587   5.599   8.957  0.2559  0.1151  0.5194
  156SAPE  C21117401   5.626   5.807   8.897 -0.2093 -0.4752 -0.3165
  156SAPE  H11R17402   5.662   5.900   8.944 -1.9333 -0.6154  1.4713
  156SAPE  C21217403   5.601   5.809   8.764  0.1147 -0.4532 -0.0465
  156SAPE  H12R17404   5.627   5.904   8.715  0.4024 -0.6593 -0.2953
  156SAPE  C21317405   5.566   5.694   8.672 -0.1528 -0.4195 -0.0017
  156SAPE  H13R17406   5.483   5.728   8.607  0.2338  1.6032  0.4916
  156SAPE  H13S17407   5.524   5.611   8.733 -1.1281  0.0853  0.0269
  156SAPE  C21417408   5.687   5.637   8.598 -0.2694 -0.4505  0.0661
  156SAPE  H14R17409   5.763   5.587   8.659 -0.0035 -0.1428 -0.0107
  156SAPE  C21517410   5.715   5.673   8.471  0.0392  0.5133  0.4455
  156SAPE  H15R17411   5.796   5.618   8.420  0.2794  0.4583  0.8861
  156SAPE  C21617412   5.635   5.755   8.377  0.0781  0.6016 -0.2820
  156SAPE  H16R17413   5.563   5.824   8.425  0.6531  2.6335 -2.1804
  156SAPE  H16S17414   5.570   5.693   8.312  0.2299 -1.0944  1.1105
  156SAPE  C21717415   5.743   5.838   8.307  0.1192 -0.1844  0.2023
  156SAPE  H17R17416   5.830   5.771   8.288 -0.0669  0.1614 -2.3116
  156SAPE  H17S17417   5.779   5.917   8.375  0.7551 -0.6240  0.3808
  156SAPE  C21817418   5.702   5.897   8.169 -0.0134 -0.4128  0.1730
  156SAPE  H18R17419   5.634   5.984   8.181 -0.7654 -0.6737 -1.8108
  156SAPE  H18S17420   5.664   5.819   8.100  1.2183  0.7814 -1.9707
  156SAPE  C21917421   5.832   5.956   8.104 -0.2687  0.2837  0.4680
  156SAPE  H19R17422   5.900   5.868   8.111 -1.6564 -0.6916  2.9278
  156SAPE  H19S17423   5.871   6.038   8.168 -3.9714  0.2975  2.9757
  156SAPE  C22017424   5.826   5.997   7.952 -0.2719 -0.7798  0.6212
  156SAPE  H20R17425   5.751   6.079   7.950 -0.6963 -1.1375 -2.6248
  156SAPE  H20S17426   5.782   5.926   7.879 -1.8561  0.0933  0.6848
  156SAPE  H20T17427   5.925   6.037   7.919 -0.2960 -0.3859  1.0124
  156SAPE   C3317428   5.847   5.307   9.525 -0.5413  0.0782  0.0450
  156SAPE   H3X17429   5.788   5.401   9.520  1.1424  1.2218  0.7312
  156SAPE   H3Y17430   5.789   5.214   9.507 -0.5474  0.3422 -1.3965
  156SAPE   C3417431   5.957   5.319   9.416 -0.0224 -0.3199  0.3637
  156SAPE   H4X17432   6.032   5.238   9.433  0.3269  0.3663  2.2710
  156SAPE   H4Y17433   6.003   5.419   9.432 -1.5988  0.5927 -0.6481
  156SAPE   C3517434   5.898   5.316   9.283  0.3206  0.3577  0.4178
  156SAPE   H5X17435   5.821   5.394   9.266  0.8488  0.8084  0.0113
  156SAPE   H5Y17436   5.845   5.221   9.265  2.2376 -0.7349  0.2134
  156SAPE   C3617437   6.013   5.328   9.176 -0.1685  0.0280 -0.2421
  156SAPE   H6X17438   6.088   5.246   9.176 -0.1636  0.0152 -1.5239
  156SAPE   H6Y17439   6.078   5.412   9.207  1.1104 -0.8726 -0.4172
  156SAPE   C3717440   5.984   5.359   9.033  0.1990  0.2491  1.1637
  156SAPE   H7X17441   5.923   5.452   9.036  1.0004  0.7630  1.8392
  156SAPE   H7Y17442   5.918   5.279   8.995  0.8131  0.4168 -0.3336
  156SAPE   C3817443   6.110   5.387   8.947  0.0084  0.1219  1.0772
  156SAPE   H8X17444   6.176   5.297   8.946 -0.4948 -0.3619  3.8287
  156SAPE   H8Y17445   6.176   5.465   8.989  1.9416 -0.9573  0.1938
  156SAPE   C3917446   6.069   5.453   8.814  0.3117  0.0959 -0.2457
  156SAPE   H9X17447   5.991   5.528   8.837  3.3367  3.5348 -0.4148
  156SAPE   H9Y17448   6.028   5.372   8.749  0.1860  1.0345 -1.3610
  156SAPE  C31017449   6.177   5.518   8.737  0.1160  0.2412  0.2496
  156SAPE  H10X17450   6.263   5.448   8.728 -0.4904 -0.2754 -2.1186
  156SAPE  H10Y17451   6.206   5.610   8.792 -3.8918  1.5317  0.5054
  156SAPE  C31117452   6.131   5.561   8.592  0.3121  0.1293 -0.3879
  156SAPE  H11X17453   6.024   5.593   8.601 -0.9970 -3.3241 -2.0569
  156SAPE  H11Y17454   6.143   5.470   8.530 -1.9351 -0.5207  0.0430
  156SAPE  C31217455   6.196   5.680   8.526  0.0596 -0.6908  0.0972
  156SAPE  H12X17456   6.302   5.660   8.500  0.3840  2.0568 -1.1070
  156SAPE  H12Y17457   6.187   5.764   8.598 -0.5084  0.2204 -0.9931
  156SAPE  C31317458   6.121   5.721   8.394  0.0926 -0.0312  0.2324
  156SAPE  H13X17459   6.125   5.831   8.387  0.7184 -0.0166  0.7652
  156SAPE  H13Y17460   6.012   5.709   8.411  0.1031 -0.1891  0.1980
  156SAPE  C31417461   6.155   5.663   8.255  0.7794  0.0431 -0.5405
  156SAPE  H14X17462   6.098   5.722   8.181 -1.2023  1.8047  2.2011
  156SAPE  H14Y17463   6.125   5.557   8.249  1.3297 -0.4103  2.6768
  156SAPE  C31517464   6.306   5.667   8.229  0.6018  0.3482 -0.0617
  156SAPE  H15X17465   6.352   5.574   8.268 -0.5893 -0.0604  0.4236
  156SAPE  H15Y17466   6.362   5.755   8.268  1.0832  0.1518 -0.3025
  156SAPE  C31617467   6.328   5.679   8.071 -0.2997 -0.1637 -0.0696
  156SAPE  H16X17468   6.261   5.760   8.035 -1.0034  0.8325  3.1695
  156SAPE  H16Y17469   6.289   5.587   8.023 -2.2118  0.9531 -0.7910
  156SAPE  C31717470   6.479   5.714   8.054  0.1438 -0.6308  0.0760
  156SAPE  H17X17471   6.532   5.637   8.114 -2.2540 -0.6211  2.3758
  156SAPE  H17Y17472   6.512   5.809   8.100 -1.9278  1.3172 -2.1257
  156SAPE  C31817473   6.534   5.724   7.906 -0.2917  0.2160  0.1542
  156SAPE  H18X17474   6.471   5.793   7.847 -1.4961 -1.6775 -0.8684
  156SAPE  H18Y17475   6.538   5.631   7.846  0.8959  0.3548 -0.0059
  156SAPE  H18Z17476   6.641   5.754   7.913 -1.0864  2.9660  2.1004
  157SAPE     N17477   0.426   5.767  10.871 -0.1487  0.1242  0.1872
  157SAPE   HN117478   0.371   5.688  10.832 -0.3393 -0.4782  1.6213
  157SAPE   HN217479   0.394   5.788  10.968  0.5913 -2.7349  1.1539
  157SAPE   HN317480   0.400   5.846  10.808 -2.4582 -1.4179 -0.9416
  157SAPE   C1217481   0.578   5.757  10.868  0.1865 -0.3114  0.1306
  157SAPE  H12A17482   0.612   5.675  10.935  0.9102  2.1944  3.0435
  157SAPE  H12B17483   0.623   5.856  10.892  0.6112  0.2894 -2.7774
  157SAPE   C1117484   0.624   5.718  10.724 -0.4708 -0.3389  0.4821
  157SAPE  H11A17485   0.732   5.693  10.722 -0.9329 -2.5703 -1.7222
  157SAPE  H11B17486   0.599   5.800  10.653  1.3229 -1.1190 -1.1515
  157SAPE     P17487   0.601   5.494  10.579 -0.1628  0.0670 -0.0143
  157SAPE   O1317488   0.727   5.432  10.633 -0.1562  0.4404  0.4175
  157SAPE   O1417489   0.485   5.405  10.559  0.1636 -0.2626  0.3978
  157SAPE   O1217490   0.553   5.600  10.688  0.6575  0.2337 -0.0613
  157SAPE   O1117491   0.635   5.590  10.460  0.6441  0.4262  0.2762
  157SAPE    C117492   0.516   5.660  10.397 -0.6853 -0.8670  0.3086
  157SAPE    HA17493   0.426   5.598  10.379 -0.6563 -0.9010  0.2811
  157SAPE    HB17494   0.496   5.744  10.467 -1.1162  0.8238 -1.7589
  157SAPE    C217495   0.559   5.729  10.267 -0.0113  0.7354 -0.1568
  157SAPE    HS17496   0.625   5.813  10.297 -1.3672  1.0041  2.3985
  157SAPE   O2117497   0.448   5.784  10.197  0.6557  0.1250 -0.0671
  157SAPE   C2117498   0.392   5.888  10.244  0.1893 -0.4882  0.4522
  157SAPE   O2217499   0.414   5.944  10.350  0.3037 -0.3272 -0.4139
  157SAPE   C2217500   0.282   5.922  10.145 -0.5544  0.1567 -0.5914
  157SAPE   H2R17501   0.255   5.843  10.072 -1.1961  0.3493 -0.5701
  157SAPE   H2S17502   0.194   5.953  10.206 -0.3066  1.4969 -0.8764
  157SAPE    C317503   0.645   5.638  10.167  0.1473  0.5090 -0.5539
  157SAPE    HX17504   0.592   5.541  10.157 -2.5523  2.1017 -3.2159
  157SAPE    HY17505   0.740   5.626  10.223 -1.0178  3.3167  2.3532
  157SAPE   O3117506   0.662   5.693  10.041  0.1675  0.1016  0.0786
  157SAPE   C3117507   0.767   5.774  10.028  0.6458 -0.7152  1.0217
  157SAPE   O3217508   0.845   5.805  10.113  0.0275  0.0507 -0.1759
  157SAPE   C3217509   0.766   5.828   9.888  0.4998  0.7604  0.6540
  157SAPE   H2X17510   0.665   5.858   9.853  1.0284  1.7937 -0.0551
  157SAPE   H2Y17511   0.806   5.745   9.827  3.0692 -1.5999  5.0133
  157SAPE   C2317512   0.329   6.051  10.072 -0.6593 -0.1549  0.4238
  157SAPE   H3R17513   0.360   6.131  10.143  0.0542  0.4006 -0.4845
  157SAPE   H3S17514   0.235   6.098  10.035 -0.3898  0.5720  0.6331
  157SAPE   C2417515   0.432   6.033   9.961 -0.4259 -0.4615 -0.1820
  157SAPE   H4R17516   0.529   6.008  10.010 -0.0968 -0.9271 -1.0396
  157SAPE   H4S17517   0.446   6.138   9.928 -2.1326  0.1185  0.8469
  157SAPE   C2517518   0.378   5.936   9.858 -0.1700 -0.3148 -0.3107
  157SAPE   H5R17519   0.375   5.828   9.882 -1.2885 -1.0635 -3.4408
  157SAPE   C2617520   0.348   5.969   9.729 -0.1409 -0.1656 -0.1990
  157SAPE   H6R17521   0.307   5.895   9.660  0.9853  0.0585 -1.1409
  157SAPE   C2717522   0.363   6.107   9.657 -0.3669  0.6614 -0.3846
  157SAPE   H7R17523   0.390   6.181   9.735  0.1438 -2.9307  3.1218
  157SAPE   H7S17524   0.267   6.137   9.609  0.9760  1.0237 -3.0602
  157SAPE   C2817525   0.473   6.101   9.556 -0.3341 -0.1629  0.3889
  157SAPE   H8R17526   0.576   6.089   9.591  0.4236  2.0917 -0.8545
  157SAPE   C2917527   0.454   6.109   9.424 -0.3797  0.1017 -0.3337
  157SAPE   H9R17528   0.545   6.095   9.363  0.1250  0.5588  0.2923
  157SAPE  C21017529   0.332   6.119   9.332 -0.7929  0.5512  0.2404
  157SAPE  H10R17530   0.245   6.145   9.396 -1.0110 -0.0695  0.2011
  157SAPE  H10S17531   0.318   6.020   9.283 -1.2390 -0.4320  2.2537
  157SAPE  C21117532   0.342   6.230   9.231  0.3697 -0.7098 -1.0185
  157SAPE  H11R17533   0.303   6.327   9.266 -1.2372 -1.4723 -0.5978
  157SAPE  C21217534   0.385   6.217   9.112 -0.2885 -0.5182  0.9498
  157SAPE  H12R17535   0.397   6.314   9.061 -1.0325 -0.5469  0.7207
  157SAPE  C21317536   0.435   6.091   9.047 -0.4253 -0.8728  0.3500
  157SAPE  H13R17537   0.359   6.050   8.977 -2.7064  1.6974  1.1914
  157SAPE  H13S17538   0.460   6.011   9.120  0.2013  0.1055  1.2415
  157SAPE  C21417539   0.570   6.111   8.990 -0.4567  0.2817  0.0106
  157SAPE  H14R17540   0.642   6.160   9.058 -0.3330 -0.2208  0.2484
  157SAPE  C21517541   0.613   6.086   8.864 -0.5651  1.2571 -0.4298
  157SAPE  H15R17542   0.716   6.113   8.837 -0.0231 -0.2026  0.0558
  157SAPE  C21617543   0.520   6.041   8.754  0.0186 -0.2572 -0.2900
  157SAPE  H16R17544   0.454   5.957   8.783  1.2274 -0.2459  2.9043
  157SAPE  H16S17545   0.583   6.011   8.667  1.1530 -0.2656  0.5126
  157SAPE  C21717546   0.441   6.170   8.708 -0.1861  0.3999  1.0459
  157SAPE  H17R17547   0.524   6.234   8.671 -1.2304  1.3853  0.3120
  157SAPE  H17S17548   0.392   6.229   8.788  0.2264  0.2817  1.3864
  157SAPE  C21817549   0.354   6.134   8.581  0.3701 -0.4948  0.6838
  157SAPE  H18R17550   0.430   6.092   8.512  0.4976  0.9471 -0.0863
  157SAPE  H18S17551   0.315   6.227   8.534 -0.6123 -2.0189 -1.7150
  157SAPE  C21917552   0.239   6.037   8.598  0.0468 -0.5853  0.8447
  157SAPE  H19R17553   0.281   5.933   8.602 -2.0034 -1.4261  1.6342
  157SAPE  H19S17554   0.171   6.030   8.510 -0.7308 -1.2399  1.4895
  157SAPE  C22017555   0.149   6.065   8.720 -0.2069  0.6923 -0.8308
  157SAPE  H20R17556   0.079   5.978   8.718  1.6537 -0.8859 -0.8261
  157SAPE  H20S17557   0.087   6.156   8.709  0.0303  0.7423 -1.8789
  157SAPE  H20T17558   0.203   6.072   8.817  1.9524 -1.0646 -1.8316
  157SAPE   C3317559   0.861   5.945   9.868  0.0272  0.7224  0.6615
  157SAPE   H3X17560   0.964   5.902   9.875  0.2174  0.6085 -1.8728
  157SAPE   H3Y17561   0.850   6.022   9.948  0.4099  0.5554  0.8790
  157SAPE   C3417562   0.839   6.010   9.732 -0.4688  0.2371 -0.4052
  157SAPE   H4X17563   0.915   6.089   9.712 -1.2955  0.7667 -1.5467
  157SAPE   H4Y17564   0.738   6.054   9.747 -1.6050 -2.3992  0.2996
  157SAPE   C3517565   0.850   5.905   9.613  0.0661 -0.9247 -0.1797
  157SAPE   H5X17566   0.752   5.854   9.608 -0.6149  0.1829  1.1739
  157SAPE   H5Y17567   0.929   5.828   9.628 -1.7089 -2.6036  0.9391
  157SAPE   C3617568   0.880   5.973   9.473  0.2341 -0.6623 -0.3797
  157SAPE   H6X17569   0.976   6.028   9.486 -0.2679 -0.3925  2.9675
  157SAPE   H6Y17570   0.816   6.064   9.467  2.2336  1.0236  1.7323
  157SAPE   C3717571   0.886   5.884   9.352  0.0641  0.3847 -0.5834
  157SAPE   H7X17572   0.796   5.822   9.334  0.9016 -1.6951  1.7821
  157SAPE   H7Y17573   0.966   5.811   9.378  0.6310  0.9733 -0.6404
  157SAPE   C3817574   0.943   5.971   9.236  0.1668  0.1925  0.5371
  157SAPE   H8X17575   1.053   5.983   9.244  0.4379 -2.2100  0.9852
  157SAPE   H8Y17576   0.895   6.071   9.222  0.9823  0.5008 -0.1854
  157SAPE   C3917577   0.925   5.901   9.098 -0.5803 -0.3966 -0.3069
  157SAPE   H9X17578   0.819   5.908   9.064 -0.6433 -0.0089 -0.0392
  157SAPE   H9Y17579   0.955   5.796   9.116  0.8022 -0.2425 -1.4894
  157SAPE  C31017580   1.017   5.955   8.996  0.7053  1.0059 -0.3464
  157SAPE  H10X17581   1.119   5.935   9.036 -0.2937 -0.9542  1.4439
  157SAPE  H10Y17582   1.005   6.065   8.998  0.1489  0.9371  1.3599
  157SAPE  C31117583   0.995   5.902   8.856  0.2322 -0.2989 -0.1536
  157SAPE  H11X17584   0.886   5.926   8.847  0.3602  0.9569  1.3025
  157SAPE  H11Y17585   1.008   5.792   8.849 -0.5806 -0.4417  0.3654
  157SAPE  C31217586   1.061   5.984   8.745 -0.1209  0.0969  0.3968
  157SAPE  H12X17587   1.168   5.999   8.771  0.1691 -0.4134 -0.4571
  157SAPE  H12Y17588   1.019   6.087   8.747  0.2950  0.2957 -0.4185
  157SAPE  C31317589   1.066   5.920   8.605 -0.1975  0.8746  0.4580
  157SAPE  H13X17590   0.973   5.877   8.562  2.0766  0.6588 -5.1124
  157SAPE  H13Y17591   1.144   5.841   8.603  0.5995  1.6418  0.5108
  157SAPE  C31417592   1.119   6.033   8.518 -0.5763 -0.7128  0.9454
  157SAPE  H14X17593   1.209   6.079   8.562  0.2508 -0.1908 -1.1680
  157SAPE  H14Y17594   1.040   6.111   8.522 -0.2410 -0.3314  0.2527
  157SAPE  C31517595   1.146   5.995   8.377 -0.5295  0.1285  0.0296
  157SAPE  H15X17596   1.046   5.971   8.334  0.4576  0.6238 -2.7531
  157SAPE  H15Y17597   1.219   5.913   8.388 -0.9732 -0.2112  0.4708
  157SAPE  C31617598   1.204   6.116   8.304  0.9210 -0.0901 -0.3617
  157SAPE  H16X17599   1.286   6.160   8.365  0.4468  0.2394  0.0543
  157SAPE  H16Y17600   1.128   6.196   8.295  1.1013  0.3709  1.7165
  157SAPE  C31717601   1.252   6.095   8.164 -0.1106 -0.3524  0.4931
  157SAPE  H17X17602   1.154   6.082   8.114  0.3535 -0.9779 -0.2700
  157SAPE  H17Y17603   1.317   6.005   8.155  0.9714  0.3135  1.3235
  157SAPE  C31817604   1.323   6.218   8.091 -0.5501  0.9042  0.1470
  157SAPE  H18X17605   1.346   6.170   7.993 -0.6491 -1.9611  1.4448
  157SAPE  H18Y17606   1.417   6.253   8.138 -0.5217 -1.5993  2.1260
  157SAPE  H18Z17607   1.255   6.306   8.091 -3.3567 -1.1204  0.3805
  158SAPE     N17608   0.761   5.166  10.667  0.6038  0.3262 -0.2612
  158SAPE   HN117609   0.857   5.145  10.704  0.5366 -0.2544 -0.4111
  158SAPE   HN217610   0.767   5.259  10.621 -1.9958  0.8085  0.2414
  158SAPE   HN317611   0.695   5.151  10.745 -1.3516 -0.1544 -1.9310
  158SAPE   C1217612   0.742   5.064  10.555 -0.7959  0.2365  0.3773
  158SAPE  H12A17613   0.713   4.967  10.601  1.2599 -0.1703  0.9340
  158SAPE  H12B17614   0.838   5.059  10.500 -1.8263  1.0918 -1.5966
  158SAPE   C1117615   0.631   5.102  10.455 -0.4330  0.1232  0.1146
  158SAPE  H11A17616   0.634   5.024  10.376 -1.5037 -0.8145  0.9663
  158SAPE  H11B17617   0.649   5.202  10.410 -1.5363  0.2989  0.0196
  158SAPE     P17618   0.415   4.977  10.514  0.1135  0.1187  0.0904
  158SAPE   O1317619   0.499   4.857  10.507  0.1832  0.1340 -0.3832
  158SAPE   O1417620   0.318   4.981  10.622  0.1517 -0.4486  0.1272
  158SAPE   O1217621   0.507   5.105  10.520 -0.2656 -0.0024  0.5900
  158SAPE   O1117622   0.338   4.998  10.372 -0.6534  0.7080  0.4343
  158SAPE    C117623   0.242   5.095  10.346  0.1521 -1.1414 -0.2282
  158SAPE    HA17624   0.141   5.051  10.341 -0.5846  0.4585 -0.1653
  158SAPE    HB17625   0.230   5.161  10.435 -0.9426 -1.8906  0.1970
  158SAPE    C217626   0.267   5.188  10.223  0.3917  0.0198  0.0211
  158SAPE    HS17627   0.187   5.264  10.207  0.6304  0.5971  1.4518
  158SAPE   O2117628   0.282   5.110  10.105  0.3060  0.5178 -0.7407
  158SAPE   C2117629   0.174   5.057  10.047 -0.8452 -0.3157 -0.1389
  158SAPE   O2217630   0.060   5.075  10.082  0.4481 -0.5292  0.2350
  158SAPE   C2217631   0.224   5.003   9.911 -0.2874 -0.2579  0.1315
  158SAPE   H2R17632   0.276   5.089   9.863  1.5787  0.4145  3.0739
  158SAPE   H2S17633   0.307   4.933   9.938  0.0288 -0.1493 -0.5427
  158SAPE    C317634   0.399   5.275  10.237  0.6523 -0.0869 -0.1007
  158SAPE    HX17635   0.480   5.213  10.281  2.0463  2.4434  1.0668
  158SAPE    HY17636   0.386   5.357  10.310  0.0490  1.4254 -1.8161
  158SAPE   O3117637   0.444   5.330  10.110 -0.3114 -1.0972 -0.2553
  158SAPE   C3117638   0.373   5.433  10.055  0.1911 -0.5357  0.0255
  158SAPE   O3217639   0.283   5.489  10.119 -0.1915  0.4208 -0.4297
  158SAPE   C3217640   0.434   5.459   9.918  0.1353  0.3087 -0.0644
  158SAPE   H2X17641   0.492   5.372   9.882 -0.1854  0.3689 -0.7422
  158SAPE   H2Y17642   0.502   5.544   9.939  0.3037  0.8248 -2.4224
  158SAPE   C2317643   0.122   4.923   9.826  0.1796 -0.5046  0.5276
  158SAPE   H3R17644   0.040   4.996   9.812  2.0115  1.6977  0.7299
  158SAPE   H3S17645   0.087   4.831   9.879 -2.1856 -0.8186 -1.3921
  158SAPE   C2417646   0.177   4.894   9.682  0.0482  0.2858  0.4285
  158SAPE   H4R17647   0.106   4.825   9.632 -0.2310  1.1602 -0.4046
  158SAPE   H4S17648   0.265   4.826   9.690 -1.2830 -1.4084  1.3525
  158SAPE   C2517649   0.196   5.028   9.613 -0.0066 -0.4586 -0.3125
  158SAPE   H5R17650   0.295   5.072   9.632  0.7548 -1.7243 -1.1713
  158SAPE   C2617651   0.098   5.093   9.556  0.5838 -0.7369  0.4648
  158SAPE   H6R17652   0.121   5.189   9.508  0.8701 -1.3703 -0.7112
  158SAPE   C2717653  -0.050   5.065   9.543  0.0821  0.2983  0.0991
  158SAPE   H7R17654  -0.101   5.144   9.601  1.2764  1.2335 -0.0995
  158SAPE   H7S17655  -0.074   4.961   9.574  0.3971  0.7386  1.9567
  158SAPE   C2817656  -0.095   5.101   9.402 -1.0106 -0.0855 -0.1334
  158SAPE   H8R17657  -0.143   5.200   9.391  1.2591  1.0787 -0.1722
  158SAPE   C2917658  -0.083   5.028   9.290  0.3106  0.4181 -0.4553
  158SAPE   H9R17659  -0.139   5.074   9.206 -0.7940  0.7103  0.4218
  158SAPE  C21017660  -0.020   4.893   9.273  0.3556 -0.4200  0.3618
  158SAPE  H10R17661  -0.086   4.822   9.219 -0.6604  1.2437 -0.6523
  158SAPE  H10S17662  -0.013   4.848   9.375 -0.4257 -2.6842 -0.5153
  158SAPE  C21117663   0.117   4.900   9.204  0.0498  0.0392 -0.6944
  158SAPE  H11R17664   0.200   4.933   9.268  0.2237 -0.1831 -0.8033
  158SAPE  C21217665   0.137   4.860   9.079  0.0862 -0.0418  0.2736
  158SAPE  H12R17666   0.242   4.860   9.049  0.1982  0.3716  0.6567
  158SAPE  C21317667   0.031   4.810   8.986 -0.5107 -0.1522 -0.2208
  158SAPE  H13R17668  -0.033   4.898   8.964 -0.7107  0.2032  1.6175
  158SAPE  H13S17669  -0.034   4.735   9.034  0.0195  0.0784  0.8834
  158SAPE  C21417670   0.104   4.759   8.863  0.7853 -0.5833 -0.3176
  158SAPE  H14R17671   0.198   4.704   8.875  1.0196 -0.2618 -0.6825
  158SAPE  C21517672   0.053   4.781   8.742  0.3952  0.8969 -0.2376
  158SAPE  H15R17673   0.112   4.758   8.652  0.5712  1.1693 -0.1937
  158SAPE  C21617674  -0.071   4.859   8.700  0.5432 -0.4209  0.1933
  158SAPE  H16R17675  -0.134   4.895   8.785 -1.7845 -0.5297 -1.3681
  158SAPE  H16S17676  -0.142   4.799   8.639  0.0918  0.2984 -0.0043
  158SAPE  C21717677  -0.038   4.980   8.610 -0.1951  0.4799  0.1734
  158SAPE  H17R17678  -0.013   4.940   8.510 -0.4418 -0.0010  0.3008
  158SAPE  H17S17679   0.059   5.022   8.646 -0.7977 -0.0104  2.5982
  158SAPE  C21817680  -0.141   5.096   8.606 -0.0311 -0.4428  0.9510
  158SAPE  H18R17681  -0.085   5.185   8.569 -0.0912 -0.0000  1.8949
  158SAPE  H18S17682  -0.182   5.122   8.706  0.7691 -0.0572  1.1832
  158SAPE  C21917683  -0.248   5.077   8.501  0.3405  0.1496  0.4374
  158SAPE  H19R17684  -0.294   4.978   8.522 -2.2866  1.2980  0.3945
  158SAPE  H19S17685  -0.205   5.061   8.400 -2.1055  1.4948 -0.8930
  158SAPE  C22017686  -0.341   5.200   8.504 -0.6741 -0.0743 -0.2870
  158SAPE  H20R17687  -0.290   5.294   8.478  0.8952 -1.4601 -2.5289
  158SAPE  H20S17688  -0.380   5.213   8.608  2.0432 -0.0850  0.8143
  158SAPE  H20T17689  -0.429   5.193   8.436 -1.1408  0.5480  0.2317
  158SAPE   C3317690   0.342   5.510   9.817  0.0864  0.7510  1.1358
  158SAPE   H3X17691   0.292   5.607   9.840  0.2839  1.0879  0.1916
  158SAPE   H3Y17692   0.262   5.435   9.802  0.4699 -0.0626  2.9033
  158SAPE   C3417693   0.397   5.523   9.664 -0.2358  0.4609  0.4120
  158SAPE   H4X17694   0.305   5.542   9.605 -2.2629 -0.4628  3.0784
  158SAPE   H4Y17695   0.431   5.421   9.634 -1.6631 -0.1823  0.8901
  158SAPE   C3517696   0.499   5.630   9.634  0.3104 -0.8237 -0.5988
  158SAPE   H5X17697   0.587   5.614   9.700  0.1399  0.4099 -0.0578
  158SAPE   H5Y17698   0.459   5.731   9.656  1.6261  0.0122 -1.8888
  158SAPE   C3617699   0.548   5.644   9.492 -0.2276 -0.5897  0.5064
  158SAPE   H6X17700   0.578   5.547   9.446 -0.3309  0.1034 -1.0677
  158SAPE   H6Y17701   0.640   5.705   9.483 -0.7581  0.5410  2.2270
  158SAPE   C3717702   0.440   5.697   9.386 -0.7957 -0.3887 -0.8594
  158SAPE   H7X17703   0.390   5.785   9.433  0.9841  0.6631 -0.8630
  158SAPE   H7Y17704   0.365   5.616   9.394  0.1769 -1.1623  0.7701
  158SAPE   C3817705   0.493   5.732   9.248 -0.3893 -0.5570  0.8438
  158SAPE   H8X17706   0.582   5.797   9.234 -0.2741 -0.5554  1.5797
  158SAPE   H8Y17707   0.407   5.788   9.204 -0.5762 -1.2866  0.2681
  158SAPE   C3917708   0.519   5.607   9.150 -0.0288  0.1379  0.2241
  158SAPE   H9X17709   0.430   5.544   9.129 -1.7192  2.7479 -0.9079
  158SAPE   H9Y17710   0.603   5.542   9.185 -0.2777 -0.7095 -0.7074
  158SAPE  C31017711   0.559   5.662   9.015  0.3105  0.3734  0.1784
  158SAPE  H10X17712   0.662   5.700   9.033  0.3439  0.2311  0.2840
  158SAPE  H10Y17713   0.498   5.752   8.992 -3.6929 -1.9339  0.9905
  158SAPE  C31117714   0.575   5.566   8.898  0.3141 -0.0732 -0.0326
  158SAPE  H11X17715   0.487   5.497   8.901  1.6869 -1.8933  1.7862
  158SAPE  H11Y17716   0.666   5.505   8.913  1.9246  2.4400  0.9543
  158SAPE  C31217717   0.587   5.631   8.765  1.0675  0.2006 -0.2973
  158SAPE  H12X17718   0.685   5.682   8.757  1.7716 -0.5487  2.3874
  158SAPE  H12Y17719   0.510   5.710   8.753 -1.0257 -1.7272 -0.1991
  158SAPE  C31317720   0.569   5.525   8.660  0.4805 -0.1370  0.7079
  158SAPE  H13X17721   0.468   5.484   8.678  0.0055  1.4621  1.9136
  158SAPE  H13Y17722   0.650   5.451   8.677  1.0492  0.1087 -0.8228
  158SAPE  C31417723   0.573   5.589   8.523  0.4830  0.0518 -0.4593
  158SAPE  H14X17724   0.494   5.666   8.511 -0.2651 -0.3122  1.6949
  158SAPE  H14Y17725   0.543   5.515   8.446 -2.2192  2.8518 -2.3563
  158SAPE  C31517726   0.710   5.650   8.477  0.7992 -0.1320 -0.0925
  158SAPE  H15X17727   0.795   5.589   8.514 -1.0838 -2.1871  1.0945
  158SAPE  H15Y17728   0.735   5.754   8.508  1.2665  0.1365 -1.3141
  158SAPE  C31617729   0.721   5.646   8.320 -0.2016 -0.5842 -0.6069
  158SAPE  H16X17730   0.629   5.698   8.286 -1.4787 -1.8301  0.8228
  158SAPE  H16Y17731   0.722   5.540   8.288  2.5804 -0.3003 -1.7972
  158SAPE  C31717732   0.848   5.711   8.264  0.8043  0.6741  0.0531
  158SAPE  H17X17733   0.873   5.811   8.306 -0.3164  2.1011 -2.4260
  158SAPE  H17Y17734   0.824   5.740   8.159  0.2274 -0.8462 -0.2623
  158SAPE  C31817735   0.973   5.627   8.263  0.0555  0.6843 -0.5632
  158SAPE  H18X17736   1.008   5.595   8.364 -0.2583  3.0584  0.3631
  158SAPE  H18Y17737   1.053   5.677   8.205  0.3086  0.6589 -0.2387
  158SAPE  H18Z17738   0.953   5.545   8.191  1.5302 -1.7207  1.5858
  159SAPE     N17739   6.684   1.411   6.288 -0.5925  0.5296 -0.0016
  159SAPE   HN117740   6.666   1.506   6.248 -0.2550  0.9879  0.9052
  159SAPE   HN217741   6.785   1.391   6.298 -0.4037  1.9955  1.5005
  159SAPE   HN317742   6.654   1.332   6.228 -0.4865  0.4689  0.0271
  159SAPE   C1217743   6.616   1.403   6.425  0.1757  0.1255  0.0872
  159SAPE  H12A17744   6.656   1.485   6.488  2.0077 -0.1748 -0.6232
  159SAPE  H12B17745   6.649   1.306   6.468  0.7699  0.7035  0.9735
  159SAPE   C1117746   6.460   1.414   6.430 -0.2913 -0.0840 -0.6017
  159SAPE  H11A17747   6.426   1.433   6.534  0.2095 -0.5421 -0.3492
  159SAPE  H11B17748   6.415   1.318   6.400 -1.2854 -0.3760  1.6467
  159SAPE     P17749   6.462   1.662   6.362  0.1850 -0.0238 -0.3356
  159SAPE   O1317750   6.600   1.689   6.306  0.2099 -0.2424 -1.1370
  159SAPE   O1417751   6.356   1.748   6.319  0.0610  0.4862 -0.0494
  159SAPE   O1217752   6.418   1.515   6.337 -0.0002  0.2593  0.2991
  159SAPE   O1117753   6.467   1.672   6.523  0.5519  0.0147  0.4068
  159SAPE    C117754   6.349   1.693   6.599 -0.5128  0.4805  0.9871
  159SAPE    HA17755   6.301   1.792   6.582  0.9137  1.2181  1.1166
  159SAPE    HB17756   6.283   1.607   6.573  3.3191 -2.2502 -0.6811
  159SAPE    C217757   6.366   1.674   6.747  0.4856  0.0367 -0.7612
  159SAPE    HS17758   6.269   1.694   6.796 -1.1758 -0.9403 -3.4498
  159SAPE   O2117759   6.469   1.753   6.800 -0.1953 -0.2806 -0.1378
  159SAPE   C2117760   6.457   1.891   6.789 -0.1425  0.4080  0.6986
  159SAPE   O2217761   6.362   1.948   6.735 -0.3745 -0.2179  0.3276
  159SAPE   C2217762   6.578   1.943   6.865  0.8645 -1.0308 -0.6647
  159SAPE   H2R17763   6.673   1.918   6.812  1.6442 -1.4633  0.8865
  159SAPE   H2S17764   6.570   2.053   6.850 -0.0108 -0.9856  0.0822
  159SAPE    C317765   6.397   1.528   6.786  0.5922  0.7795 -0.1749
  159SAPE    HX17766   6.492   1.498   6.736 -0.8761 -2.0563 -1.4975
  159SAPE    HY17767   6.317   1.460   6.752  0.7139  1.0088 -0.9391
  159SAPE   O3117768   6.411   1.514   6.927 -0.2352  0.0530  0.4761
  159SAPE   C3117769   6.534   1.526   6.980  0.1625 -0.0266 -0.1665
  159SAPE   O3217770   6.638   1.523   6.918 -0.1194  0.9960  0.0022
  159SAPE   C3217771   6.515   1.556   7.127  0.1582  0.2073 -0.3499
  159SAPE   H2X17772   6.455   1.473   7.171  1.0211 -0.2505 -0.0206
  159SAPE   H2Y17773   6.447   1.643   7.131  0.2931  0.3717 -1.3729
  159SAPE   C2317774   6.588   1.914   7.019  0.6628 -0.1041 -0.5939
  159SAPE   H3R17775   6.682   1.954   7.061  0.0161  2.8970 -1.7288
  159SAPE   H3S17776   6.595   1.806   7.044  1.2538  0.0672  0.0083
  159SAPE   C2417777   6.463   1.954   7.092  0.0156  0.4714 -0.2631
  159SAPE   H4R17778   6.478   1.927   7.199  3.9293 -1.3624 -1.0936
  159SAPE   H4S17779   6.394   1.876   7.053  1.8716 -1.2017 -0.3540
  159SAPE   C2517780   6.434   2.098   7.078 -0.4544 -0.5204  0.0397
  159SAPE   H5R17781   6.402   2.137   6.980  0.9850 -0.0024 -0.2587
  159SAPE   C2617782   6.433   2.185   7.186  0.5203  0.2030  0.4347
  159SAPE   H6R17783   6.415   2.292   7.167  1.1323  0.1986 -0.2023
  159SAPE   C2717784   6.456   2.160   7.336 -0.7469  0.3300  0.3472
  159SAPE   H7R17785   6.529   2.237   7.371 -0.3588  0.1805 -0.1132
  159SAPE   H7S17786   6.504   2.060   7.345 -0.3797  0.4819  0.1198
  159SAPE   C2817787   6.332   2.163   7.431  0.5312 -1.0142  0.8513
  159SAPE   H8R17788   6.230   2.157   7.389 -0.2945 -1.1810  2.7857
  159SAPE   C2917789   6.352   2.148   7.563  0.6983  0.3731  0.3397
  159SAPE   H9R17790   6.264   2.158   7.629 -0.2954 -0.8012 -0.7455
  159SAPE  C21017791   6.483   2.124   7.636 -0.1799  0.1137 -0.1508
  159SAPE  H10R17792   6.535   2.222   7.635 -1.4801  0.8397  1.1134
  159SAPE  H10S17793   6.536   2.045   7.578 -0.9652 -0.1513 -0.5211
  159SAPE  C21117794   6.478   2.068   7.777 -0.1673  0.1324  0.8707
  159SAPE  H11R17795   6.516   2.135   7.856 -0.2948 -0.4431  1.4327
  159SAPE  C21217796   6.424   1.946   7.809  0.3723  0.1127 -0.0568
  159SAPE  H12R17797   6.457   1.908   7.907  1.4797  0.3980 -0.3058
  159SAPE  C21317798   6.350   1.838   7.732 -0.0931 -0.5059 -0.5640
  159SAPE  H13R17799   6.413   1.746   7.732  0.9327  0.1054  2.2447
  159SAPE  H13S17800   6.341   1.877   7.628  1.1280  0.4103 -0.3510
  159SAPE  C21417801   6.219   1.809   7.804 -0.1509 -0.3071 -0.1462
  159SAPE  H14R17802   6.148   1.892   7.797 -1.0099 -0.9594  0.5822
  159SAPE  C21517803   6.174   1.694   7.857  0.1860 -0.0570  0.4472
  159SAPE  H15R17804   6.074   1.687   7.902  0.2999  1.0713  0.8859
  159SAPE  C21617805   6.256   1.560   7.851  0.1556 -0.2666  0.0471
  159SAPE  H16R17806   6.318   1.545   7.759  0.6462 -2.9677  0.7385
  159SAPE  H16S17807   6.190   1.471   7.860 -1.9125  1.3512  2.1819
  159SAPE  C21717808   6.358   1.530   7.973  0.6637  0.1681 -0.6066
  159SAPE  H17R17809   6.436   1.608   7.986 -1.1427  1.6875  2.1155
  159SAPE  H17S17810   6.413   1.437   7.947 -0.4480 -0.4685 -0.7073
  159SAPE  C21817811   6.280   1.527   8.106 -0.1222 -0.1106 -0.1537
  159SAPE  H18R17812   6.238   1.425   8.115  1.0888 -0.5645  0.5222
  159SAPE  H18S17813   6.197   1.601   8.105 -0.3662 -0.3914 -0.6577
  159SAPE  C21917814   6.365   1.558   8.225 -0.3777 -0.6201 -0.1999
  159SAPE  H19R17815   6.409   1.660   8.222  0.4125 -0.8049  2.2564
  159SAPE  H19S17816   6.461   1.502   8.232 -0.5708 -0.8874  0.4147
  159SAPE  C22017817   6.293   1.546   8.364 -0.1841 -0.1980  0.0578
  159SAPE  H20R17818   6.253   1.444   8.381  2.0557 -1.0807  0.4243
  159SAPE  H20S17819   6.203   1.611   8.374 -0.2409 -0.1886 -0.4974
  159SAPE  H20T17820   6.365   1.558   8.448 -1.4532 -0.2303  1.1976
  159SAPE   C3317821   6.641   1.574   7.207  0.4702  0.3206 -0.5250
  159SAPE   H3X17822   6.706   1.644   7.151 -1.5410  0.6087 -2.6569
  159SAPE   H3Y17823   6.685   1.472   7.222 -0.5253 -0.0130  0.2306
  159SAPE   C3417824   6.613   1.628   7.351 -0.1652  0.2243 -0.1526
  159SAPE   H4X17825   6.553   1.556   7.410  1.0722 -0.1210  0.7098
  159SAPE   H4Y17826   6.561   1.726   7.342  0.3057  0.4254 -0.7262
  159SAPE   C3517827   6.748   1.650   7.425  0.5830  0.3165 -0.1857
  159SAPE   H5X17828   6.817   1.697   7.352  0.9035  0.3177  0.1193
  159SAPE   H5Y17829   6.787   1.546   7.435  4.1098  1.4648 -0.7489
  159SAPE   C3617830   6.742   1.709   7.568  0.9553 -0.6051 -0.3514
  159SAPE   H6X17831   6.687   1.806   7.571  0.2313 -0.9223 -2.2788
  159SAPE   H6Y17832   6.847   1.723   7.603  0.5629  0.4632  0.4589
  159SAPE   C3717833   6.677   1.616   7.680  0.0347 -0.0445 -0.4852
  159SAPE   H7X17834   6.573   1.586   7.656 -0.7761  1.2099  1.2518
  159SAPE   H7Y17835   6.665   1.687   7.764  1.5420 -1.1145  0.7012
  159SAPE   C3817836   6.765   1.501   7.715  0.9707  0.1817 -0.1458
  159SAPE   H8X17837   6.873   1.525   7.723  0.7877  1.2131 -0.5939
  159SAPE   H8Y17838   6.765   1.411   7.650  0.9932  0.1699 -0.1292
  159SAPE   C3917839   6.734   1.442   7.852  0.0785 -0.6038  0.0190
  159SAPE   H9X17840   6.628   1.411   7.854 -0.3074  0.5631 -1.0640
  159SAPE   H9Y17841   6.735   1.524   7.927  0.0636  1.1751 -1.8333
  159SAPE  C31017842   6.824   1.329   7.888 -0.3409  0.5751 -0.0208
  159SAPE  H10X17843   6.912   1.374   7.938 -1.5943  3.6336 -0.3779
  159SAPE  H10Y17844   6.857   1.269   7.800 -0.1714  1.4499 -0.5674
  159SAPE  C31117845   6.745   1.234   7.977 -0.5357 -0.4824 -0.0269
  159SAPE  H11X17846   6.658   1.188   7.926 -1.2378  1.1589 -0.3821
  159SAPE  H11Y17847   6.709   1.293   8.064  3.0928  0.0811  1.2525
  159SAPE  C31217848   6.834   1.119   8.024 -0.4129  0.1112  0.3272
  159SAPE  H12X17849   6.937   1.160   8.016 -0.3908  0.1212  0.6398
  159SAPE  H12Y17850   6.831   1.038   7.948 -0.7918 -1.6086  2.1011
  159SAPE  C31317851   6.794   1.064   8.154  0.3514  0.0926  0.0038
  159SAPE  H13X17852   6.685   1.044   8.155  0.5933 -1.5079 -1.3202
  159SAPE  H13Y17853   6.821   1.141   8.229  2.8253  1.7679 -2.3996
  159SAPE  C31417854   6.868   0.932   8.186  0.1875  0.0461  0.2260
  159SAPE  H14X17855   6.976   0.953   8.200  0.6395 -1.0886 -1.2906
  159SAPE  H14Y17856   6.860   0.856   8.106  0.5332  1.7301 -1.4924
  159SAPE  C31517857   6.812   0.875   8.315 -0.6946  0.4149 -0.5117
  159SAPE  H15X17858   6.709   0.842   8.289 -1.1096  1.3217 -0.0634
  159SAPE  H15Y17859   6.805   0.953   8.393 -1.1744 -1.4275  1.3584
  159SAPE  C31617860   6.898   0.758   8.359 -1.4169 -0.2380  0.4504
  159SAPE  H16X17861   6.995   0.803   8.390 -0.4089 -1.0958 -1.3177
  159SAPE  H16Y17862   6.929   0.701   8.268 -2.8214 -0.8430  0.3311
  159SAPE  C31717863   6.838   0.663   8.456 -0.2484 -0.2373  0.2414
  159SAPE  H17X17864   6.771   0.716   8.527  0.6591  0.7463  0.3947
  159SAPE  H17Y17865   6.918   0.598   8.496 -2.0516 -2.0027  1.1456
  159SAPE  C31817866   6.746   0.562   8.385 -0.1760  0.1642 -0.6407
  159SAPE  H18X17867   6.663   0.609   8.328  1.4136  2.3056 -1.3271
  159SAPE  H18Y17868   6.716   0.490   8.464  0.9789 -0.7028 -0.9680
  159SAPE  H18Z17869   6.805   0.509   8.307 -0.5045  2.7177 -2.7739
  160SAPE     N17870   3.826   4.621   6.286  0.5551 -0.1664 -0.2916
  160SAPE   HN117871   3.843   4.712   6.334  1.0962 -0.4590  0.0807
  160SAPE   HN217872   3.752   4.635   6.214 -2.6761 -1.4885  2.4742
  160SAPE   HN317873   3.780   4.562   6.358 -2.9334  0.7243 -1.5661
  160SAPE   C1217874   3.948   4.563   6.222  0.0041  0.6280  0.0833
  160SAPE  H12A17875   4.016   4.645   6.194 -0.2778  1.4312  1.6523
  160SAPE  H12B17876   3.924   4.500   6.133 -2.5827  0.9626  0.4503
  160SAPE   C1117877   4.020   4.458   6.326 -0.1886  0.0495 -0.0363
  160SAPE  H11A17878   4.027   4.514   6.422  0.2244 -0.3974  0.2009
  160SAPE  H11B17879   4.124   4.449   6.287 -1.0591  0.8024 -2.7849
  160SAPE     P17880   3.862   4.302   6.453  0.1020  0.1104 -0.0331
  160SAPE   O1317881   3.788   4.432   6.464  0.2548  0.3452  0.2141
  160SAPE   O1417882   3.785   4.178   6.430 -0.0913 -0.9302 -0.1742
  160SAPE   O1217883   3.965   4.321   6.336  0.2930  0.1569 -0.0141
  160SAPE   O1117884   3.950   4.280   6.580  0.0223 -0.0207 -0.2449
  160SAPE    C117885   4.055   4.180   6.588  0.2063 -0.5565 -0.7914
  160SAPE    HA17886   4.043   4.098   6.515  0.0626 -0.9415 -0.3415
  160SAPE    HB17887   4.157   4.221   6.571  0.9682 -1.6446  0.8416
  160SAPE    C217888   4.052   4.112   6.731  0.4500  0.0877  0.3126
  160SAPE    HS17889   3.948   4.081   6.753  0.0031 -0.4713 -2.2425
  160SAPE   O2117890   4.095   4.207   6.826  0.0254  0.4493  0.4860
  160SAPE   C2117891   4.086   4.174   6.953 -0.0222 -0.3397 -0.4676
  160SAPE   O2217892   4.043   4.067   6.995 -0.5434  0.7369  0.7204
  160SAPE   C2217893   4.140   4.288   7.040  0.2911 -0.1421  0.1368
  160SAPE   H2R17894   4.251   4.282   7.044  0.4582  0.1240 -2.4407
  160SAPE   H2S17895   4.103   4.388   7.008 -1.7766  0.3721  3.5822
  160SAPE    C317896   4.138   3.979   6.739 -0.3866  0.0469  0.6728
  160SAPE    HX17897   4.126   3.911   6.651  0.5245 -1.8004  1.9076
  160SAPE    HY17898   4.101   3.922   6.827  0.4853  0.8370  1.5831
  160SAPE   O3117899   4.275   4.016   6.746  0.2112 -0.3009 -0.5167
  160SAPE   C3117900   4.354   3.929   6.805  0.4957 -1.3385  0.2728
  160SAPE   O3217901   4.329   3.815   6.832  0.3029  0.3935  0.3557
  160SAPE   C3217902   4.494   3.995   6.822  0.4063  0.1215 -0.4062
  160SAPE   H2X17903   4.520   4.042   6.724  1.2785  0.8302  0.1509
  160SAPE   H2Y17904   4.575   3.919   6.836  1.4208  1.2106 -0.2186
  160SAPE   C2317905   4.111   4.255   7.189 -0.9074 -0.3841 -0.6442
  160SAPE   H3R17906   4.143   4.154   7.221 -2.3869 -0.4576  0.7526
  160SAPE   H3S17907   4.000   4.246   7.195 -0.8206 -1.0067  0.1578
  160SAPE   C2417908   4.165   4.353   7.292 -0.2391 -0.3225  0.5213
  160SAPE   H4R17909   4.164   4.453   7.244 -0.3926 -1.3138 -1.6375
  160SAPE   H4S17910   4.265   4.312   7.316 -0.1592 -0.5165 -0.1382
  160SAPE   C2517911   4.083   4.349   7.417 -1.0907  0.6006 -0.2463
  160SAPE   H5R17912   3.976   4.327   7.400 -0.5216 -1.0897 -1.8819
  160SAPE   C2617913   4.126   4.401   7.537  1.1014  0.1139  0.1083
  160SAPE   H6R17914   4.059   4.400   7.624  0.3468  0.8071 -0.4553
  160SAPE   C2717915   4.261   4.457   7.571  0.7309 -0.0803 -0.0033
  160SAPE   H7R17916   4.259   4.568   7.575  0.5894  0.0266 -1.8992
  160SAPE   H7S17917   4.339   4.427   7.498  0.8889  0.9836 -0.2911
  160SAPE   C2817918   4.306   4.408   7.707  0.0485  0.3648 -0.1479
  160SAPE   H8R17919   4.321   4.299   7.714 -0.1093  0.3051 -0.6802
  160SAPE   C2917920   4.327   4.472   7.824 -0.0185  0.4147  0.4842
  160SAPE   H9R17921   4.347   4.410   7.913  1.0073  0.3632  0.2290
  160SAPE  C21017922   4.319   4.617   7.857  0.5697  0.3417 -1.2399
  160SAPE  H10R17923   4.225   4.622   7.917 -0.4630 -4.1908 -2.0975
  160SAPE  H10S17924   4.293   4.682   7.770 -1.9317  0.6886 -0.3295
  160SAPE  C21117925   4.439   4.665   7.936  0.3721  0.3125 -0.3661
  160SAPE  H11R17926   4.522   4.704   7.876  0.8575  1.5840  1.0625
  160SAPE  C21217927   4.458   4.655   8.069 -0.0468  0.4339 -0.4869
  160SAPE  H12R17928   4.550   4.702   8.105 -0.2067  1.4495 -1.3266
  160SAPE  C21317929   4.367   4.589   8.167 -0.3556 -0.6039  0.2034
  160SAPE  H13R17930   4.279   4.547   8.112 -0.1922  1.9498 -2.2158
  160SAPE  H13S17931   4.333   4.676   8.226  0.1924  1.0429 -1.7790
  160SAPE  C21417932   4.433   4.485   8.247  1.1893 -0.3413 -0.2241
  160SAPE  H14R17933   4.543   4.494   8.250  1.1423  1.5424 -1.8603
  160SAPE  C21517934   4.379   4.390   8.315 -0.0222 -0.5805 -0.6462
  160SAPE  H15R17935   4.450   4.323   8.366 -0.4433 -1.0859 -0.7192
  160SAPE  C21617936   4.233   4.358   8.322  0.2047 -0.2501  0.5135
  160SAPE  H16R17937   4.183   4.451   8.287 -0.1320  0.2625  2.2667
  160SAPE  H16S17938   4.211   4.359   8.431  0.6246  0.8583  0.5984
  160SAPE  C21717939   4.195   4.242   8.232 -0.1835  0.5133  0.5793
  160SAPE  H17R17940   4.238   4.149   8.275  0.8240  0.1683 -1.0916
  160SAPE  H17S17941   4.239   4.254   8.130 -1.1306  1.3631  0.2522
  160SAPE  C21817942   4.043   4.223   8.221 -0.5369  0.0100 -0.0250
  160SAPE  H18R17943   4.013   4.318   8.171  1.9733 -0.2157 -2.1768
  160SAPE  H18S17944   4.004   4.220   8.326 -0.1365  1.1494  0.1735
  160SAPE  C21917945   3.990   4.098   8.158  0.4728 -0.8531 -0.1683
  160SAPE  H19R17946   4.048   4.014   8.203 -0.8008 -1.8748 -0.3791
  160SAPE  H19S17947   3.999   4.105   8.048 -0.2731  2.3968 -0.1155
  160SAPE  C22017948   3.842   4.071   8.195  0.7854  0.5508  0.4777
  160SAPE  H20R17949   3.780   4.124   8.120 -2.5211 -2.5733  0.7761
  160SAPE  H20S17950   3.831   4.096   8.303  0.8856 -0.5706  0.7621
  160SAPE  H20T17951   3.825   3.962   8.188  0.2385  0.5586  1.4756
  160SAPE   C3317952   4.495   4.104   6.930 -1.1086 -1.2338 -0.2436
  160SAPE   H3X17953   4.404   4.167   6.923  0.4134  1.0823 -0.0785
  160SAPE   H3Y17954   4.571   4.177   6.897 -1.5557 -1.4973 -1.9188
  160SAPE   C3417955   4.533   4.066   7.075 -0.6160  0.0682 -0.3378
  160SAPE   H4X17956   4.528   4.162   7.130  0.3145  0.5690 -1.0945
  160SAPE   H4Y17957   4.638   4.029   7.071 -0.2681  1.0812 -0.7612
  160SAPE   C3517958   4.430   3.969   7.122  0.3608  0.4422 -0.3853
  160SAPE   H5X17959   4.420   3.867   7.080  0.9663 -0.3631  1.3459
  160SAPE   H5Y17960   4.336   4.027   7.110 -0.6542 -0.8903  0.7936
  160SAPE   C3617961   4.436   3.945   7.272 -0.0448 -0.3660  1.0910
  160SAPE   H6X17962   4.331   3.932   7.306  0.5785  0.4712  3.5575
  160SAPE   H6Y17963   4.463   4.033   7.335 -1.8917  0.4460  0.7987
  160SAPE   C3717964   4.521   3.827   7.299  0.1659  0.4836  0.4863
  160SAPE   H7X17965   4.509   3.738   7.235 -3.3866  0.7948  0.4889
  160SAPE   H7Y17966   4.486   3.781   7.394 -1.1132 -4.0393 -1.9157
  160SAPE   C3817967   4.667   3.869   7.324 -0.1451  0.1846 -0.3314
  160SAPE   H8X17968   4.676   3.977   7.346 -0.7376  0.0171  0.8287
  160SAPE   H8Y17969   4.711   3.863   7.222 -2.7061  0.0538 -1.4920
  160SAPE   C3917970   4.752   3.776   7.409  0.5983  0.3986  0.0605
  160SAPE   H9X17971   4.860   3.780   7.388  0.4181  0.8208 -0.8021
  160SAPE   H9Y17972   4.725   3.671   7.384  0.7641  0.5069 -0.5723
  160SAPE  C31017973   4.725   3.774   7.565 -0.1542 -0.1299  0.0704
  160SAPE  H10X17974   4.617   3.761   7.586 -0.4433  1.1121 -0.5513
  160SAPE  H10Y17975   4.761   3.871   7.606 -0.0877  0.7773 -1.9850
  160SAPE  C31117976   4.809   3.666   7.635  0.4256 -0.6815  0.0505
  160SAPE  H11X17977   4.911   3.658   7.593  0.7516 -0.8291  0.8476
  160SAPE  H11Y17978   4.768   3.566   7.606  2.2335 -2.4502  3.0328
  160SAPE  C31217979   4.808   3.668   7.788 -0.4309 -0.4282  0.0557
  160SAPE  H12X17980   4.701   3.681   7.816 -0.3830 -0.6495  0.3546
  160SAPE  H12Y17981   4.857   3.757   7.832 -1.0468  1.4128 -2.7458
  160SAPE  C31317982   4.859   3.541   7.854  0.4304  0.3928 -0.1406
  160SAPE  H13X17983   4.963   3.524   7.817 -0.0548 -1.3998 -0.8204
  160SAPE  H13Y17984   4.798   3.451   7.832  1.9293 -0.4196 -1.2183
  160SAPE  C31417985   4.865   3.562   8.004 -0.5457  0.2365 -1.1498
  160SAPE  H14X17986   4.771   3.606   8.044  1.0724  0.6224  2.6775
  160SAPE  H14Y17987   4.952   3.629   8.020 -1.8729  2.2104 -1.9634
  160SAPE  C31517988   4.880   3.424   8.074  0.1272 -0.0866  0.3347
  160SAPE  H15X17989   4.980   3.388   8.043 -0.5519  0.3140 -2.6753
  160SAPE  H15Y17990   4.798   3.362   8.032  0.8195 -1.1899  0.5812
  160SAPE  C31617991   4.862   3.426   8.229 -0.5698  0.5259  0.6609
  160SAPE  H16X17992   4.939   3.483   8.286  0.3357 -0.0972  0.0756
  160SAPE  H16Y17993   4.871   3.321   8.263  1.5404  0.6766  0.6750
  160SAPE  C31717994   4.724   3.483   8.272 -0.2612 -0.0635 -0.1819
  160SAPE  H17X17995   4.638   3.440   8.217 -1.7830  0.7313  1.4579
  160SAPE  H17Y17996   4.717   3.591   8.246  0.8862  0.2288  0.6050
  160SAPE  C31817997   4.701   3.469   8.423  0.5223  0.0639 -0.0921
  160SAPE  H18X17998   4.704   3.365   8.459  0.7692  0.8254  2.2344
  160SAPE  H18Y17999   4.601   3.513   8.447  0.8060  0.3128  0.6591
  160SAPE  H18Z18000   4.788   3.521   8.467  0.5717 -0.4535  0.4172
  161SAPE     N18001   6.700   2.299   6.290 -0.6594  0.3364  0.0575
  161SAPE   HN118002   6.651   2.311   6.199 -0.5912  1.3728  0.1465
  161SAPE   HN218003   6.727   2.198   6.293  0.5945  0.6650  0.6264
  161SAPE   HN318004   6.630   2.307   6.366  0.9794  0.8365  1.6002
  161SAPE   C1218005   6.826   2.388   6.310  0.0984 -0.7828  0.4208
  161SAPE  H12A18006   6.788   2.491   6.293 -0.5287 -1.2569 -1.2858
  161SAPE  H12B18007   6.902   2.366   6.232 -0.0857  2.6222 -0.8948
  161SAPE   C1118008   6.869   2.356   6.457 -1.0290  0.4809 -0.4765
  161SAPE  H11A18009   6.789   2.384   6.529 -1.3266 -4.4788  1.5515
  161SAPE  H11B18010   6.951   2.426   6.479 -0.7164 -0.1341  0.3914
  161SAPE     P18011   7.041   2.162   6.426 -0.6672 -0.1665 -0.2117
  161SAPE   O1318012   7.093   2.050   6.511 -0.2155 -0.0021 -0.1521
  161SAPE   O1418013   7.027   2.121   6.291  0.7216 -0.4342  0.3500
  161SAPE   O1218014   6.907   2.218   6.482 -0.1903  0.6520  0.2903
  161SAPE   O1118015   7.139   2.287   6.428 -0.2451 -0.2324 -0.5416
  161SAPE    C118016   7.271   2.292   6.492  0.1945  0.8658  0.9855
  161SAPE    HA18017   7.328   2.197   6.494  1.4920  1.4988 -1.3233
  161SAPE    HB18018   7.339   2.344   6.420 -1.1056  0.2367 -0.7623
  161SAPE    C218019   7.277   2.375   6.628 -0.1202 -0.2923 -0.2078
  161SAPE    HS18020   7.376   2.358   6.676 -0.0925  2.4874  0.8916
  161SAPE   O2118021   7.174   2.333   6.711  0.6145  0.1880  0.3112
  161SAPE   C2118022   7.188   2.213   6.756  0.6249 -0.0194 -0.8030
  161SAPE   O2218023   7.295   2.147   6.753 -0.2049 -0.0217  0.5824
  161SAPE   C2218024   7.061   2.182   6.836 -0.2239 -0.2327  0.1992
  161SAPE   H2R18025   7.054   2.236   6.932 -0.0908 -0.5388  0.3800
  161SAPE   H2S18026   6.971   2.217   6.780 -0.1049  2.8652  1.7606
  161SAPE    C318027   7.258   2.522   6.607  0.3617  0.5567  0.5781
  161SAPE    HX18028   7.168   2.539   6.544  0.3978 -0.9583  0.0622
  161SAPE    HY18029   7.337   2.572   6.547 -1.6705  1.5102 -1.4519
  161SAPE   O3118030   7.238   2.591   6.733 -0.0162  0.7189  0.2790
  161SAPE   C3118031   7.113   2.601   6.784  0.4380  0.1998  0.2514
  161SAPE   O3218032   7.009   2.591   6.721 -0.7548  0.3724 -0.7305
  161SAPE   C3218033   7.118   2.627   6.933  0.5473 -0.3588 -0.4122
  161SAPE   H2X18034   7.029   2.585   6.986 -0.0264  2.3264  0.9235
  161SAPE   H2Y18035   7.096   2.736   6.936  3.0682  0.3417 -3.1162
  161SAPE   C2318036   7.073   2.037   6.887 -1.1143 -0.0711  0.1037
  161SAPE   H3R18037   7.156   2.032   6.961 -1.3793  2.3571  0.6475
  161SAPE   H3S18038   7.092   1.974   6.798 -0.9058  1.1635 -0.7489
  161SAPE   C2418039   6.938   1.989   6.953 -0.6356  0.1264  0.1903
  161SAPE   H4R18040   6.867   2.001   6.868  1.9495  0.6777 -2.0672
  161SAPE   H4S18041   6.917   2.071   7.025  0.8374  0.2323  0.5430
  161SAPE   C2518042   6.944   1.852   7.019 -0.0554 -0.7644 -0.0268
  161SAPE   H5R18043   6.935   1.765   6.953  0.7811 -1.5344  0.8405
  161SAPE   C2618044   6.975   1.822   7.152  0.3416 -0.3516  0.4982
  161SAPE   H6R18045   6.992   1.715   7.174  0.7014 -0.2878  0.5425
  161SAPE   C2718046   6.998   1.917   7.269  0.9493 -0.3828  0.4454
  161SAPE   H7R18047   7.066   1.999   7.238 -0.9473  0.7926 -0.8132
  161SAPE   H7S18048   7.035   1.867   7.361 -2.7816 -2.0726  1.2300
  161SAPE   C2818049   6.877   1.989   7.318 -0.3866 -0.2567  0.2634
  161SAPE   H8R18050   6.790   1.974   7.253 -1.4374  3.3747  0.5920
  161SAPE   C2918051   6.876   2.088   7.406  0.8608 -0.5202 -0.0469
  161SAPE   H9R18052   6.778   2.132   7.431  0.3744 -1.6925  0.1804
  161SAPE  C21018053   6.995   2.145   7.485  1.1279  0.1815  0.6605
  161SAPE  H10R18054   7.050   2.206   7.411  1.8054  0.9107  1.7302
  161SAPE  H10S18055   7.072   2.067   7.497  2.9279  1.5823 -1.0511
  161SAPE  C21118056   6.980   2.216   7.619  0.5430 -0.1900  0.4940
  161SAPE  H11R18057   6.978   2.326   7.611 -0.2543 -0.3236 -1.8209
  161SAPE  C21218058   6.935   2.162   7.735  0.7164 -0.0429 -0.2674
  161SAPE  H12R18059   6.916   2.237   7.813  0.8461  1.1202 -1.3142
  161SAPE  C21318060   6.885   2.026   7.765  0.0016  0.2129 -0.3179
  161SAPE  H13R18061   6.848   1.969   7.677 -1.1526 -0.2929  0.4558
  161SAPE  H13S18062   6.803   2.038   7.840  0.1713 -1.0614  0.1053
  161SAPE  C21418063   6.989   1.936   7.835  0.4758  0.2313 -0.3146
  161SAPE  H14R18064   7.085   1.926   7.783  1.0126  0.6785  0.5933
  161SAPE  C21518065   6.980   1.852   7.945 -0.4100 -0.0952  0.6537
  161SAPE  H15R18066   7.073   1.802   7.976  0.4373  0.6831 -0.5400
  161SAPE  C21618067   6.871   1.863   8.043  0.1759 -0.0890  0.0741
  161SAPE  H16R18068   6.844   1.763   8.085  0.7397 -0.5954 -0.7538
  161SAPE  H16S18069   6.779   1.893   7.988 -1.3081 -2.0883  1.3089
  161SAPE  C21718070   6.906   1.960   8.157  0.1989  0.0074  0.4485
  161SAPE  H17R18071   6.995   1.922   8.213  0.7982 -1.2844 -1.2979
  161SAPE  H17S18072   6.824   1.948   8.231 -1.7199 -0.4782 -1.6545
  161SAPE  C21818073   6.925   2.110   8.115  0.3998  0.1612 -0.3829
  161SAPE  H18R18074   6.838   2.135   8.050 -0.4657  0.1745  0.7682
  161SAPE  H18S18075   7.015   2.116   8.049  0.1316  0.2616 -0.7403
  161SAPE  C21918076   6.941   2.209   8.228  0.0874  0.0776 -0.7224
  161SAPE  H19R18077   7.036   2.201   8.284 -0.3315  2.6169  0.4797
  161SAPE  H19S18078   6.864   2.200   8.307  0.1766  1.7505 -0.4087
  161SAPE  C22018079   6.935   2.349   8.173  0.3868  0.0482  0.4983
  161SAPE  H20R18080   6.967   2.413   8.258 -0.6549  0.3160  0.7082
  161SAPE  H20S18081   6.831   2.370   8.138 -0.0521 -0.9661  1.1433
  161SAPE  H20T18082   7.014   2.343   8.096 -0.6286 -1.0244 -0.5148
  161SAPE   C3318083   7.243   2.578   7.017 -0.4909  0.6003 -0.2183
  161SAPE   H3X18084   7.336   2.625   6.978 -1.4441  1.3468 -1.6873
  161SAPE   H3Y18085   7.262   2.470   6.996 -1.4360  0.4356 -0.2589
  161SAPE   C3418086   7.229   2.605   7.165 -0.8251 -0.0648 -0.3105
  161SAPE   H4X18087   7.194   2.710   7.164 -1.8908 -0.3873  0.5788
  161SAPE   H4Y18088   7.328   2.588   7.213 -2.2505  1.2516  3.4265
  161SAPE   C3518089   7.126   2.518   7.242  0.2684 -0.9412 -0.3436
  161SAPE   H5X18090   7.143   2.411   7.217  0.5524 -0.7591 -0.9411
  161SAPE   H5Y18091   7.029   2.543   7.195  1.1982 -1.5317 -2.7386
  161SAPE   C3618092   7.127   2.542   7.389 -0.0832 -0.3737 -0.1966
  161SAPE   H6X18093   7.216   2.499   7.441 -2.1927 -1.4879  2.8019
  161SAPE   H6Y18094   7.034   2.494   7.424  0.5928 -1.2078  0.5210
  161SAPE   C3718095   7.103   2.688   7.437  0.0831  0.1816  0.6765
  161SAPE   H7X18096   6.994   2.709   7.440  0.3851  2.0830 -0.1292
  161SAPE   H7Y18097   7.146   2.750   7.356 -1.4956 -0.6724 -0.9023
  161SAPE   C3818098   7.167   2.726   7.565 -0.1734  0.3683 -0.2994
  161SAPE   H8X18099   7.181   2.835   7.579  1.9438  0.0475  0.5938
  161SAPE   H8Y18100   7.275   2.699   7.567 -0.3803 -0.4968 -0.0177
  161SAPE   C3918101   7.102   2.670   7.692  0.2522  0.0164  0.4883
  161SAPE   H9X18102   7.124   2.562   7.704 -0.1995 -0.2696 -1.0886
  161SAPE   H9Y18103   6.993   2.686   7.681  0.5329  3.5510  1.5011
  161SAPE  C31018104   7.140   2.754   7.817  1.0710 -0.7003 -0.4867
  161SAPE  H10X18105   7.115   2.861   7.796  0.8899 -0.5628  0.3987
  161SAPE  H10Y18106   7.248   2.756   7.840  0.7958  2.3353  1.0752
  161SAPE  C31118107   7.058   2.717   7.937 -0.0158  0.3747 -0.2132
  161SAPE  H11X18108   7.076   2.617   7.981  0.0581  0.2583 -0.5045
  161SAPE  H11Y18109   6.952   2.728   7.907  0.5478  2.5501 -1.6620
  161SAPE  C31218110   7.063   2.820   8.051 -0.3170  1.3869  0.5103
  161SAPE  H12X18111   7.035   2.923   8.020  0.3412  1.4484  0.1171
  161SAPE  H12Y18112   7.168   2.825   8.086  0.0786  2.1542 -0.7168
  161SAPE  C31318113   6.984   2.766   8.177 -0.0742 -0.1204  0.6805
  161SAPE  H13X18114   7.002   2.835   8.263 -1.9783 -1.1698  1.9832
  161SAPE  H13Y18115   7.022   2.669   8.216 -0.5871 -0.2440  0.8735
  161SAPE  C31418116   6.832   2.769   8.144 -0.0842  0.1651  0.4149
  161SAPE  H14X18117   6.808   2.693   8.067 -1.4799 -0.8089  1.7440
  161SAPE  H14Y18118   6.801   2.869   8.107  0.7790  1.0711  2.0338
  161SAPE  C31518119   6.752   2.748   8.279  0.0968 -0.9654  0.6355
  161SAPE  H15X18120   6.644   2.764   8.258  0.1624  0.4182  1.2320
  161SAPE  H15Y18121   6.795   2.825   8.347 -0.0475  1.0002 -1.3723
  161SAPE  C31618122   6.761   2.609   8.340  0.3473  0.5960  0.7343
  161SAPE  H16X18123   6.864   2.586   8.372  1.4520  1.7840 -1.6994
  161SAPE  H16Y18124   6.746   2.538   8.256 -1.7780  3.1133 -1.1864
  161SAPE  C31718125   6.680   2.593   8.472  0.1603 -0.2090  0.2666
  161SAPE  H17X18126   6.737   2.651   8.547  1.6871 -0.4869 -0.6232
  161SAPE  H17Y18127   6.675   2.486   8.500  0.4311 -0.3618 -0.2361
  161SAPE  C31818128   6.534   2.645   8.464  0.4354 -0.2733 -0.3191
  161SAPE  H18X18129   6.528   2.756   8.464 -0.2552 -0.2807  1.4283
  161SAPE  H18Y18130   6.477   2.607   8.551  0.5106  0.1755 -0.0698
  161SAPE  H18Z18131   6.482   2.611   8.371  0.6955 -0.6019 -0.3424
  162SAPE     N18132   1.271   6.330   6.037 -0.4155  0.3151 -0.2979
  162SAPE   HN118133   1.326   6.408   6.079 -2.4308  0.8420  1.5822
  162SAPE   HN218134   1.168   6.342   6.040 -0.4583  0.2989 -1.2848
  162SAPE   HN318135   1.308   6.252   6.095 -0.4081 -1.6089 -2.6945
  162SAPE   C1218136   1.321   6.296   5.905  0.0967  0.1987 -0.4212
  162SAPE  H12A18137   1.411   6.233   5.920 -0.1594 -1.6411 -4.8453
  162SAPE  H12B18138   1.354   6.389   5.853 -3.3647  0.5443 -2.2845
  162SAPE   C1118139   1.215   6.220   5.824 -0.2356 -0.3923 -0.5483
  162SAPE  H11A18140   1.254   6.190   5.725 -0.7927 -1.7252 -0.3863
  162SAPE  H11B18141   1.126   6.281   5.797 -0.5551 -1.4583 -2.0157
  162SAPE     P18142   1.232   5.963   5.884 -0.2002  0.0304 -0.0033
  162SAPE   O1318143   1.191   5.912   5.752 -0.7108  0.3352 -0.3482
  162SAPE   O1418144   1.377   5.959   5.911 -0.4738  0.1236 -0.1493
  162SAPE   O1218145   1.174   6.107   5.895  0.9321 -0.1498 -0.1722
  162SAPE   O1118146   1.156   5.882   5.996 -0.5606  0.1479 -0.1553
  162SAPE    C118147   1.064   5.943   6.094 -0.7824 -0.0703 -0.0821
  162SAPE    HA18148   1.086   6.052   6.101  0.7398 -0.3080 -0.7068
  162SAPE    HB18149   0.959   5.941   6.058 -1.1817  1.6218  0.8605
  162SAPE    C218150   1.071   5.876   6.226 -0.4034  0.5463 -0.4943
  162SAPE    HS18151   1.029   5.775   6.208  1.1506  0.1377 -2.1867
  162SAPE   O2118152   0.997   5.942   6.324 -0.0177 -0.3568 -0.0483
  162SAPE   C2118153   0.864   5.955   6.303  0.1112  0.1819 -0.2527
  162SAPE   O2218154   0.799   5.882   6.231  0.7740  0.3169 -0.0644
  162SAPE   C2218155   0.812   6.066   6.391  0.0027  0.2581  0.0317
  162SAPE   H2R18156   0.890   6.144   6.403  2.4843 -1.7789 -1.7570
  162SAPE   H2S18157   0.729   6.113   6.335  2.3038  0.7372 -3.3272
  162SAPE    C318158   1.219   5.865   6.275  0.3025 -0.1100  0.3630
  162SAPE    HX18159   1.244   5.974   6.272 -2.0994  0.5161  0.7944
  162SAPE    HY18160   1.265   5.793   6.205 -1.5193 -0.5815 -0.4276
  162SAPE   O3118161   1.231   5.821   6.411 -0.9315 -0.8709 -0.0761
  162SAPE   C3118162   1.256   5.692   6.435  0.4985 -0.1149 -0.1410
  162SAPE   O3218163   1.253   5.610   6.347 -0.0996 -0.2953  0.1927
  162SAPE   C3218164   1.294   5.667   6.578 -0.3946  0.2261 -0.3431
  162SAPE   H2X18165   1.319   5.558   6.585 -3.3101 -0.4117  2.0339
  162SAPE   H2Y18166   1.205   5.677   6.643  0.2159  1.1014  0.3873
  162SAPE   C2318167   0.757   6.022   6.531 -0.0814  0.5217 -0.6441
  162SAPE   H3R18168   0.672   5.952   6.529 -0.1323  0.1290  4.0274
  162SAPE   H3S18169   0.724   6.115   6.582  1.0694  0.6977 -0.1754
  162SAPE   C2418170   0.862   5.952   6.620 -0.3697  0.0574  0.1786
  162SAPE   H4R18171   0.883   5.850   6.581  1.5832  1.0720 -1.6604
  162SAPE   H4S18172   0.823   5.951   6.724 -0.0329  1.2821  0.3288
  162SAPE   C2518173   1.002   6.023   6.617  0.5323  1.0484 -0.5632
  162SAPE   H5R18174   1.052   6.024   6.520 -1.2621 -0.4183 -1.5696
  162SAPE   C2618175   1.066   6.085   6.716  0.4417 -0.7180  0.7363
  162SAPE   H6R18176   1.160   6.135   6.688 -1.3588  3.1116  0.8640
  162SAPE   C2718177   1.004   6.117   6.847  0.2589 -0.0663  0.9412
  162SAPE   H7R18178   0.943   6.035   6.891 -1.4619  0.8319  0.3523
  162SAPE   H7S18179   0.937   6.204   6.827  0.6854  1.2948  4.5721
  162SAPE   C2818180   1.104   6.171   6.951 -0.2429  0.3523  0.1477
  162SAPE   H8R18181   1.206   6.197   6.920 -0.5392  1.2439 -0.1035
  162SAPE   C2918182   1.085   6.178   7.085  0.1343 -0.2363  0.3722
  162SAPE   H9R18183   1.177   6.197   7.144 -0.6332 -1.1044  1.9278
  162SAPE  C21018184   0.957   6.137   7.162 -0.2661  0.3070  0.2745
  162SAPE  H10R18185   0.871   6.120   7.093  0.0963 -0.9979  0.1119
  162SAPE  H10S18186   0.916   6.222   7.221 -0.7303  0.2695  0.0159
  162SAPE  C21118187   0.964   6.014   7.240  0.1358 -0.2747  0.0737
  162SAPE  H11R18188   0.909   5.934   7.188 -1.4735  0.7976  0.0818
  162SAPE  C21218189   1.001   5.993   7.367 -0.5342  0.4720  0.2104
  162SAPE  H12R18190   0.999   5.888   7.399  2.1060  0.5023  0.6641
  162SAPE  C21318191   1.049   6.092   7.474  0.0440 -0.4915  0.0292
  162SAPE  H13R18192   0.971   6.111   7.550 -1.2696  2.0364 -1.8285
  162SAPE  H13S18193   1.065   6.191   7.427 -1.8525 -0.0688  0.1845
  162SAPE  C21418194   1.184   6.040   7.526 -0.1261 -0.7126  0.7456
  162SAPE  H14R18195   1.251   6.026   7.441 -0.4890  2.2204 -0.1399
  162SAPE  C21518196   1.209   6.003   7.652 -1.6151 -0.8854  0.3345
  162SAPE  H15R18197   1.302   5.955   7.685 -0.3107  1.6047  0.4818
  162SAPE  C21618198   1.109   6.016   7.768  0.0776  0.0115  0.5808
  162SAPE  H16R18199   1.045   6.103   7.743  0.4185  0.5464  1.5282
  162SAPE  H16S18200   1.155   6.027   7.868 -0.0598  0.4015  0.6029
  162SAPE  C21718201   1.037   5.880   7.777 -0.4942  0.1028 -0.8555
  162SAPE  H17R18202   1.108   5.795   7.786 -0.3143  0.4377  2.0449
  162SAPE  H17S18203   0.979   5.871   7.683 -1.6534 -0.3460 -0.1319
  162SAPE  C21818204   0.950   5.863   7.899  0.6160 -0.2879 -0.0599
  162SAPE  H18R18205   0.889   5.956   7.899 -0.0253 -0.6798 -1.6212
  162SAPE  H18S18206   1.015   5.842   7.986 -0.5774 -0.3401  0.8464
  162SAPE  C21918207   0.853   5.752   7.874 -0.2191  0.0024 -0.5960
  162SAPE  H19R18208   0.795   5.743   7.968  1.1938  1.7313  0.5273
  162SAPE  H19S18209   0.907   5.655   7.868  0.1616  0.2424 -1.0499
  162SAPE  C22018210   0.754   5.783   7.767  0.1079 -0.0033  0.3038
  162SAPE  H20R18211   0.729   5.891   7.768 -1.5426 -0.3540  0.2859
  162SAPE  H20S18212   0.662   5.724   7.787  1.2595 -1.1913  2.4286
  162SAPE  H20T18213   0.792   5.756   7.666 -0.6289 -0.6924  0.1951
  162SAPE   C3318214   1.399   5.768   6.628  0.0323 -0.1876  0.1889
  162SAPE   H3X18215   1.351   5.867   6.640  1.9552  0.5878  2.2690
  162SAPE   H3Y18216   1.487   5.779   6.560  1.2749 -0.0634  1.7565
  162SAPE   C3418217   1.473   5.723   6.758  0.0007  0.0436  0.2320
  162SAPE   H4X18218   1.571   5.775   6.759 -0.2298  0.5676 -1.4201
  162SAPE   H4Y18219   1.508   5.618   6.746 -0.0750  0.1340 -0.8141
  162SAPE   C3518220   1.401   5.760   6.891 -0.8974 -0.0973 -0.1151
  162SAPE   H5X18221   1.305   5.703   6.885 -0.4932 -0.6895 -1.1620
  162SAPE   H5Y18222   1.387   5.870   6.893  1.7854  0.3213 -0.9353
  162SAPE   C3618223   1.483   5.719   7.008 -0.4982 -0.1174 -0.2616
  162SAPE   H6X18224   1.581   5.771   7.009 -0.5832  0.0404 -0.0691
  162SAPE   H6Y18225   1.508   5.613   6.988  0.9838  0.2220 -0.3238
  162SAPE   C3718226   1.415   5.735   7.138 -0.7137  0.1544 -0.4194
  162SAPE   H7X18227   1.332   5.661   7.143  0.3139 -1.1853 -2.1934
  162SAPE   H7Y18228   1.390   5.843   7.151  3.4948  1.0777  2.0309
  162SAPE   C3818229   1.505   5.696   7.252 -0.2480 -0.4699  0.3703
  162SAPE   H8X18230   1.604   5.743   7.234 -0.0244 -0.2736  2.0123
  162SAPE   H8Y18231   1.528   5.588   7.239  0.7086  0.0246 -3.4360
  162SAPE   C3918232   1.452   5.714   7.393 -0.4757 -0.2742  0.1721
  162SAPE   H9X18233   1.352   5.665   7.399 -0.0464 -1.6810 -2.5129
  162SAPE   H9Y18234   1.444   5.824   7.407  3.2348 -0.1802  2.9251
  162SAPE  C31018235   1.543   5.662   7.507 -0.1424  0.0728  0.0681
  162SAPE  H10X18236   1.642   5.701   7.476  0.2485 -1.0510 -0.1464
  162SAPE  H10Y18237   1.541   5.551   7.505  0.6003  0.0410 -2.4993
  162SAPE  C31118238   1.503   5.715   7.644 -0.1491 -0.0491  0.3217
  162SAPE  H11X18239   1.398   5.694   7.675 -0.8846  3.0667  0.3073
  162SAPE  H11Y18240   1.499   5.825   7.627 -2.9985  0.1245  1.3896
  162SAPE  C31218241   1.597   5.667   7.758  0.3928  0.3543 -0.6059
  162SAPE  H12X18242   1.703   5.674   7.724 -0.0755 -1.4396 -2.6691
  162SAPE  H12Y18243   1.566   5.561   7.766 -1.3430  0.6558 -2.5224
  162SAPE  C31318244   1.572   5.730   7.898 -0.1162 -0.0899  0.2518
  162SAPE  H13X18245   1.469   5.702   7.931 -0.2567  0.9082  0.6973
  162SAPE  H13Y18246   1.594   5.839   7.907 -0.4453 -0.0813  1.0296
  162SAPE  C31418247   1.660   5.671   8.007 -0.4005 -0.0926  0.0066
  162SAPE  H14X18248   1.758   5.645   7.962 -0.7563  0.2709 -0.9840
  162SAPE  H14Y18249   1.614   5.578   8.048  0.1478  0.0419  0.9714
  162SAPE  C31518250   1.673   5.761   8.128 -0.1155  0.1793 -0.4852
  162SAPE  H15X18251   1.752   5.837   8.111  0.0536 -0.2249 -1.6003
  162SAPE  H15Y18252   1.707   5.698   8.213  0.4665 -0.1310 -0.9344
  162SAPE  C31618253   1.535   5.823   8.162 -0.0705  0.4055  0.6492
  162SAPE  H16X18254   1.457   5.744   8.162  0.8859 -0.5943 -1.1938
  162SAPE  H16Y18255   1.497   5.898   8.091  3.7822  1.5036 -0.4590
  162SAPE  C31718256   1.540   5.892   8.303 -0.3075  0.7572 -0.4549
  162SAPE  H17X18257   1.547   5.806   8.374 -0.3154  2.7741  2.1492
  162SAPE  H17Y18258   1.437   5.928   8.324  0.3415  1.7559  1.1972
  162SAPE  C31818259   1.640   6.008   8.330 -0.1611 -0.0957  0.6106
  162SAPE  H18X18260   1.746   5.973   8.327  0.0580  0.3087  2.2970
  162SAPE  H18Y18261   1.639   6.050   8.433  1.1376 -0.4384  0.7854
  162SAPE  H18Z18262   1.622   6.080   8.248 -0.8068 -2.4241 -1.4212
  163SAPE     N18263   0.058   0.871   5.978  0.1069 -0.7265 -0.3467
  163SAPE   HN118264   0.130   0.853   5.906  2.4098 -1.3925  1.9991
  163SAPE   HN218265  -0.011   0.793   5.989 -0.4216 -0.5293 -2.0104
  163SAPE   HN318266   0.011   0.961   5.954  0.6701 -0.2133  0.4679
  163SAPE   C1218267   0.130   0.904   6.108 -0.7201 -0.5022 -0.2718
  163SAPE  H12A18268   0.057   0.940   6.184  1.6034  0.5568  1.5971
  163SAPE  H12B18269   0.208   0.979   6.087 -2.7872  2.1915  1.1051
  163SAPE   C1118270   0.202   0.780   6.173 -0.2052 -0.4827  0.5879
  163SAPE  H11A18271   0.261   0.825   6.255  0.1204  0.9873 -0.4104
  163SAPE  H11B18272   0.275   0.746   6.096 -0.8063 -0.4357 -0.0194
  163SAPE     P18273   0.158   0.571   6.306  0.2394 -0.0447  0.3339
  163SAPE   O1318274   0.062   0.456   6.303  0.3659 -0.4205  0.0717
  163SAPE   O1418275   0.305   0.546   6.283  0.4296  0.6078 -0.1337
  163SAPE   O1218276   0.107   0.689   6.216  0.4219 -0.2916  0.1834
  163SAPE   O1118277   0.153   0.642   6.446  0.2949  0.0140  0.0234
  163SAPE    C118278   0.075   0.755   6.472 -0.2883 -0.5659  0.7299
  163SAPE    HA18279   0.135   0.849   6.482  0.0137 -0.7075  0.2755
  163SAPE    HB18280  -0.007   0.769   6.399 -0.9562 -1.7123  1.2287
  163SAPE    C218281  -0.007   0.743   6.598 -0.4644  0.9472 -0.2244
  163SAPE    HS18282  -0.080   0.827   6.605 -1.3089  0.1227  1.6161
  163SAPE   O2118283   0.085   0.764   6.706 -0.7491  0.2814 -0.2653
  163SAPE   C2118284   0.044   0.806   6.821  0.2787  0.7025 -0.3683
  163SAPE   O2218285  -0.068   0.836   6.859  0.5160  1.1632  0.0819
  163SAPE   C2218286   0.171   0.838   6.903  0.1996  0.7033  1.0443
  163SAPE   H2R18287   0.235   0.748   6.901  1.7257  1.7337 -1.7789
  163SAPE   H2S18288   0.217   0.924   6.849  1.6543 -1.1231 -0.7641
  163SAPE    C318289  -0.073   0.606   6.609 -0.5031 -0.5744  0.1278
  163SAPE    HX18290   0.005   0.527   6.614  0.2223  0.1259  0.0841
  163SAPE    HY18291  -0.136   0.613   6.517  0.0118  1.3454 -0.1224
  163SAPE   O3118292  -0.160   0.583   6.723 -0.0424 -0.0378 -0.2200
  163SAPE   C3118293  -0.283   0.634   6.710  0.2023  0.0911 -0.0416
  163SAPE   O3218294  -0.339   0.675   6.611 -0.0406  0.3617 -0.2732
  163SAPE   C3218295  -0.349   0.625   6.852  0.5559 -0.0358 -0.2318
  163SAPE   H2X18296  -0.291   0.696   6.914  2.4484 -0.5940 -1.2717
  163SAPE   H2Y18297  -0.314   0.528   6.893 -3.1188 -1.7943 -0.8438
  163SAPE   C2318298   0.134   0.876   7.053 -0.6660 -0.1341  0.5609
  163SAPE   H3R18299   0.097   0.786   7.107  3.3917 -2.7804 -0.6624
  163SAPE   H3S18300   0.057   0.955   7.037 -1.5299 -1.0293  0.1142
  163SAPE   C2418301   0.257   0.924   7.144 -0.3353 -0.1444  0.1253
  163SAPE   H4R18302   0.314   0.831   7.168  0.7613  0.5584  0.3466
  163SAPE   H4S18303   0.202   0.973   7.227 -2.0159  0.1103 -1.1022
  163SAPE   C2518304   0.345   1.032   7.075  0.8348 -0.4519  0.0718
  163SAPE   H5R18305   0.296   1.130   7.079  0.4026 -0.6879  2.8175
  163SAPE   C2618306   0.469   1.021   7.033  0.6150  0.3689  0.4882
  163SAPE   H6R18307   0.529   1.110   7.011  0.3134  0.3291 -0.5271
  163SAPE   C2718308   0.548   0.890   7.021 -0.3752  0.0402  0.3002
  163SAPE   H7R18309   0.612   0.915   6.933 -1.9550 -1.4414 -1.3456
  163SAPE   H7S18310   0.488   0.811   6.971 -1.6200  0.3381  1.2778
  163SAPE   C2818311   0.606   0.829   7.148 -0.5721  0.5052  0.4907
  163SAPE   H8R18312   0.670   0.898   7.206 -0.5582  1.3341 -0.4765
  163SAPE   C2918313   0.587   0.703   7.188  0.7267  0.2790 -0.5813
  163SAPE   H9R18314   0.636   0.676   7.283  1.3474 -0.2051 -1.0333
  163SAPE  C21018315   0.511   0.589   7.135  0.5854  0.2870  0.2490
  163SAPE  H10R18316   0.439   0.629   7.061 -1.1458 -0.1531  1.6520
  163SAPE  H10S18317   0.440   0.553   7.211  3.3447  1.1690  3.5071
  163SAPE  C21118318   0.592   0.478   7.077 -0.1976 -0.3239  0.0163
  163SAPE  H11R18319   0.582   0.481   6.968 -3.1757  0.0574  0.2102
  163SAPE  C21218320   0.667   0.388   7.147 -0.1688 -0.2766  0.2188
  163SAPE  H12R18321   0.730   0.319   7.089 -0.4455 -3.5669  3.5057
  163SAPE  C21318322   0.683   0.375   7.295  0.2570  0.7896 -0.2795
  163SAPE  H13R18323   0.582   0.382   7.341  0.0329  0.8864 -0.7732
  163SAPE  H13S18324   0.752   0.456   7.326  1.2435 -0.1352 -0.0040
  163SAPE  C21418325   0.730   0.242   7.334 -0.3914 -0.8001  0.1719
  163SAPE  H14R18326   0.795   0.194   7.259 -0.0657  0.0762 -0.1194
  163SAPE  C21518327   0.707   0.191   7.454 -0.1385 -0.0336  0.4730
  163SAPE  H15R18328   0.743   0.089   7.468 -0.0243  0.0289  0.6374
  163SAPE  C21618329   0.622   0.246   7.566 -0.4219 -0.7295  0.7022
  163SAPE  H16R18330   0.573   0.163   7.620  0.1433 -2.5421 -1.4213
  163SAPE  H16S18331   0.530   0.292   7.524 -0.8236 -1.7938  0.4098
  163SAPE  C21718332   0.697   0.337   7.666  0.2442  0.3029  0.3041
  163SAPE  H17R18333   0.780   0.388   7.614 -0.1081  1.3220  0.7003
  163SAPE  H17S18334   0.743   0.270   7.742 -1.1953 -2.4738 -1.1474
  163SAPE  C21818335   0.611   0.451   7.727 -1.0345  0.2369  0.1699
  163SAPE  H18R18336   0.566   0.513   7.647  0.0345  1.1553  0.2505
  163SAPE  H18S18337   0.684   0.513   7.783 -1.3576  0.4795  0.3294
  163SAPE  C21918338   0.507   0.382   7.810  1.1509  1.1100 -0.3395
  163SAPE  H19R18339   0.546   0.296   7.870 -1.6387 -1.5138 -1.9705
  163SAPE  H19S18340   0.449   0.326   7.732 -0.5383  0.2456  1.4538
  163SAPE  C22018341   0.399   0.467   7.883 -0.2063 -0.1556  1.0264
  163SAPE  H20R18342   0.319   0.403   7.926 -1.7030  1.0399  0.0726
  163SAPE  H20S18343   0.336   0.513   7.804  0.4912 -1.0795 -0.1122
  163SAPE  H20T18344   0.442   0.535   7.959  0.5147  0.5794 -0.0056
  163SAPE   C3318345  -0.503   0.636   6.866 -0.1290 -0.3682  0.4531
  163SAPE   H3X18346  -0.554   0.581   6.784 -1.3163  0.1803  0.7949
  163SAPE   H3Y18347  -0.531   0.744   6.857  0.4730 -0.2529 -0.0600
  163SAPE   C3418348  -0.553   0.585   7.004  0.1070 -0.8596 -0.1504
  163SAPE   H4X18349  -0.512   0.487   7.036  1.7566  0.5401  2.4221
  163SAPE   H4Y18350  -0.664   0.586   7.009  0.1509 -0.4976  1.4252
  163SAPE   C3518351  -0.510   0.675   7.123 -0.0889 -0.0840 -0.1150
  163SAPE   H5X18352  -0.549   0.779   7.117 -2.2586 -0.7213  1.6139
  163SAPE   H5Y18353  -0.399   0.679   7.131 -0.0142 -0.6427 -0.7622
  163SAPE   C3618354  -0.558   0.617   7.259 -0.0041  0.2938  1.1976
  163SAPE   H6X18355  -0.526   0.512   7.273 -1.2791 -0.4711 -1.1198
  163SAPE   H6Y18356  -0.666   0.627   7.281 -0.3289  0.4413 -0.3377
  163SAPE   C3718357  -0.497   0.688   7.375 -0.2775 -0.5596 -0.4679
  163SAPE   H7X18358  -0.515   0.798   7.372  1.7789 -0.0818  1.6877
  163SAPE   H7Y18359  -0.389   0.666   7.387 -0.3738 -1.2478 -0.8320
  163SAPE   C3818360  -0.568   0.646   7.507 -0.0036 -0.5244 -0.9781
  163SAPE   H8X18361  -0.565   0.536   7.520  0.2171 -0.2141  2.2005
  163SAPE   H8Y18362  -0.671   0.690   7.509 -0.3454 -1.2482  2.4096
  163SAPE   C3918363  -0.498   0.712   7.626  0.9983 -0.2198  0.4833
  163SAPE   H9X18364  -0.409   0.652   7.654  1.6607 -0.7098 -2.3460
  163SAPE   H9Y18365  -0.579   0.724   7.701  0.3902 -1.8478  0.1247
  163SAPE  C31018366  -0.442   0.857   7.619  0.0126 -0.4668 -0.2154
  163SAPE  H10X18367  -0.521   0.926   7.580  0.2732  0.6912  1.2124
  163SAPE  H10Y18368  -0.360   0.862   7.544 -1.0265 -2.4253 -1.5691
  163SAPE  C31118369  -0.386   0.896   7.758 -0.3721 -0.6577  0.5254
  163SAPE  H11X18370  -0.305   0.971   7.745 -0.9728 -0.0987  0.0085
  163SAPE  H11Y18371  -0.354   0.802   7.809 -1.3864 -2.6046 -2.1839
  163SAPE  C31218372  -0.485   0.971   7.844  0.0044 -0.3350  0.1713
  163SAPE  H12X18373  -0.568   0.911   7.887 -1.5834  1.7805  0.2580
  163SAPE  H12Y18374  -0.535   1.049   7.783  0.9362  0.3139  0.2171
  163SAPE  C31318375  -0.413   1.037   7.962  0.2330  0.1079  0.6224
  163SAPE  H13X18376  -0.335   1.104   7.921  1.2789 -2.1702 -1.3326
  163SAPE  H13Y18377  -0.353   0.970   8.027  1.1973  1.6649  1.3960
  163SAPE  C31418378  -0.508   1.107   8.060  0.7208  0.1718  0.5636
  163SAPE  H14X18379  -0.576   1.029   8.101  0.8893  1.0230  2.5550
  163SAPE  H14Y18380  -0.572   1.179   8.005 -1.7602 -1.7144  0.7602
  163SAPE  C31518381  -0.445   1.168   8.188  0.1547  0.0686  0.1031
  163SAPE  H15X18382  -0.517   1.234   8.241  1.8066  1.2452  1.0098
  163SAPE  H15Y18383  -0.363   1.240   8.163 -1.2450  0.9797 -2.0909
  163SAPE  C31618384  -0.406   1.070   8.294  0.5809 -0.2525 -0.6137
  163SAPE  H16X18385  -0.346   0.985   8.254 -0.6075 -1.3847 -0.0881
  163SAPE  H16Y18386  -0.496   1.026   8.342  2.8692 -2.6865  1.8528
  163SAPE  C31718387  -0.338   1.141   8.410 -0.1924  0.3529  0.4975
  163SAPE  H17X18388  -0.403   1.222   8.449 -1.6238  0.3443 -1.6929
  163SAPE  H17Y18389  -0.251   1.190   8.361 -0.6979 -0.3159 -1.1397
  163SAPE  C31818390  -0.275   1.052   8.524  0.6682  0.4671  0.0020
  163SAPE  H18X18391  -0.232   1.129   8.591  1.2885 -0.5991  0.8562
  163SAPE  H18Y18392  -0.194   0.987   8.486  0.5265  0.2874  0.0032
  163SAPE  H18Z18393  -0.347   0.981   8.570 -0.2873  1.2169 -0.3041
  164SAPE     N18394   2.264   6.067   5.951  0.5373 -0.3329 -0.4795
  164SAPE   HN118395   2.261   6.163   5.912 -1.0052  0.5329  1.5776
  164SAPE   HN218396   2.360   6.056   5.991  0.2038 -1.0871  0.1441
  164SAPE   HN318397   2.257   5.995   5.877  2.3819 -1.3167  0.2168
  164SAPE   C1218398   2.165   6.048   6.069  0.2448  0.6648  0.0274
  164SAPE  H12A18399   2.182   6.143   6.124  0.9395 -0.6279  2.1151
  164SAPE  H12B18400   2.201   5.966   6.134 -0.7294  1.6497  1.9011
  164SAPE   C1118401   2.020   6.019   6.028 -0.4483 -0.4121  0.1872
  164SAPE  H11A18402   1.957   5.995   6.117 -0.3308 -1.4323  0.0111
  164SAPE  H11B18403   2.020   5.920   5.977  0.7038 -0.4721  0.2634
  164SAPE     P18404   1.832   6.184   5.982  0.1600 -0.0556  0.1809
  164SAPE   O1318405   1.790   6.282   5.874  0.1284 -0.3057 -0.3393
  164SAPE   O1418406   1.733   6.081   6.014  0.2773  0.0029  0.1501
  164SAPE   O1218407   1.969   6.114   5.936  0.1899 -0.2433  0.1404
  164SAPE   O1118408   1.866   6.261   6.117  0.3498 -0.3431 -0.1295
  164SAPE    C118409   1.962   6.367   6.113  0.2394  0.1462  0.1660
  164SAPE    HA18410   2.033   6.351   6.029 -0.1499  0.2414 -0.1833
  164SAPE    HB18411   1.908   6.460   6.086 -1.0601 -0.8101 -0.6917
  164SAPE    C218412   2.034   6.393   6.249  0.2801 -0.0807 -0.4724
  164SAPE    HS18413   2.118   6.321   6.258 -0.3672 -0.7379  0.5936
  164SAPE   O2118414   1.927   6.378   6.345 -0.6338 -0.3767  0.8346
  164SAPE   C2118415   1.920   6.260   6.404 -0.4954 -0.7127  0.0782
  164SAPE   O2218416   1.990   6.165   6.384 -0.1394 -0.7847  0.4625
  164SAPE   C2218417   1.816   6.260   6.515 -0.5309 -0.1783  0.7122
  164SAPE   H2R18418   1.741   6.334   6.481  0.5851  1.3720  1.5128
  164SAPE   H2S18419   1.774   6.158   6.504  0.2650 -0.4272 -0.2292
  164SAPE    C318420   2.092   6.535   6.270  0.2070  0.2077  0.2257
  164SAPE    HX18421   2.023   6.623   6.265 -0.3265 -0.2791 -3.4032
  164SAPE    HY18422   2.170   6.554   6.194  1.1170  0.6411  1.2400
  164SAPE   O3118423   2.162   6.538   6.399  0.4354 -0.6667  0.2907
  164SAPE   C3118424   2.254   6.639   6.411  0.5137 -0.1093  0.5579
  164SAPE   O3218425   2.271   6.719   6.323  0.9567  0.2761  0.4405
  164SAPE   C3218426   2.325   6.627   6.535  0.4568 -0.0434 -0.0971
  164SAPE   H2X18427   2.406   6.552   6.524 -0.7095 -1.2226 -0.9805
  164SAPE   H2Y18428   2.261   6.589   6.618  0.0894 -0.0105 -0.3626
  164SAPE   C2318429   1.852   6.279   6.662  0.2319  0.1374  0.1718
  164SAPE   H3R18430   1.932   6.204   6.682  1.2668  1.4036  0.9340
  164SAPE   H3S18431   1.770   6.260   6.734 -0.8770 -0.9054 -1.3054
  164SAPE   C2418432   1.901   6.419   6.697 -0.4446  0.0667  0.3842
  164SAPE   H4R18433   1.996   6.430   6.641  1.1702 -0.7743  2.8017
  164SAPE   H4S18434   1.947   6.416   6.798  1.8785  2.1564 -0.5079
  164SAPE   C2518435   1.811   6.533   6.661 -0.0706 -0.9811 -0.6643
  164SAPE   H5R18436   1.817   6.568   6.557  0.8220  1.8745  0.2414
  164SAPE   C2618437   1.730   6.594   6.750 -0.0692 -0.7396 -0.4681
  164SAPE   H6R18438   1.672   6.682   6.719  0.7688  0.1952  0.5682
  164SAPE   C2718439   1.724   6.560   6.899  0.5444  0.0577 -0.3563
  164SAPE   H7R18440   1.718   6.450   6.912  0.9625 -0.0379 -0.9196
  164SAPE   H7S18441   1.631   6.598   6.946  1.5790  0.6457  1.2838
  164SAPE   C2818442   1.837   6.622   6.979  0.7912  1.1829  0.3305
  164SAPE   H8R18443   1.884   6.711   6.934  0.8206 -0.0987 -2.3603
  164SAPE   C2918444   1.883   6.572   7.097 -0.0489  0.0516 -0.6375
  164SAPE   H9R18445   1.970   6.624   7.140  1.0038  1.2162 -3.8975
  164SAPE  C21018446   1.821   6.452   7.173 -0.2051  0.1783  0.5869
  164SAPE  H10R18447   1.715   6.449   7.141  0.4629 -0.3897 -1.8167
  164SAPE  H10S18448   1.824   6.467   7.283 -0.9729 -2.4440  1.0224
  164SAPE  C21118449   1.892   6.324   7.137  1.0654 -0.8772 -0.0930
  164SAPE  H11R18450   1.857   6.276   7.044 -0.1135 -0.4607  0.1148
  164SAPE  C21218451   2.002   6.276   7.196 -0.4622 -0.7868 -0.3186
  164SAPE  H12R18452   2.050   6.184   7.157 -0.6384 -2.0461  2.2486
  164SAPE  C21318453   2.071   6.326   7.319  0.1209 -0.1716 -0.9991
  164SAPE  H13R18454   2.079   6.437   7.317 -1.7988  0.0435  0.4412
  164SAPE  H13S18455   2.177   6.291   7.313  0.5754  1.1993 -1.4200
  164SAPE  C21418456   2.005   6.288   7.452 -0.5487  0.0929 -0.2148
  164SAPE  H14R18457   1.901   6.260   7.431 -0.0612 -0.0967 -2.6714
  164SAPE  C21518458   2.058   6.276   7.575  0.0287 -0.1042  0.3833
  164SAPE  H15R18459   2.001   6.236   7.660 -0.9810 -2.0215 -1.1462
  164SAPE  C21618460   2.207   6.298   7.591  0.0276 -0.2077  0.7638
  164SAPE  H16R18461   2.227   6.401   7.625 -0.9613  0.1707  0.2447
  164SAPE  H16S18462   2.264   6.268   7.500 -1.5773 -0.2324 -0.2673
  164SAPE  C21718463   2.262   6.200   7.705  0.1193 -1.0345  0.7170
  164SAPE  H17R18464   2.371   6.216   7.701 -0.2099  1.4954  0.2214
  164SAPE  H17S18465   2.238   6.093   7.688  0.3169 -0.9653 -0.0232
  164SAPE  C21818466   2.211   6.246   7.845 -0.0637  0.0651  0.1245
  164SAPE  H18R18467   2.103   6.229   7.864  0.1238  0.0595  1.2366
  164SAPE  H18S18468   2.212   6.357   7.841  1.7227  0.1346  1.4644
  164SAPE  C21918469   2.307   6.213   7.960 -0.5741 -0.0473 -0.1716
  164SAPE  H19R18470   2.406   6.212   7.910  0.8889 -1.5934  2.5085
  164SAPE  H19S18471   2.298   6.108   7.995 -1.2294  0.2838  0.6865
  164SAPE  C22018472   2.310   6.316   8.075  0.4227 -0.4342 -0.0983
  164SAPE  H20R18473   2.327   6.419   8.036  1.6808 -1.0413 -1.2186
  164SAPE  H20S18474   2.398   6.289   8.137 -0.4382 -0.1057  1.3242
  164SAPE  H20T18475   2.225   6.305   8.146 -0.2925 -1.4165 -1.0698
  164SAPE   C3318476   2.388   6.765   6.572  0.4988  0.1681 -0.3712
  164SAPE   H3X18477   2.315   6.847   6.563  0.4287  0.2274  0.5727
  164SAPE   H3Y18478   2.481   6.782   6.514  0.7400  1.9861  0.4773
  164SAPE   C3418479   2.438   6.766   6.721  0.0039 -0.6329  0.1467
  164SAPE   H4X18480   2.509   6.685   6.750  0.5039 -1.0423 -2.0602
  164SAPE   H4Y18481   2.354   6.759   6.793 -2.0066  1.2324 -1.8913
  164SAPE   C3518482   2.508   6.901   6.750 -0.1669  0.1182 -0.4457
  164SAPE   H5X18483   2.436   6.985   6.735  0.5117  0.3927 -2.5684
  164SAPE   H5Y18484   2.600   6.920   6.690 -0.1981  0.7622 -0.2991
  164SAPE   C3618485   2.565   6.904   6.891 -0.1714 -0.5621 -0.2877
  164SAPE   H6X18486   2.634   6.817   6.899  2.7022  1.6810  1.0144
  164SAPE   H6Y18487   2.486   6.878   6.965  0.5110 -1.3754  0.1673
  164SAPE   C3718488   2.631   7.032   6.930  0.3585 -0.2770 -0.2222
  164SAPE   H7X18489   2.553   7.111   6.918  0.2048 -0.5041 -0.7769
  164SAPE   H7Y18490   2.723   7.054   6.871 -0.1843  0.2804 -0.8785
  164SAPE   C3818491   2.678   7.030   7.078 -0.6520  0.4207  0.3423
  164SAPE   H8X18492   2.764   6.961   7.093 -0.8415  0.3580  1.1969
  164SAPE   H8Y18493   2.598   6.996   7.147 -1.4181 -1.8592 -1.5250
  164SAPE   C3918494   2.719   7.164   7.124 -0.4001  0.7613  0.6988
  164SAPE   H9X18495   2.635   7.235   7.139 -0.9429 -0.3511  3.6156
  164SAPE   H9Y18496   2.790   7.214   7.055 -0.2075  2.4958  2.0719
  164SAPE  C31018497   2.805   7.154   7.253 -0.2911 -0.4598 -0.7796
  164SAPE  H10X18498   2.829   7.261   7.273 -1.4639 -0.2081 -0.6113
  164SAPE  H10Y18499   2.894   7.095   7.224  2.4560  3.2101 -0.4402
  164SAPE  C31118500   2.736   7.101   7.385 -0.0917 -0.2085 -0.1606
  164SAPE  H11X18501   2.738   6.992   7.407  1.8775  0.0630  1.2264
  164SAPE  H11Y18502   2.628   7.127   7.378 -0.0018  0.2778  0.1707
  164SAPE  C31218503   2.793   7.168   7.509 -0.7350 -0.2803 -0.4433
  164SAPE  H12X18504   2.712   7.166   7.586 -2.5017 -0.2200 -2.2189
  164SAPE  H12Y18505   2.805   7.277   7.493 -0.7621 -0.0717  0.8086
  164SAPE  C31318506   2.915   7.092   7.561 -0.0187 -0.1560  0.3678
  164SAPE  H13X18507   2.988   7.065   7.481 -1.7571  1.0904 -1.7438
  164SAPE  H13Y18508   2.868   6.997   7.595  1.0554 -0.9673 -0.3295
  164SAPE  C31418509   2.986   7.168   7.678 -0.3477  0.0318  0.6017
  164SAPE  H14X18510   3.022   7.265   7.639 -0.4701 -0.7804 -1.6585
  164SAPE  H14Y18511   3.079   7.109   7.688 -0.0110 -0.0179 -2.0575
  164SAPE  C31518512   2.902   7.178   7.805  0.1522 -0.2139 -0.7395
  164SAPE  H15X18513   2.812   7.238   7.778  0.7008  1.6845  1.3276
  164SAPE  H15Y18514   2.960   7.245   7.873 -0.0479 -1.0625  0.2808
  164SAPE  C31618515   2.866   7.054   7.877  0.0409 -0.2662 -0.3917
  164SAPE  H16X18516   2.786   7.003   7.819  0.2463  0.8002 -1.6566
  164SAPE  H16Y18517   2.838   7.083   7.980  1.8137  1.9310 -0.4598
  164SAPE  C31718518   2.993   6.956   7.875  0.4413  0.2854  0.4001
  164SAPE  H17X18519   3.073   7.011   7.930 -1.1464  0.8357  2.2619
  164SAPE  H17Y18520   3.010   6.924   7.770 -0.3324 -0.4488  0.4933
  164SAPE  C31818521   2.973   6.827   7.953  0.7000  0.6620 -0.2292
  164SAPE  H18X18522   3.060   6.758   7.962 -1.6644 -2.5408 -0.2943
  164SAPE  H18Y18523   2.892   6.764   7.910  0.1317  0.2300  1.4233
  164SAPE  H18Z18524   2.939   6.843   8.057 -0.8112 -2.5017 -0.1180
  165SAPE     N18525   3.318   3.224   5.920 -0.7240  0.3622 -0.7278
  165SAPE   HN118526   3.287   3.300   5.856 -2.2787  1.4453  1.2018
  165SAPE   HN218527   3.367   3.275   5.997 -0.8934  1.1917 -1.1556
  165SAPE   HN318528   3.380   3.160   5.866  1.5348  0.7510  1.2752
  165SAPE   C1218529   3.193   3.152   5.968 -0.0736  0.1449  0.3962
  165SAPE  H12A18530   3.213   3.046   5.995  2.2969  0.0594 -1.4125
  165SAPE  H12B18531   3.112   3.165   5.893 -1.0726 -1.4481  1.1490
  165SAPE   C1118532   3.131   3.220   6.094  0.1099  0.0794  0.1783
  165SAPE  H11A18533   3.124   3.331   6.093 -1.9168 -0.0137  0.1660
  165SAPE  H11B18534   3.187   3.197   6.187 -1.5291  1.3451  1.5523
  165SAPE     P18535   2.965   3.066   6.215 -0.0995  0.2140  0.2004
  165SAPE   O1318536   2.822   3.045   6.225 -0.3378  0.2286  0.3061
  165SAPE   O1418537   3.045   2.946   6.193  0.1366  0.0409  0.2712
  165SAPE   O1218538   2.996   3.182   6.114  0.0252  0.0881  0.7886
  165SAPE   O1118539   3.014   3.130   6.351  0.3066  0.3433  0.0017
  165SAPE    C118540   2.949   3.251   6.398 -0.3763 -0.0822  0.0208
  165SAPE    HA18541   3.029   3.308   6.450 -0.2945 -0.6149  0.4921
  165SAPE    HB18542   2.903   3.316   6.321 -0.8477 -1.3351 -0.7942
  165SAPE    C218543   2.845   3.212   6.510 -0.0651  0.1326 -0.6227
  165SAPE    HS18544   2.761   3.158   6.461  0.9686 -1.5796 -0.5904
  165SAPE   O2118545   2.819   3.342   6.570  0.2285  0.1781 -0.3236
  165SAPE   C2118546   2.689   3.377   6.578  0.4677 -0.5543  0.1943
  165SAPE   O2218547   2.597   3.298   6.555 -0.0863  0.5957  0.0871
  165SAPE   C2218548   2.677   3.525   6.618  0.9598 -0.1655  0.0475
  165SAPE   H2R18549   2.762   3.560   6.681  1.5245  0.2693 -0.9449
  165SAPE   H2S18550   2.674   3.586   6.526 -0.9014 -0.9561 -0.4617
  165SAPE    C318551   2.902   3.111   6.614 -0.1663  0.6848  0.6299
  165SAPE    HX18552   3.006   3.138   6.642  0.2558  0.9344 -1.0697
  165SAPE    HY18553   2.926   3.019   6.556 -1.1764  1.1437 -0.5523
  165SAPE   O3118554   2.826   3.094   6.735  0.3034 -0.0090  0.0091
  165SAPE   C3118555   2.728   3.002   6.725 -0.1884 -0.6536 -0.4762
  165SAPE   O3218556   2.692   2.948   6.626  0.0585 -0.0826  0.1742
  165SAPE   C3218557   2.650   3.013   6.856  0.2752 -0.5796 -0.4971
  165SAPE   H2X18558   2.637   3.122   6.870 -0.4843 -0.6076 -0.9140
  165SAPE   H2Y18559   2.716   2.980   6.939 -1.0980 -0.3041  0.7453
  165SAPE   C2318560   2.545   3.556   6.701 -0.4415  0.4329  0.1093
  165SAPE   H3R18561   2.457   3.548   6.633  0.2861  0.3962 -0.8396
  165SAPE   H3S18562   2.546   3.661   6.737 -2.0116  0.2453  0.8158
  165SAPE   C2418563   2.519   3.463   6.822 -0.3473 -0.2740 -0.3185
  165SAPE   H4R18564   2.608   3.451   6.888  0.9641  1.5575 -1.6493
  165SAPE   H4S18565   2.499   3.361   6.784 -0.1845  0.0151 -1.1898
  165SAPE   C2518566   2.387   3.489   6.890 -0.9774  0.5962  0.1395
  165SAPE   H5R18567   2.310   3.483   6.812  1.9772 -0.8240 -2.9084
  165SAPE   C2618568   2.364   3.506   7.020  0.0123  0.5095 -0.8170
  165SAPE   H6R18569   2.261   3.529   7.052  0.4159  0.2997  0.7037
  165SAPE   C2718570   2.473   3.516   7.122 -0.0272 -0.0905  0.1565
  165SAPE   H7R18571   2.448   3.610   7.175 -0.4539  0.4832 -1.0212
  165SAPE   H7S18572   2.569   3.549   7.078 -1.5784 -0.0628 -3.5773
  165SAPE   C2818573   2.495   3.393   7.207 -0.8115 -0.7812  0.0555
  165SAPE   H8R18574   2.544   3.307   7.160  1.2212  0.8086 -0.8674
  165SAPE   C2918575   2.507   3.388   7.342  0.2548  0.4971 -0.0098
  165SAPE   H9R18576   2.527   3.289   7.385 -3.0140 -0.2089  0.1519
  165SAPE  C21018577   2.492   3.503   7.435  0.4661  0.2998 -0.7376
  165SAPE  H10R18578   2.398   3.496   7.494  1.6941 -0.6440  1.1975
  165SAPE  H10S18579   2.486   3.600   7.382 -0.3592 -0.0337 -1.2652
  165SAPE  C21118580   2.603   3.500   7.538  0.8385 -0.6029  0.1243
  165SAPE  H11R18581   2.702   3.529   7.500  0.3573 -0.7249 -1.2987
  165SAPE  C21218582   2.592   3.501   7.671  0.1619  0.2314  0.7509
  165SAPE  H12R18583   2.682   3.498   7.734 -0.5735  2.1307  1.9789
  165SAPE  C21318584   2.467   3.484   7.749  0.6806 -0.8797 -0.2469
  165SAPE  H13R18585   2.380   3.527   7.695 -0.2320 -1.0417  1.0495
  165SAPE  H13S18586   2.477   3.544   7.842 -0.0672 -1.8268  0.4706
  165SAPE  C21418587   2.448   3.339   7.773 -0.0032 -0.3402 -0.3980
  165SAPE  H14R18588   2.435   3.275   7.684  0.2637  1.0593 -1.4673
  165SAPE  C21518589   2.459   3.273   7.887  0.0227 -0.2516  0.0652
  165SAPE  H15R18590   2.447   3.164   7.874  0.8970 -0.1987 -1.3593
  165SAPE  C21618591   2.502   3.331   8.018 -0.1359  0.0822 -0.4709
  165SAPE  H16R18592   2.594   3.392   8.005  0.3146 -0.1314  1.3916
  165SAPE  H16S18593   2.541   3.250   8.084 -0.1438  1.3216  1.1103
  165SAPE  C21718594   2.395   3.399   8.100  0.2923 -0.5611  0.4802
  165SAPE  H17R18595   2.303   3.337   8.089  0.0112  0.1141 -1.3864
  165SAPE  H17S18596   2.371   3.501   8.062 -2.4960 -1.1081  0.5728
  165SAPE  C21818597   2.415   3.409   8.247  0.3304 -0.1854 -0.0252
  165SAPE  H18R18598   2.410   3.305   8.286 -2.2226 -0.8192 -1.7902
  165SAPE  H18S18599   2.334   3.471   8.291  0.0587  0.4592 -1.3967
  165SAPE  C21918600   2.542   3.488   8.284 -0.1406 -0.3001  0.1584
  165SAPE  H19R18601   2.529   3.590   8.244 -0.7284 -1.5102 -3.0314
  165SAPE  H19S18602   2.631   3.455   8.227  1.7346  1.7340  1.7476
  165SAPE  C22018603   2.567   3.500   8.434 -0.1395 -0.3975  0.2274
  165SAPE  H20R18604   2.656   3.566   8.444  0.2886 -0.8952 -0.2298
  165SAPE  H20S18605   2.580   3.406   8.491 -1.5544  0.2332  1.6682
  165SAPE  H20T18606   2.488   3.558   8.487  0.3811  0.7626 -0.2193
  165SAPE   C3318607   2.518   2.932   6.851  0.5872 -0.4694 -0.4726
  165SAPE   H3X18608   2.543   2.824   6.864  1.1332 -0.1130  1.8857
  165SAPE   H3Y18609   2.464   2.943   6.755  0.1982 -0.7194 -0.2870
  165SAPE   C3418610   2.426   2.968   6.969 -0.1644  0.0211  0.0513
  165SAPE   H4X18611   2.328   2.926   6.937  0.5337 -1.2298 -0.4794
  165SAPE   H4Y18612   2.403   3.077   6.967  2.1855  0.5687 -0.1844
  165SAPE   C3518613   2.481   2.920   7.107 -0.3613 -0.2301  0.0726
  165SAPE   H5X18614   2.572   2.984   7.115 -0.7660  0.6946 -2.1905
  165SAPE   H5Y18615   2.498   2.810   7.114 -2.0667 -0.4049  3.0891
  165SAPE   C3618616   2.386   2.949   7.216  0.8962 -0.5014  0.6026
  165SAPE   H6X18617   2.293   2.898   7.183  0.6892  0.5977 -0.5939
  165SAPE   H6Y18618   2.355   3.055   7.210 -1.0930 -1.0632 -4.3776
  165SAPE   C3718619   2.423   2.888   7.347  0.4629 -0.1149  0.8094
  165SAPE   H7X18620   2.472   2.789   7.342 -1.4796 -1.1125  0.7708
  165SAPE   H7Y18621   2.324   2.875   7.397  0.2125 -0.0709  0.3257
  165SAPE   C3818622   2.511   2.977   7.439  0.1009 -0.1315  0.0267
  165SAPE   H8X18623   2.493   3.086   7.439  0.7792 -0.0108  0.8528
  165SAPE   H8Y18624   2.616   2.963   7.404  0.3285 -0.4992  0.8423
  165SAPE   C3918625   2.519   2.933   7.584  0.3446  0.6258  0.5095
  165SAPE   H9X18626   2.563   2.832   7.579  1.3993  1.0737  0.4045
  165SAPE   H9Y18627   2.415   2.929   7.623  0.5837 -0.8498  1.0425
  165SAPE  C31018628   2.610   3.025   7.673 -0.2634  0.9049 -0.4526
  165SAPE  H10X18629   2.559   3.122   7.685  0.1740  0.9438  1.4019
  165SAPE  H10Y18630   2.694   3.051   7.606 -1.4228  2.3445 -1.4011
  165SAPE  C31118631   2.658   2.976   7.815 -0.2394 -0.0608 -0.0877
  165SAPE  H11X18632   2.732   2.893   7.812  0.7977  0.8118  0.6177
  165SAPE  H11Y18633   2.570   2.945   7.875 -1.7350  1.6573 -1.3104
  165SAPE  C31218634   2.747   3.084   7.879  0.3084  0.0460 -0.4934
  165SAPE  H12X18635   2.682   3.157   7.932 -0.3866 -0.5836 -0.4776
  165SAPE  H12Y18636   2.811   3.137   7.805  1.4696  0.9838  1.1027
  165SAPE  C31318637   2.836   3.018   7.989  0.1672  0.0877  0.7129
  165SAPE  H13X18638   2.920   3.087   8.010  2.2295 -1.3213 -2.0726
  165SAPE  H13Y18639   2.876   2.928   7.937 -2.7205 -0.8241 -0.1769
  165SAPE  C31418640   2.759   2.986   8.113 -0.2841  0.1544 -0.1642
  165SAPE  H14X18641   2.664   2.931   8.095 -0.6927  0.6877  0.3168
  165SAPE  H14Y18642   2.737   3.085   8.157 -3.9885 -0.2540 -0.7960
  165SAPE  C31518643   2.834   2.896   8.215  0.1679  0.0875 -0.1481
  165SAPE  H15X18644   2.921   2.944   8.265 -0.4574  0.4271  0.6286
  165SAPE  H15Y18645   2.873   2.801   8.173  1.3088  1.2107 -1.7991
  165SAPE  C31618646   2.737   2.863   8.319  0.3000  0.6131  0.0179
  165SAPE  H16X18647   2.671   2.777   8.293  0.3005  0.5868  0.1032
  165SAPE  H16Y18648   2.677   2.951   8.350  1.3420  1.1396  0.6055
  165SAPE  C31718649   2.800   2.802   8.453 -0.4400 -0.2748 -0.0335
  165SAPE  H17X18650   2.857   2.885   8.500 -1.3288 -0.1902  0.9281
  165SAPE  H17Y18651   2.850   2.706   8.427 -2.2338 -1.3155  0.2226
  165SAPE  C31818652   2.699   2.759   8.566  0.7048  0.4742  0.6010
  165SAPE  H18X18653   2.751   2.714   8.653 -1.2454 -0.7664  1.1977
  165SAPE  H18Y18654   2.615   2.696   8.529  0.1248 -1.0097  4.0508
  165SAPE  H18Z18655   2.650   2.844   8.618 -0.0246  0.4131  0.0299
  166SAPE     N18656   0.669   4.777   6.029  0.4941  0.3407  0.6313
  166SAPE   HN118657   0.736   4.702   6.002  1.3056  0.6009  1.8384
  166SAPE   HN218658   0.610   4.736   6.104  1.2859 -1.9426  0.1036
  166SAPE   HN318659   0.603   4.802   5.952  0.7617 -1.8823 -0.4205
  166SAPE   C1218660   0.755   4.892   6.086  0.0081  0.3637 -0.0664
  166SAPE  H12A18661   0.820   4.843   6.162 -0.1179 -0.7812 -0.6624
  166SAPE  H12B18662   0.687   4.955   6.147 -1.2521 -1.4003  0.4425
  166SAPE   C1118663   0.841   4.956   5.980  0.1115 -0.4601 -0.9782
  166SAPE  H11A18664   0.916   5.022   6.027  1.0359 -2.7258  0.8906
  166SAPE  H11B18665   0.776   5.012   5.908  1.2571 -1.4581 -2.8737
  166SAPE     P18666   1.041   4.863   5.838 -0.3841 -0.0011  0.3548
  166SAPE   O1318667   1.098   4.726   5.829 -0.3336  0.2886 -0.3001
  166SAPE   O1418668   1.036   4.946   5.721 -0.4775 -0.2879  0.1971
  166SAPE   O1218669   0.898   4.857   5.901 -0.6735 -0.1936  0.7318
  166SAPE   O1118670   1.118   4.945   5.954 -0.6101  0.0853 -1.1515
  166SAPE    C118671   1.183   4.877   6.063 -0.6482  0.1026  0.3916
  166SAPE    HA18672   1.191   4.767   6.056  0.8079  0.2039  0.1488
  166SAPE    HB18673   1.291   4.901   6.062 -0.4545 -0.6489  1.5226
  166SAPE    C218674   1.123   4.915   6.203 -0.0953  0.6462  0.0188
  166SAPE    HS18675   1.023   4.867   6.205  0.8837 -1.5307  2.0613
  166SAPE   O2118676   1.120   5.054   6.216 -0.3405  0.1519 -0.2608
  166SAPE   C2118677   1.009   5.110   6.262 -1.0300 -0.8421  0.0767
  166SAPE   O2218678   0.909   5.056   6.288  0.2095  0.2200 -0.1973
  166SAPE   C2218679   1.024   5.273   6.271 -0.2273  0.2034  0.8997
  166SAPE   H2R18680   1.116   5.300   6.215  0.0923  0.6240  1.6160
  166SAPE   H2S18681   0.931   5.316   6.227  0.6486  3.2215  1.7462
  166SAPE    C318682   1.212   4.851   6.308 -0.2917  0.3521 -0.6758
  166SAPE    HX18683   1.310   4.901   6.296  1.2783 -1.9521  1.4251
  166SAPE    HY18684   1.242   4.748   6.278 -0.6825  0.2819 -0.8357
  166SAPE   O3118685   1.163   4.855   6.445 -0.6828 -0.0731 -0.4113
  166SAPE   C3118686   1.059   4.780   6.469 -0.2054  0.5384 -0.0261
  166SAPE   O3218687   1.016   4.699   6.388  0.3174  0.9505  0.6856
  166SAPE   C3218688   1.009   4.782   6.612  0.3609 -0.4698 -0.7199
  166SAPE   H2X18689   0.923   4.713   6.615  0.5296 -0.7182 -1.3624
  166SAPE   H2Y18690   0.980   4.889   6.626 -0.0034 -0.0555 -3.8918
  166SAPE   C2318691   1.022   5.328   6.414 -0.1996 -0.0581 -0.0288
  166SAPE   H3R18692   0.932   5.302   6.473 -0.0277  0.8780  0.6639
  166SAPE   H3S18693   1.014   5.439   6.407 -1.7470 -0.1904 -0.5813
  166SAPE   C2418694   1.152   5.299   6.495  0.2716 -0.2678  0.5282
  166SAPE   H4R18695   1.146   5.375   6.576  0.2303  0.1263  0.1623
  166SAPE   H4S18696   1.239   5.341   6.439 -0.7818 -0.1795 -1.1217
  166SAPE   C2518697   1.186   5.161   6.547  0.1306  0.3021 -0.1216
  166SAPE   H5R18698   1.167   5.078   6.478 -2.6800  0.8418 -0.1287
  166SAPE   C2618699   1.236   5.132   6.667 -1.2832 -0.2225 -0.0803
  166SAPE   H6R18700   1.265   5.029   6.690  1.3875 -0.0059 -1.9137
  166SAPE   C2718701   1.262   5.232   6.781  0.5347 -0.2258 -0.4177
  166SAPE   H7R18702   1.209   5.328   6.771 -0.8315 -0.5249  2.7826
  166SAPE   H7S18703   1.370   5.257   6.774  0.9894 -1.5412  1.1197
  166SAPE   C2818704   1.208   5.170   6.912  0.0842  0.2803 -0.6811
  166SAPE   H8R18705   1.117   5.109   6.903 -0.5401  1.3687 -2.3390
  166SAPE   C2918706   1.270   5.186   7.037 -0.4888  0.5220  0.3384
  166SAPE   H9R18707   1.216   5.133   7.117  0.2842  0.5817  0.9090
  166SAPE  C21018708   1.392   5.268   7.092  0.2844 -0.0322 -0.5964
  166SAPE  H10R18709   1.424   5.344   7.017  0.1831  0.7207  0.1144
  166SAPE  H10S18710   1.482   5.204   7.093 -0.0067 -0.4417 -0.3749
  166SAPE  C21118711   1.380   5.336   7.219  0.0544  0.0637  0.1728
  166SAPE  H11R18712   1.391   5.445   7.219  3.3632 -0.1888  0.6066
  166SAPE  C21218713   1.368   5.291   7.344  0.2975  0.4531 -0.2671
  166SAPE  H12R18714   1.359   5.366   7.425  0.8828  1.8918 -1.4892
  166SAPE  C21318715   1.357   5.144   7.387 -0.1206 -0.5029  0.5427
  166SAPE  H13R18716   1.456   5.095   7.404 -0.1239 -0.2815  1.1971
  166SAPE  H13S18717   1.299   5.074   7.323  0.6964 -0.8697  0.1814
  166SAPE  C21418718   1.286   5.143   7.519 -0.0760  0.3226  0.0972
  166SAPE  H14R18719   1.178   5.128   7.509  0.2693 -2.0622 -0.7373
  166SAPE  C21518720   1.350   5.150   7.639  0.5182 -0.1428  0.1686
  166SAPE  H15R18721   1.280   5.140   7.723 -2.1411  0.5673 -1.7908
  166SAPE  C21618722   1.498   5.168   7.667 -0.0611  0.5558  0.3838
  166SAPE  H16R18723   1.547   5.203   7.574  0.7755 -0.0990  0.5611
  166SAPE  H16S18724   1.538   5.066   7.687 -0.5205  0.5890  1.5825
  166SAPE  C21718725   1.524   5.259   7.785  0.0443 -0.0172 -0.8766
  166SAPE  H17R18726   1.478   5.360   7.777  0.5530  0.2177 -0.8563
  166SAPE  H17S18727   1.634   5.274   7.783  0.0117  0.1954 -1.4370
  166SAPE  C21818728   1.496   5.208   7.931  0.6590  0.2753 -0.4477
  166SAPE  H18R18729   1.508   5.098   7.936 -0.4110  0.1983  0.8575
  166SAPE  H18S18730   1.386   5.224   7.937  0.1382 -2.9439  0.1982
  166SAPE  C21918731   1.568   5.281   8.046  0.7391 -0.4511 -1.1335
  166SAPE  H19R18732   1.560   5.386   8.012 -1.2298 -1.0148 -2.5443
  166SAPE  H19S18733   1.675   5.254   8.030  1.5547  2.1705 -0.6488
  166SAPE  C22018734   1.501   5.255   8.182  0.2293 -0.1086  0.1495
  166SAPE  H20R18735   1.394   5.279   8.171 -0.0656 -0.4706  2.0208
  166SAPE  H20S18736   1.536   5.328   8.258 -0.8328  2.2098 -1.4803
  166SAPE  H20T18737   1.516   5.150   8.214  0.3261 -0.2798 -0.4351
  166SAPE   C3318738   1.122   4.732   6.716  0.4764 -0.3098  0.7147
  166SAPE   H3X18739   1.206   4.804   6.708  1.1971 -1.0493  1.4642
  166SAPE   H3Y18740   1.148   4.629   6.682  1.3614  0.2232 -0.2750
  166SAPE   C3418741   1.085   4.741   6.861  0.6603  0.3971  0.2010
  166SAPE   H4X18742   1.009   4.667   6.893  1.1818  0.5219  1.7983
  166SAPE   H4Y18743   1.056   4.847   6.875  2.9929  0.7595  3.4648
  166SAPE   C3518744   1.212   4.704   6.933  0.1157  0.0888 -0.2329
  166SAPE   H5X18745   1.288   4.777   6.897  0.0189 -0.5123 -1.7087
  166SAPE   H5Y18746   1.247   4.604   6.902 -3.4411 -2.0923  2.0573
  166SAPE   C3618747   1.205   4.714   7.088 -0.2379 -0.5652 -0.3133
  166SAPE   H6X18748   1.165   4.615   7.116 -1.0269 -0.4692 -1.0536
  166SAPE   H6Y18749   1.121   4.783   7.108 -2.4254 -1.6942 -4.4309
  166SAPE   C3718750   1.335   4.754   7.158  0.1680 -0.2394 -0.5691
  166SAPE   H7X18751   1.345   4.862   7.134 -0.1824 -0.1248 -0.2062
  166SAPE   H7Y18752   1.422   4.693   7.123 -1.0462 -2.4166  0.0038
  166SAPE   C3818753   1.325   4.716   7.308 -0.4542 -0.0173  0.5156
  166SAPE   H8X18754   1.402   4.774   7.364  0.1463 -1.9405  1.7903
  166SAPE   H8Y18755   1.343   4.607   7.319 -0.3061 -0.4073 -2.7095
  166SAPE   C3918756   1.189   4.740   7.369 -0.0961 -0.1279 -0.0117
  166SAPE   H9X18757   1.100   4.693   7.323  0.2118 -1.6035  0.8181
  166SAPE   H9Y18758   1.168   4.848   7.387  0.1895  0.3670 -2.3573
  166SAPE  C31018759   1.178   4.666   7.510  0.9309  0.0774 -0.3589
  166SAPE  H10X18760   1.189   4.557   7.489  0.9951  0.1065 -0.4850
  166SAPE  H10Y18761   1.078   4.686   7.552  1.2606  1.7965 -0.3115
  166SAPE  C31118762   1.281   4.723   7.612  0.5921 -0.6144 -0.1104
  166SAPE  H11X18763   1.241   4.826   7.630  1.6462 -0.1126 -0.5383
  166SAPE  H11Y18764   1.383   4.743   7.574  0.5340  0.1982  0.1298
  166SAPE  C31218765   1.291   4.649   7.749 -0.3142 -0.2863  0.0290
  166SAPE  H12X18766   1.326   4.544   7.734 -1.5179 -0.5439 -1.1118
  166SAPE  H12Y18767   1.192   4.656   7.799  0.4209  0.0658  1.5050
  166SAPE  C31318768   1.380   4.720   7.854 -0.3713 -0.1355 -0.1047
  166SAPE  H13X18769   1.355   4.826   7.875  2.9700  0.4616  1.5449
  166SAPE  H13Y18770   1.480   4.723   7.806 -0.3423 -1.1479 -0.1305
  166SAPE  C31418771   1.372   4.651   7.995  0.3417  0.8708  0.5038
  166SAPE  H14X18772   1.414   4.549   7.986 -0.6388  0.5334 -0.4882
  166SAPE  H14Y18773   1.262   4.646   8.010 -0.1676  1.7824 -2.3622
  166SAPE  C31518774   1.441   4.724   8.108 -0.6082  0.3437 -0.2603
  166SAPE  H15X18775   1.383   4.819   8.114  1.7416  1.7460  2.8640
  166SAPE  H15Y18776   1.549   4.737   8.086 -0.6052 -0.7449 -0.9877
  166SAPE  C31618777   1.416   4.650   8.243 -0.0396 -0.1270  0.0118
  166SAPE  H16X18778   1.342   4.568   8.238  0.7515 -0.8082 -0.6787
  166SAPE  H16Y18779   1.373   4.729   8.310  0.9295  0.6536 -0.2659
  166SAPE  C31718780   1.542   4.595   8.313 -0.3580  0.5438  0.2744
  166SAPE  H17X18781   1.616   4.676   8.298 -0.4265  0.7320  0.9263
  166SAPE  H17Y18782   1.584   4.504   8.265  0.9702  1.1953  0.1427
  166SAPE  C31818783   1.542   4.591   8.468  0.1815 -0.4078  0.4547
  166SAPE  H18X18784   1.441   4.563   8.504  0.5166 -1.5899  0.5192
  166SAPE  H18Y18785   1.569   4.686   8.519 -1.3372 -0.5427  1.5559
  166SAPE  H18Z18786   1.600   4.502   8.503 -0.3412  0.1626  3.0009
  167SAPE     N18787   3.268   6.130   5.998 -0.1799 -0.3772 -0.1768
  167SAPE   HN118788   3.246   6.040   6.045  0.4684  0.4946  1.9340
  167SAPE   HN218789   3.329   6.130   5.914  0.7587  1.3370  0.4441
  167SAPE   HN318790   3.319   6.185   6.070  1.1459 -2.2546  0.3721
  167SAPE   C1218791   3.140   6.203   5.966 -0.7687  0.0582 -0.6957
  167SAPE  H12A18792   3.166   6.292   5.905 -2.1303  0.6606 -0.4202
  167SAPE  H12B18793   3.082   6.237   6.054 -0.1415  0.2415 -0.3508
  167SAPE   C1118794   3.053   6.108   5.895 -0.0375  0.5132  0.8485
  167SAPE  H11A18795   3.102   6.044   5.818 -2.0234 -2.1354  1.6376
  167SAPE  H11B18796   2.972   6.163   5.842 -3.1319 -1.2665  3.3474
  167SAPE     P18797   2.880   6.033   6.088  0.0144 -0.4161 -0.3056
  167SAPE   O1318798   2.813   6.158   6.046 -0.6027 -0.1257  0.3541
  167SAPE   O1418799   2.800   5.910   6.079 -0.1513 -0.2050  0.3298
  167SAPE   O1218800   3.006   6.014   5.990 -0.1371  0.0870 -0.0666
  167SAPE   O1118801   2.954   6.047   6.229  0.3288 -0.3341  0.5522
  167SAPE    C118802   3.016   5.937   6.292 -0.8083  0.0814  0.4718
  167SAPE    HA18803   3.035   5.855   6.219 -3.0252  1.1897 -1.4844
  167SAPE    HB18804   3.118   5.960   6.329 -0.6668 -1.9390  1.4385
  167SAPE    C218805   2.945   5.888   6.424 -0.0933  0.0379  0.3365
  167SAPE    HS18806   2.848   5.852   6.385  0.3652  0.0523 -0.8509
  167SAPE   O2118807   2.946   5.993   6.519  0.2682  0.5257 -0.0000
  167SAPE   C2118808   2.828   6.008   6.587  0.5242 -0.4287 -0.0034
  167SAPE   O2218809   2.732   5.932   6.568 -0.3787  0.0945  0.2778
  167SAPE   C2218810   2.846   6.116   6.690  0.3532 -0.1968 -0.3094
  167SAPE   H2R18811   2.920   6.076   6.762 -0.3475 -2.4703 -0.7673
  167SAPE   H2S18812   2.882   6.205   6.634 -0.6344  0.7376  0.4936
  167SAPE    C318813   3.015   5.763   6.482 -0.0879 -0.4732  0.6205
  167SAPE    HX18814   3.119   5.784   6.518 -0.3012  0.4249  0.7477
  167SAPE    HY18815   3.025   5.680   6.409 -4.2818 -1.3367  0.7764
  167SAPE   O3118816   2.939   5.718   6.597 -0.7495 -0.1758 -0.1095
  167SAPE   C3118817   2.837   5.630   6.572 -0.1341  0.0247  0.3801
  167SAPE   O3218818   2.810   5.587   6.461  0.0609 -0.1339  0.9889
  167SAPE   C3218819   2.763   5.606   6.694 -0.2495  0.3788  0.1014
  167SAPE   H2X18820   2.680   5.550   6.646 -0.1675  1.0664 -0.8600
  167SAPE   H2Y18821   2.728   5.697   6.747 -0.3539  0.2933  0.1788
  167SAPE   C2318822   2.720   6.163   6.769 -0.0081 -0.5219  0.0191
  167SAPE   H3R18823   2.642   6.084   6.776  1.9005 -2.3912  1.8689
  167SAPE   H3S18824   2.669   6.250   6.723  1.4826  1.6775  2.3203
  167SAPE   C2418825   2.755   6.210   6.909  0.5117 -0.0035 -0.5077
  167SAPE   H4R18826   2.782   6.117   6.964  1.1166  0.3122 -0.2700
  167SAPE   H4S18827   2.661   6.240   6.961 -1.0200  0.7393 -3.4816
  167SAPE   C2518828   2.860   6.320   6.918 -0.5561  0.0006 -0.1966
  167SAPE   H5R18829   2.856   6.387   6.831 -4.6552 -2.2624 -2.0497
  167SAPE   C2618830   2.951   6.344   7.019  0.1800 -0.8595 -0.1749
  167SAPE   H6R18831   3.028   6.423   7.008 -1.7888  1.1384 -0.2943
  167SAPE   C2718832   2.961   6.250   7.137  0.0646 -0.4772  1.0067
  167SAPE   H7R18833   2.866   6.196   7.158 -0.1952 -0.3520  0.1865
  167SAPE   H7S18834   2.970   6.312   7.230 -0.7542  0.0387  0.7551
  167SAPE   C2818835   3.076   6.162   7.128 -0.6794 -0.1609  0.1431
  167SAPE   H8R18836   3.170   6.215   7.150  0.7178 -2.5812  0.3440
  167SAPE   C2918837   3.084   6.032   7.097 -0.1930  0.2204 -0.4569
  167SAPE   H9R18838   3.181   5.980   7.102 -0.3273  0.0004 -0.0981
  167SAPE  C21018839   2.969   5.946   7.058  0.6128  0.1971  1.2616
  167SAPE  H10R18840   2.910   5.984   6.972  2.1764  1.6655  0.7694
  167SAPE  H10S18841   2.897   5.945   7.142 -0.4899 -0.7225  0.3380
  167SAPE  C21118842   3.002   5.800   7.050  0.5571 -0.2302 -0.5335
  167SAPE  H11R18843   3.012   5.768   6.945 -2.9503 -0.1765 -0.9814
  167SAPE  C21218844   3.026   5.713   7.153  0.2140 -0.2483  0.5744
  167SAPE  H12R18845   3.051   5.613   7.113 -0.9716  0.3005 -1.7533
  167SAPE  C21318846   3.015   5.746   7.304  0.2447  0.0863 -1.0516
  167SAPE  H13R18847   3.062   5.845   7.321 -1.3072  1.2177 -2.9257
  167SAPE  H13S18848   3.076   5.670   7.356 -1.4453 -0.1151  0.7564
  167SAPE  C21418849   2.878   5.746   7.366  0.3996 -1.0528 -0.0545
  167SAPE  H14R18850   2.809   5.783   7.288 -2.1473 -2.1267  1.5707
  167SAPE  C21518851   2.836   5.718   7.487  0.9191  0.2018  0.0245
  167SAPE  H15R18852   2.728   5.717   7.508  0.4193  3.4306 -1.7234
  167SAPE  C21618853   2.936   5.672   7.591  0.0889  0.2694  0.3360
  167SAPE  H16R18854   3.033   5.719   7.566  0.0948 -0.3437 -0.8457
  167SAPE  H16S18855   2.948   5.561   7.586 -0.0695  0.2012  1.2232
  167SAPE  C21718856   2.907   5.712   7.732  0.9463 -0.8359  0.0640
  167SAPE  H17R18857   2.806   5.670   7.748  0.6742 -1.6634 -3.2653
  167SAPE  H17S18858   2.918   5.823   7.736 -0.4320 -0.7002  0.8065
  167SAPE  C21818859   3.015   5.657   7.824  0.6286 -0.0350  0.5754
  167SAPE  H18R18860   3.113   5.691   7.783  0.3171 -0.7361 -0.8256
  167SAPE  H18S18861   3.011   5.546   7.819  0.7098 -0.0594  1.0194
  167SAPE  C21918862   2.997   5.699   7.967  0.2495  1.1853 -0.8280
  167SAPE  H19R18863   3.035   5.623   8.038 -2.1037  1.2946  0.6615
  167SAPE  H19S18864   2.889   5.691   7.991 -0.3616 -1.1513 -3.7898
  167SAPE  C22018865   3.049   5.834   7.990  0.0666  0.1779  0.2449
  167SAPE  H20R18866   3.157   5.833   7.965 -0.1631 -1.1850 -0.7977
  167SAPE  H20S18867   3.044   5.865   8.096 -2.5359 -1.5659  0.7228
  167SAPE  H20T18868   3.006   5.912   7.923  3.4796 -0.7371 -3.3724
  167SAPE   C3318869   2.845   5.526   6.802  0.0777 -0.3973 -0.4107
  167SAPE   H3X18870   2.942   5.576   6.824  0.2065 -2.0837  3.8518
  167SAPE   H3Y18871   2.877   5.427   6.765  0.8299  0.3356 -1.8100
  167SAPE   C3418872   2.762   5.497   6.924  0.5662 -0.8391  0.4697
  167SAPE   H4X18873   2.659   5.459   6.907 -0.0231 -0.1232  2.1795
  167SAPE   H4Y18874   2.759   5.590   6.986 -2.4275  0.9447 -2.0229
  167SAPE   C3518875   2.835   5.396   7.013  0.0253  0.1376 -0.4358
  167SAPE   H5X18876   2.940   5.434   7.008  0.3203 -0.5919  0.1051
  167SAPE   H5Y18877   2.841   5.291   6.980  3.8985  0.5132 -1.4264
  167SAPE   C3618878   2.794   5.402   7.156 -0.2198 -0.0160  0.1902
  167SAPE   H6X18879   2.687   5.373   7.155 -0.4143  0.1522  3.4609
  167SAPE   H6Y18880   2.794   5.505   7.198  0.8909 -0.3651  1.1233
  167SAPE   C3718881   2.868   5.314   7.254  0.2259 -0.4420  0.1090
  167SAPE   H7X18882   2.978   5.331   7.245 -0.2731  2.4643 -2.0096
  167SAPE   H7Y18883   2.854   5.206   7.235 -0.3657 -0.1811 -0.9915
  167SAPE   C3818884   2.819   5.338   7.396  0.5372 -0.2048  0.1760
  167SAPE   H8X18885   2.712   5.365   7.383 -0.7329 -5.0588 -1.9269
  167SAPE   H8Y18886   2.886   5.421   7.427  1.6454 -0.4031 -1.4990
  167SAPE   C3918887   2.833   5.220   7.482 -0.3918  0.2606  0.0154
  167SAPE   H9X18888   2.940   5.196   7.495 -0.2417  0.6558 -0.4709
  167SAPE   H9Y18889   2.793   5.137   7.420  0.2762  0.3390 -0.5262
  167SAPE  C31018890   2.768   5.224   7.621  0.2758 -0.4260  0.2268
  167SAPE  H10X18891   2.788   5.124   7.663  0.8710  0.0422  1.0885
  167SAPE  H10Y18892   2.657   5.232   7.620  0.2804 -0.3862 -0.6077
  167SAPE  C31118893   2.828   5.321   7.721 -0.3169 -0.5923 -0.4273
  167SAPE  H11X18894   2.793   5.422   7.688  0.8228 -0.1233 -0.2443
  167SAPE  H11Y18895   2.938   5.311   7.714 -0.2945 -1.0211  0.4763
  167SAPE  C31218896   2.800   5.291   7.867  0.4695 -1.0723  0.6340
  167SAPE  H12X18897   2.857   5.373   7.918 -1.2631  0.5810  0.0062
  167SAPE  H12Y18898   2.819   5.186   7.896 -0.0478 -1.4983 -0.5257
  167SAPE  C31318899   2.657   5.312   7.911  0.0445  0.0934 -0.2984
  167SAPE  H13X18900   2.586   5.236   7.872 -0.4022  0.9773 -1.2452
  167SAPE  H13Y18901   2.629   5.418   7.902  0.2187  0.1861  0.2098
  167SAPE  C31418902   2.655   5.297   8.066 -0.4411 -0.1689 -0.3054
  167SAPE  H14X18903   2.712   5.212   8.109 -0.8674  0.6426  2.0395
  167SAPE  H14Y18904   2.552   5.266   8.094 -0.2339 -1.0814 -0.5184
  167SAPE  C31518905   2.681   5.430   8.146 -0.5719  0.3031 -0.4687
  167SAPE  H15X18906   2.595   5.494   8.117 -0.7503  0.8876  1.2572
  167SAPE  H15Y18907   2.778   5.468   8.105  0.7991 -0.0970  2.1609
  167SAPE  C31618908   2.671   5.417   8.292  0.1250  0.5935  0.0153
  167SAPE  H16X18909   2.739   5.344   8.341  0.8522  1.2571  0.0248
  167SAPE  H16Y18910   2.570   5.377   8.317 -0.7175  1.9167 -1.1371
  167SAPE  C31718911   2.709   5.538   8.370 -0.3596  0.3640 -0.3940
  167SAPE  H17X18912   2.808   5.579   8.341  0.2161  0.1824  1.1874
  167SAPE  H17Y18913   2.704   5.505   8.476 -0.8655 -2.3800 -1.2032
  167SAPE  C31818914   2.612   5.657   8.364 -0.6795  0.2036  0.4661
  167SAPE  H18X18915   2.510   5.618   8.386 -0.5096 -0.2392  0.4784
  167SAPE  H18Y18916   2.622   5.709   8.267 -0.1547 -0.1919  0.3030
  167SAPE  H18Z18917   2.637   5.722   8.451  1.2983 -0.4404  0.4341
  168SAPE     N18918   4.399   2.581   6.075 -0.7812  0.0061 -0.6747
  168SAPE   HN118919   4.468   2.654   6.103  0.5441 -1.8473  1.2325
  168SAPE   HN218920   4.363   2.545   6.166  1.1271  2.5314  1.2383
  168SAPE   HN318921   4.448   2.500   6.032  1.1222  1.0224 -0.5193
  168SAPE   C1218922   4.280   2.630   5.990  0.3036  0.0352 -0.1710
  168SAPE  H12A18923   4.318   2.639   5.886  0.9780 -1.3683 -0.0748
  168SAPE  H12B18924   4.251   2.730   6.027  0.5589 -0.4151  1.3494
  168SAPE   C1118925   4.173   2.522   5.977  1.0114  0.2018 -0.8868
  168SAPE  H11A18926   4.212   2.423   5.945 -1.5009 -1.0056 -0.4138
  168SAPE  H11B18927   4.090   2.548   5.908 -0.1437  0.8739  0.6949
  168SAPE     P18928   3.962   2.538   6.148 -0.0702  0.5155  0.2843
  168SAPE   O1318929   3.918   2.652   6.063 -0.3407  0.1278 -0.3361
  168SAPE   O1418930   3.888   2.406   6.147 -0.0801  0.0679  0.0432
  168SAPE   O1218931   4.111   2.503   6.105 -0.1509 -0.3923  0.1352
  168SAPE   O1118932   3.976   2.592   6.294  0.6415  0.2489  0.0178
  168SAPE    C118933   4.089   2.554   6.368  0.4212 -0.2445  0.4427
  168SAPE    HA18934   4.114   2.446   6.357 -0.4726 -0.2986 -1.4728
  168SAPE    HB18935   4.175   2.620   6.344 -0.1925  1.0692  1.6669
  168SAPE    C218936   4.066   2.574   6.519  0.7504 -0.0475  0.3024
  168SAPE    HS18937   4.156   2.554   6.580  0.5088  1.9187  1.3963
  168SAPE   O2118938   3.961   2.498   6.566 -0.4259  0.7842 -0.4934
  168SAPE   C2118939   3.990   2.365   6.582 -0.0169  0.1534 -0.2839
  168SAPE   O2218940   4.105   2.319   6.561  0.4671  0.2384  0.1785
  168SAPE   C2218941   3.869   2.280   6.620 -0.0427  0.1328  0.0983
  168SAPE   H2R18942   3.799   2.353   6.666 -1.3331 -0.3764 -0.9953
  168SAPE   H2S18943   3.820   2.247   6.526  0.9140  1.1506 -0.7933
  168SAPE    C318944   4.051   2.727   6.560  0.6865 -0.9204  0.9551
  168SAPE    HX18945   3.954   2.771   6.531  1.3373  0.4924  0.8137
  168SAPE    HY18946   4.127   2.774   6.494 -1.6491  0.6621 -0.7472
  168SAPE   O3118947   4.081   2.749   6.693 -0.6195 -0.2904  0.0011
  168SAPE   C3118948   3.976   2.730   6.768 -0.4203 -0.5220  0.4507
  168SAPE   O3218949   3.860   2.708   6.737 -0.7573 -0.6264  0.5798
  168SAPE   C3218950   4.024   2.738   6.910 -0.4892 -0.6150  0.0895
  168SAPE   H2X18951   4.083   2.832   6.918  0.9145 -1.0057 -3.6837
  168SAPE   H2Y18952   4.103   2.662   6.929  0.2267  0.4187  1.5062
  168SAPE   C2318953   3.908   2.159   6.709 -0.2624 -0.8330 -0.1272
  168SAPE   H3R18954   3.945   2.209   6.801  0.3523  0.7501 -1.2031
  168SAPE   H3S18955   3.993   2.102   6.665 -0.6492 -1.3461 -0.2244
  168SAPE   C2418956   3.791   2.072   6.763  0.0598 -0.9600  0.6426
  168SAPE   H4R18957   3.821   2.007   6.848  3.1814 -0.7094 -0.1555
  168SAPE   H4S18958   3.776   2.000   6.680  0.6282  1.3033 -1.5459
  168SAPE   C2518959   3.667   2.158   6.779 -0.7360 -0.1573 -0.6420
  168SAPE   H5R18960   3.624   2.189   6.683 -0.4187  1.4421 -0.3060
  168SAPE   C2618961   3.627   2.214   6.896 -0.0295  0.3739  0.3493
  168SAPE   H6R18962   3.532   2.269   6.901 -0.3420 -0.1123 -0.1788
  168SAPE   C2718963   3.698   2.208   7.030 -0.0848  0.1497 -0.2104
  168SAPE   H7R18964   3.801   2.169   7.017  0.2321  1.0101 -0.3415
  168SAPE   H7S18965   3.642   2.139   7.096  1.8256 -1.6100 -0.3368
  168SAPE   C2818966   3.723   2.341   7.106  0.1273  0.4734  0.8136
  168SAPE   H8R18967   3.799   2.402   7.057 -1.4467  0.5026 -1.8215
  168SAPE   C2918968   3.660   2.383   7.219  0.2430 -0.3219  0.8655
  168SAPE   H9R18969   3.669   2.490   7.245 -0.6085 -0.2328  0.8373
  168SAPE  C21018970   3.552   2.308   7.286 -0.2994 -0.3030  0.6554
  168SAPE  H10R18971   3.496   2.248   7.211 -0.5786 -0.5671  1.0717
  168SAPE  H10S18972   3.475   2.385   7.306 -0.6707  0.2786 -2.4707
  168SAPE  C21118973   3.600   2.235   7.407  0.7383  0.6700 -0.4780
  168SAPE  H11R18974   3.694   2.181   7.389  0.1165 -0.9714  0.9819
  168SAPE  C21218975   3.542   2.237   7.527  0.4501  0.2701 -0.0828
  168SAPE  H12R18976   3.590   2.183   7.610  2.3348  1.0528 -0.6170
  168SAPE  C21318977   3.417   2.312   7.556  0.4089  0.5217 -0.3306
  168SAPE  H13R18978   3.348   2.277   7.476  0.0689  0.9572 -0.2396
  168SAPE  H13S18979   3.427   2.422   7.542  1.4207  0.3498 -1.0218
  168SAPE  C21418980   3.354   2.280   7.691  0.1148 -0.3397 -0.2493
  168SAPE  H14R18981   3.277   2.201   7.686 -0.1962 -0.0541 -0.0453
  168SAPE  C21518982   3.395   2.302   7.816 -0.6328  0.1073  0.8314
  168SAPE  H15R18983   3.326   2.266   7.894 -2.5212  1.7328  0.0198
  168SAPE  C21618984   3.512   2.387   7.862 -0.4949  0.2015 -0.3866
  168SAPE  H16R18985   3.478   2.493   7.865 -0.8352  0.0817  0.2487
  168SAPE  H16S18986   3.593   2.387   7.786 -2.3828  1.0921 -2.5165
  168SAPE  C21718987   3.549   2.337   8.003  0.0828  0.3021  0.9106
  168SAPE  H17R18988   3.658   2.352   8.022  0.3482 -0.3995 -0.0010
  168SAPE  H17S18989   3.535   2.227   8.010  0.2531  0.1752 -0.4432
  168SAPE  C21818990   3.472   2.404   8.118 -0.6469  0.3448 -0.1178
  168SAPE  H18R18991   3.371   2.427   8.077 -0.7654  0.8424  0.4419
  168SAPE  H18S18992   3.524   2.500   8.139 -0.2028  0.1254 -0.1996
  168SAPE  C21918993   3.466   2.325   8.253 -0.3396  0.1300 -0.4713
  168SAPE  H19R18994   3.425   2.222   8.242  0.8225 -0.4005 -0.0495
  168SAPE  H19S18995   3.400   2.378   8.325  1.8735  2.5102 -0.0807
  168SAPE  C22018996   3.599   2.299   8.331 -0.0256 -0.7232 -0.3582
  168SAPE  H20R18997   3.681   2.266   8.264 -0.6929  3.0893 -3.4396
  168SAPE  H20S18998   3.582   2.229   8.415  1.3793  1.8694  2.2597
  168SAPE  H20T18999   3.640   2.394   8.372  1.4138 -1.3789 -0.2285
  168SAPE   C3319000   3.921   2.727   7.022 -0.1976  0.0447  0.2560
  168SAPE   H3X19001   3.861   2.636   7.004 -2.5223  1.7301 -1.0709
  168SAPE   H3Y19002   3.853   2.815   7.023 -2.3511 -1.5509  1.5317
  168SAPE   C3419003   3.974   2.707   7.164  0.3613  0.0950 -0.3694
  168SAPE   H4X19004   4.032   2.797   7.194  3.9530 -2.6256  1.6801
  168SAPE   H4Y19005   4.044   2.621   7.168 -0.1934 -0.4236 -1.5088
  168SAPE   C3519006   3.861   2.681   7.274  0.1665 -0.2859 -0.1947
  168SAPE   H5X19007   3.832   2.574   7.271  0.7396 -0.5452  2.1096
  168SAPE   H5Y19008   3.780   2.754   7.253  2.1714  1.7662 -1.3502
  168SAPE   C3619009   3.918   2.683   7.415 -0.6959 -0.0534  0.0371
  168SAPE   H6X19010   3.959   2.782   7.445 -1.6484  1.0719 -2.1163
  168SAPE   H6Y19011   3.998   2.606   7.418 -0.5446  0.1230  2.1374
  168SAPE   C3719012   3.813   2.645   7.527 -0.3214 -0.0734  0.9967
  168SAPE   H7X19013   3.792   2.536   7.520 -2.9194  0.1286  3.6562
  168SAPE   H7Y19014   3.717   2.700   7.521 -0.7835 -0.9478  0.0620
  168SAPE   C3819015   3.899   2.657   7.660 -0.4252  0.9563 -0.3476
  168SAPE   H8X19016   3.954   2.752   7.680 -1.0877  1.1437  0.7225
  168SAPE   H8Y19017   3.978   2.579   7.658 -1.1678  0.1722  0.0921
  168SAPE   C3919018   3.827   2.622   7.787  0.2668  0.2186 -0.0119
  168SAPE   H9X19019   3.769   2.527   7.792 -0.9497  0.9922  3.7719
  168SAPE   H9Y19020   3.750   2.701   7.802  0.1398 -0.2815  2.4218
  168SAPE  C31019021   3.928   2.633   7.906 -1.4580 -0.7479 -0.1830
  168SAPE  H10X19022   3.982   2.729   7.892  0.3003 -1.6029  0.3504
  168SAPE  H10Y19023   4.011   2.562   7.886  0.5078  0.7784  2.0983
  168SAPE  C31119024   3.871   2.623   8.046  0.0390 -0.6108 -0.1069
  168SAPE  H11X19025   3.781   2.558   8.047 -0.0351 -0.5119  0.6652
  168SAPE  H11Y19026   3.827   2.723   8.067 -0.0038 -0.5657 -0.4125
  168SAPE  C31219027   3.979   2.605   8.160  0.0129  0.0971 -0.2677
  168SAPE  H12X19028   4.067   2.670   8.142 -0.3754  0.9463  0.8249
  168SAPE  H12Y19029   4.031   2.507   8.150 -0.1070 -0.1015  0.8899
  168SAPE  C31319030   3.918   2.615   8.296 -0.5927  0.7024  0.1308
  168SAPE  H13X19031   3.819   2.565   8.294 -0.4640  0.4356 -1.5201
  168SAPE  H13Y19032   3.905   2.724   8.314 -0.4462  0.4367  1.9700
  168SAPE  C31419033   4.002   2.546   8.405 -0.5193 -0.4570  0.3632
  168SAPE  H14X19034   4.035   2.443   8.377 -0.2676 -0.5445  0.9735
  168SAPE  H14Y19035   3.927   2.542   8.487 -1.2074 -0.4501 -0.2475
  168SAPE  C31519036   4.116   2.635   8.451 -1.0119  0.1040  0.1541
  168SAPE  H15X19037   4.092   2.741   8.475  0.7099  0.2484  1.4647
  168SAPE  H15Y19038   4.183   2.639   8.362 -0.0290 -0.9514  0.8180
  168SAPE  C31619039   4.188   2.580   8.574 -0.7391  0.8378  0.8372
  168SAPE  H16X19040   4.226   2.478   8.551  0.3099  1.5710 -0.8058
  168SAPE  H16Y19041   4.116   2.577   8.658 -0.3758 -0.0700  1.1258
  168SAPE  C31719042   4.320   2.656   8.601  0.1901  0.0650 -0.2094
  168SAPE  H17X19043   4.354   2.624   8.701 -0.5697  1.9259  0.7019
  168SAPE  H17Y19044   4.292   2.763   8.603 -1.8605 -0.4024 -1.2434
  168SAPE  C31819045   4.436   2.639   8.503  0.0618  0.1716 -0.5103
  168SAPE  H18X19046   4.472   2.534   8.508 -0.1321  0.0665 -1.2023
  168SAPE  H18Y19047   4.518   2.703   8.543 -0.2254  0.6870 -0.7331
  168SAPE  H18Z19048   4.400   2.676   8.405  0.8762  1.2761 -0.4122
  169SAPE     N19049   1.886   2.761   6.221 -0.7729  0.9932 -0.3425
  169SAPE   HN119050   1.982   2.798   6.203 -0.2913  0.2963  0.6402
  169SAPE   HN219051   1.878   2.665   6.181  0.3456  1.3399 -1.4583
  169SAPE   HN319052   1.826   2.826   6.167  0.3910 -0.1927 -3.2359
  169SAPE   C1219053   1.863   2.761   6.370  0.2983  0.0368 -0.8945
  169SAPE  H12A19054   1.873   2.868   6.400 -1.5478 -0.2323  0.8774
  169SAPE  H12B19055   1.937   2.695   6.420  0.2879 -0.1167 -1.0850
  169SAPE   C1119056   1.714   2.718   6.394 -0.5975 -0.8795  0.6983
  169SAPE  H11A19057   1.700   2.701   6.503 -0.6458  1.7573  1.1567
  169SAPE  H11B19058   1.697   2.614   6.358 -1.6163 -0.6420  0.4867
  169SAPE     P19059   1.545   2.805   6.215  0.0856 -0.0420  0.0350
  169SAPE   O1319060   1.426   2.891   6.218 -0.0146 -0.0265  0.4231
  169SAPE   O1419061   1.646   2.836   6.108 -0.0265  0.8001 -0.5823
  169SAPE   O1219062   1.618   2.817   6.351  0.1084  0.5641  0.3847
  169SAPE   O1119063   1.518   2.651   6.209  0.3148  0.1636  0.4484
  169SAPE    C119064   1.381   2.596   6.231  0.8425 -0.6158  0.0679
  169SAPE    HA19065   1.305   2.664   6.187  1.0579 -0.3823  0.0555
  169SAPE    HB19066   1.371   2.502   6.172  0.8378 -1.1485  0.9085
  169SAPE    C219067   1.345   2.563   6.377  0.0937 -0.3385 -0.0573
  169SAPE    HS19068   1.253   2.501   6.380  0.5085 -1.1293 -1.8192
  169SAPE   O2119069   1.340   2.683   6.451  0.3022  0.0441 -0.6753
  169SAPE   C2119070   1.220   2.741   6.449  0.3240 -0.7194 -0.5269
  169SAPE   O2219071   1.121   2.696   6.392  0.0011 -0.2928 -0.0992
  169SAPE   C2219072   1.224   2.862   6.545 -0.1133 -0.1097  1.5364
  169SAPE   H2R19073   1.297   2.934   6.503 -0.4204 -1.7308 -2.1558
  169SAPE   H2S19074   1.125   2.912   6.537 -0.0091  0.1365  1.7680
  169SAPE    C319075   1.447   2.480   6.446  0.3050  0.4691 -0.1575
  169SAPE    HX19076   1.548   2.491   6.400 -0.1906  1.3383 -1.0736
  169SAPE    HY19077   1.430   2.378   6.405 -0.7175  0.9799 -1.0428
  169SAPE   O3119078   1.454   2.490   6.592 -0.5928 -0.2487 -0.1536
  169SAPE   C3119079   1.351   2.441   6.659 -0.1203  0.6068  0.2755
  169SAPE   O3219080   1.250   2.390   6.618  0.4091 -0.0096  0.1064
  169SAPE   C3219081   1.388   2.452   6.810  0.0894 -0.7540 -0.5784
  169SAPE   H2X19082   1.439   2.550   6.823 -0.7950 -0.5476  1.9233
  169SAPE   H2Y19083   1.475   2.383   6.819 -0.3009 -1.1071  0.7268
  169SAPE   C2319084   1.264   2.827   6.690  0.3392  0.3531  0.4458
  169SAPE   H3R19085   1.294   2.916   6.749 -1.3711 -0.8572  3.3437
  169SAPE   H3S19086   1.352   2.760   6.678  0.4185  0.8014 -1.9367
  169SAPE   C2419087   1.160   2.759   6.762 -0.5978  0.0704 -0.0281
  169SAPE   H4R19088   1.206   2.699   6.843 -1.5260 -0.5621  0.0422
  169SAPE   H4S19089   1.107   2.695   6.689  0.8866  1.3456 -2.3649
  169SAPE   C2519090   1.062   2.865   6.813 -0.6795  0.2256  0.0163
  169SAPE   H5R19091   1.013   2.921   6.732  0.5907  0.6095 -0.5014
  169SAPE   C2619092   1.020   2.884   6.940 -0.0412  0.4536 -0.5546
  169SAPE   H6R19093   0.949   2.964   6.964  0.1390  0.6802 -0.7702
  169SAPE   C2719094   1.080   2.799   7.053 -0.0258 -0.1739  0.4030
  169SAPE   H7R19095   1.075   2.856   7.149  1.4084  2.6664 -1.0870
  169SAPE   H7S19096   1.185   2.767   7.037  1.2306  1.5295  3.9542
  169SAPE   C2819097   0.998   2.672   7.072 -0.0265 -0.0879 -0.1150
  169SAPE   H8R19098   1.012   2.613   6.980  0.1227 -0.3442  0.0705
  169SAPE   C2919099   0.893   2.662   7.154 -0.9467 -0.1182  0.1804
  169SAPE   H9R19100   0.834   2.569   7.153  0.1338 -0.8191  0.5402
  169SAPE  C21019101   0.856   2.779   7.250 -0.2311 -0.2130 -0.1371
  169SAPE  H10R19102   0.839   2.872   7.192  0.4644 -1.4388 -2.4442
  169SAPE  H10S19103   0.931   2.789   7.331 -0.4262  0.2996 -0.0175
  169SAPE  C21119104   0.731   2.730   7.321 -0.3463 -0.4921 -0.4246
  169SAPE  H11R19105   0.635   2.758   7.275 -1.6531 -1.2935  1.6820
  169SAPE  C21219106   0.726   2.648   7.423  0.4458  0.6198 -0.6005
  169SAPE  H12R19107   0.632   2.621   7.474  2.1244 -1.3161  1.6798
  169SAPE  C21319108   0.842   2.594   7.513 -0.2374 -0.1964  0.2610
  169SAPE  H13R19109   0.845   2.657   7.605 -0.3859  0.0756  0.0812
  169SAPE  H13S19110   0.935   2.608   7.454 -0.9277  1.2287 -0.5617
  169SAPE  C21419111   0.833   2.447   7.557  0.5299  0.6403  1.0020
  169SAPE  H14R19112   0.889   2.382   7.489 -2.1199 -2.2053  1.3294
  169SAPE  C21519113   0.759   2.383   7.655 -0.0421  0.0216 -0.1543
  169SAPE  H15R19114   0.772   2.274   7.664 -1.8497 -0.3052 -0.9086
  169SAPE  C21619115   0.653   2.449   7.748 -0.7984  0.2088  0.6787
  169SAPE  H16R19116   0.655   2.560   7.744 -3.5439  0.3190  0.1967
  169SAPE  H16S19117   0.678   2.432   7.855 -1.3623 -1.3162  0.5941
  169SAPE  C21719118   0.514   2.395   7.732  0.7251  0.3811 -0.5596
  169SAPE  H17R19119   0.468   2.406   7.631  0.3845  1.2165 -0.3186
  169SAPE  H17S19120   0.450   2.451   7.803  2.3984 -0.6806  1.9159
  169SAPE  C21819121   0.498   2.257   7.790 -0.8442  0.2142 -0.3072
  169SAPE  H18R19122   0.603   2.220   7.794 -0.4854  0.9518 -2.1398
  169SAPE  H18S19123   0.447   2.189   7.719  1.4204 -1.9877  0.0051
  169SAPE  C21919124   0.423   2.241   7.925  0.2370 -0.2919 -0.3080
  169SAPE  H19R19125   0.394   2.135   7.937  0.3513 -0.1577  1.2854
  169SAPE  H19S19126   0.333   2.306   7.919 -1.3166 -2.4424 -2.8046
  169SAPE  C22019127   0.501   2.296   8.040 -0.4728  0.4874  0.5072
  169SAPE  H20R19128   0.512   2.406   8.041  2.8999  0.2983  2.3181
  169SAPE  H20S19129   0.604   2.255   8.029 -2.0382 -3.3398 -1.9862
  169SAPE  H20T19130   0.459   2.251   8.133 -1.4571 -0.8044 -0.5394
  169SAPE   C3319131   1.278   2.414   6.911  0.4795 -0.0449  0.5732
  169SAPE   H3X19132   1.216   2.327   6.881  1.6821 -0.3410 -1.2253
  169SAPE   H3Y19133   1.200   2.493   6.915 -0.9959 -1.2796 -1.7372
  169SAPE   C3419134   1.328   2.389   7.051  0.4879  0.0346  0.2247
  169SAPE   H4X19135   1.408   2.464   7.068  0.1365  0.6120 -0.6323
  169SAPE   H4Y19136   1.368   2.285   7.049  0.1978 -0.2282  3.2341
  169SAPE   C3519137   1.221   2.399   7.158 -1.0965 -0.4873 -0.7832
  169SAPE   H5X19138   1.150   2.314   7.148 -0.3469 -0.9795 -2.2327
  169SAPE   H5Y19139   1.157   2.489   7.145 -2.0398 -1.0199 -0.0030
  169SAPE   C3619140   1.280   2.384   7.302  0.2479  0.1917  0.2375
  169SAPE   H6X19141   1.328   2.481   7.325  0.5553  0.7878 -2.5488
  169SAPE   H6Y19142   1.343   2.292   7.301 -0.1141 -0.1053 -2.0150
  169SAPE   C3719143   1.177   2.371   7.407 -0.2391 -0.0182 -0.2232
  169SAPE   H7X19144   1.111   2.284   7.385  2.5871 -2.1500 -0.7490
  169SAPE   H7Y19145   1.110   2.459   7.390 -1.4621 -1.1442 -1.4523
  169SAPE   C3819146   1.231   2.355   7.546  0.4577  0.5726  0.1920
  169SAPE   H8X19147   1.298   2.267   7.542  0.7760  0.8398 -1.8809
  169SAPE   H8Y19148   1.142   2.344   7.611  1.3170  0.2842  1.3470
  169SAPE   C3919149   1.285   2.493   7.596 -0.5160  0.1739 -0.6254
  169SAPE   H9X19150   1.210   2.573   7.579  0.4988  0.7780 -2.5288
  169SAPE   H9Y19151   1.369   2.526   7.531 -0.7907  0.6671 -0.7329
  169SAPE  C31019152   1.313   2.497   7.750 -0.1705 -0.0942  0.1530
  169SAPE  H10X19153   1.392   2.421   7.764  1.6701  1.8701  0.9733
  169SAPE  H10Y19154   1.216   2.480   7.804 -0.6580  1.4198 -0.2061
  169SAPE  C31119155   1.370   2.628   7.800 -0.9890 -0.1726  0.2024
  169SAPE  H11X19156   1.310   2.721   7.793  1.1403  1.1816 -1.8041
  169SAPE  H11Y19157   1.470   2.637   7.751 -0.6805 -1.4931  0.5611
  169SAPE  C31219158   1.394   2.616   7.955 -0.0979  0.2335 -0.2928
  169SAPE  H12X19159   1.469   2.534   7.957  0.4314  0.4917 -3.4963
  169SAPE  H12Y19160   1.297   2.577   7.992 -0.2109 -0.9348 -1.7196
  169SAPE  C31319161   1.440   2.744   8.025  0.0406 -0.1321  0.3578
  169SAPE  H13X19162   1.379   2.770   8.115 -2.3707 -2.0769 -0.5760
  169SAPE  H13Y19163   1.429   2.834   7.961  3.7436  0.1372 -0.1066
  169SAPE  C31419164   1.587   2.732   8.053 -0.6119  0.1007 -0.6956
  169SAPE  H14X19165   1.634   2.694   7.960 -0.7577  0.3096 -0.8552
  169SAPE  H14Y19166   1.600   2.653   8.130  2.6555  2.5683  1.5631
  169SAPE  C31519167   1.635   2.859   8.112  0.0865  0.2099 -0.1610
  169SAPE  H15X19168   1.565   2.881   8.196 -1.9392 -1.4859 -1.3141
  169SAPE  H15Y19169   1.638   2.940   8.036 -0.3136  0.8062  0.4515
  169SAPE  C31619170   1.784   2.845   8.155  0.1333  0.5200  0.2524
  169SAPE  H16X19171   1.822   2.943   8.190 -3.7271  2.1271  0.4395
  169SAPE  H16Y19172   1.841   2.804   8.070 -2.8109 -0.5664 -1.3364
  169SAPE  C31719173   1.820   2.752   8.276  0.2746 -0.3438  0.6318
  169SAPE  H17X19174   1.931   2.756   8.280  0.2241  0.9855  1.2826
  169SAPE  H17Y19175   1.785   2.650   8.250  0.5222 -0.7716  1.9473
  169SAPE  C31819176   1.767   2.789   8.409  0.4211  0.1515 -0.7451
  169SAPE  H18X19177   1.808   2.878   8.461 -1.2739 -1.0118  2.8760
  169SAPE  H18Y19178   1.798   2.700   8.467  1.5134 -0.2671 -1.9053
  169SAPE  H18Z19179   1.657   2.785   8.420  0.5962 -1.8213  1.0196
  170SAPE     N19180   4.152   0.063   5.777 -0.5508  0.3058  0.0301
  170SAPE   HN119181   4.049   0.064   5.771 -0.8773  0.2070  3.4898
  170SAPE   HN219182   4.196   0.097   5.690 -0.7401 -0.2594 -0.2917
  170SAPE   HN319183   4.171  -0.039   5.788  0.4302  0.6006  1.5581
  170SAPE   C1219184   4.175   0.148   5.899  0.0009 -0.0427 -0.3112
  170SAPE  H12A19185   4.147   0.250   5.868  1.0242 -0.5112 -3.1241
  170SAPE  H12B19186   4.284   0.154   5.923 -0.5635  2.3104  2.0977
  170SAPE   C1119187   4.094   0.105   6.018  0.4008 -0.0943  0.5163
  170SAPE  H11A19188   4.114   0.174   6.103 -1.0449  1.3894 -0.2815
  170SAPE  H11B19189   4.123   0.003   6.052 -1.2973 -0.8122 -0.0656
  170SAPE     P19190   3.859   0.222   6.018  0.1431 -0.3047 -0.1532
  170SAPE   O1319191   3.909   0.344   5.946 -0.3116  0.0050  0.1845
  170SAPE   O1419192   3.724   0.185   5.976  0.5816 -0.3419  0.7768
  170SAPE   O1219193   3.950   0.098   5.993  0.2748  0.5390  0.1578
  170SAPE   O1119194   3.865   0.254   6.169  0.3309 -0.2968 -0.1084
  170SAPE    C119195   3.908   0.156   6.265  0.1402  0.1120  1.1899
  170SAPE    HA19196   3.894   0.050   6.237  0.0183  0.2263  0.8092
  170SAPE    HB19197   4.014   0.169   6.293  0.2491  0.2634  0.7106
  170SAPE    C219198   3.829   0.166   6.409 -0.8178  0.3730 -0.0468
  170SAPE    HS19199   3.721   0.144   6.391 -0.5673 -1.2418  0.2609
  170SAPE   O2119200   3.840   0.293   6.476 -0.0586 -0.4122  0.3340
  170SAPE   C2119201   3.764   0.312   6.575  0.2966 -0.3514 -0.3304
  170SAPE   O2219202   3.662   0.243   6.602 -0.6394  0.4035 -0.3016
  170SAPE   C2219203   3.797   0.450   6.638 -0.2860 -0.1764 -1.2586
  170SAPE   H2R19204   3.781   0.526   6.559 -1.2163  0.4522 -0.4893
  170SAPE   H2S19205   3.722   0.473   6.716 -0.7364  5.7816 -2.9861
  170SAPE    C319206   3.888   0.047   6.494  0.5724 -0.2920 -0.8901
  170SAPE    HX19207   3.986   0.080   6.535 -0.0983  0.9365 -0.2279
  170SAPE    HY19208   3.909  -0.037   6.424 -0.0472  0.1336 -1.6091
  170SAPE   O3119209   3.807   0.014   6.607  0.4829  0.2269 -0.5188
  170SAPE   C3119210   3.714  -0.083   6.576 -0.4999 -0.2023  1.1921
  170SAPE   O3219211   3.707  -0.137   6.467 -0.0478 -0.0239  0.0540
  170SAPE   C3219212   3.643  -0.124   6.703  0.1828 -0.5495 -0.7775
  170SAPE   H2X19213   3.615  -0.231   6.700 -0.7649 -0.2862 -1.9093
  170SAPE   H2Y19214   3.547  -0.069   6.702 -0.2684 -1.3263 -1.8370
  170SAPE   C2319215   3.946   0.458   6.688  0.1632  0.1638 -1.2555
  170SAPE   H3R19216   3.955   0.564   6.720  1.1484  0.6095 -2.9142
  170SAPE   H3S19217   4.029   0.443   6.616  0.2128  0.4451 -1.2570
  170SAPE   C2419218   3.976   0.367   6.816 -0.6184  0.3778  0.6407
  170SAPE   H4R19219   3.964   0.263   6.778  1.5252  0.1347  0.5159
  170SAPE   H4S19220   3.897   0.384   6.892  0.1608 -2.1642  2.1298
  170SAPE   C2519221   4.113   0.390   6.886 -0.1493 -0.1172  0.5283
  170SAPE   H5R19222   4.196   0.430   6.826  0.6778 -0.5661  1.3276
  170SAPE   C2619223   4.130   0.350   7.012 -0.0214  0.4606 -0.3166
  170SAPE   H6R19224   4.226   0.370   7.062 -0.0167  1.5602 -0.7320
  170SAPE   C2719225   4.023   0.285   7.101 -0.5670  0.2498  0.0491
  170SAPE   H7R19226   4.061   0.187   7.139 -0.3884  0.2095 -0.2252
  170SAPE   H7S19227   3.934   0.252   7.043 -1.6056  2.6756  0.1759
  170SAPE   C2819228   3.962   0.371   7.207  0.5786  0.9965  0.2492
  170SAPE   H8R19229   3.904   0.458   7.174 -1.4308 -0.6364 -0.7132
  170SAPE   C2919230   3.978   0.345   7.340  0.1025 -0.2069 -0.5967
  170SAPE   H9R19231   3.915   0.400   7.412  0.1665  0.3560 -0.9667
  170SAPE  C21019232   4.057   0.234   7.403 -0.8944  0.9136  0.3308
  170SAPE  H10R19233   4.164   0.234   7.370 -0.6076  0.3170  1.2217
  170SAPE  H10S19234   4.010   0.139   7.367 -0.1595  1.5755 -2.6887
  170SAPE  C21119235   4.066   0.238   7.554  0.2209  0.4090 -0.1285
  170SAPE  H11R19236   4.103   0.336   7.588  1.2140 -0.0015 -0.0051
  170SAPE  C21219237   4.048   0.135   7.642  0.3773  0.4710  1.0437
  170SAPE  H12R19238   4.051   0.154   7.750 -0.5594  0.8342  1.0161
  170SAPE  C21319239   4.008  -0.008   7.600 -0.4695 -0.0252  0.4012
  170SAPE  H13R19240   4.081  -0.080   7.644  0.8684  0.1781 -1.3816
  170SAPE  H13S19241   4.015  -0.013   7.489 -2.3878  2.1101  0.1174
  170SAPE  C21419242   3.874  -0.043   7.659  0.1346  0.0306  0.3515
  170SAPE  H14R19243   3.788  -0.008   7.599 -1.8287 -1.5512  2.0869
  170SAPE  C21519244   3.849  -0.133   7.760 -0.3647 -0.1526  0.6504
  170SAPE  H15R19245   3.746  -0.153   7.793 -1.1009  1.5493 -0.4579
  170SAPE  C21619246   3.949  -0.208   7.841 -0.1312  0.2179  0.2855
  170SAPE  H16R19247   4.052  -0.210   7.799 -0.0098 -0.2677  0.5893
  170SAPE  H16S19248   3.913  -0.313   7.839 -0.4924  0.3185  1.0185
  170SAPE  C21719249   3.947  -0.180   7.998  0.7290 -0.1587  1.2529
  170SAPE  H17R19250   4.000  -0.258   8.055  2.3466  1.5395  2.1929
  170SAPE  H17S19251   3.842  -0.168   8.030 -0.2074  0.9557 -1.8273
  170SAPE  C21819252   4.013  -0.038   8.022  0.0817  0.1206 -0.1231
  170SAPE  H18R19253   3.990   0.034   7.941  1.8941  1.0626  0.1743
  170SAPE  H18S19254   4.123  -0.045   8.029 -0.0187 -1.6096  0.3909
  170SAPE  C21919255   3.971   0.031   8.153  0.5585 -0.1025  0.3529
  170SAPE  H19R19256   3.995  -0.031   8.242  0.7614  2.0225  1.8487
  170SAPE  H19S19257   3.861   0.050   8.160  0.2868 -1.8975  1.8222
  170SAPE  C22019258   4.043   0.165   8.163 -0.6548 -0.2550  0.2230
  170SAPE  H20R19259   3.999   0.241   8.231  1.7826  1.1317  0.3584
  170SAPE  H20S19260   4.042   0.213   8.063  0.6611 -2.3777 -0.8914
  170SAPE  H20T19261   4.149   0.147   8.189 -0.6539 -1.4791 -0.5611
  170SAPE   C3319262   3.727  -0.089   6.826 -0.8097  0.1796 -0.1054
  170SAPE   H3X19263   3.748   0.019   6.840  1.5800 -0.0531 -1.3704
  170SAPE   H3Y19264   3.831  -0.129   6.830 -1.0605 -0.7813 -2.0595
  170SAPE   C3419265   3.659  -0.135   6.956  0.1441  0.9388 -0.3214
  170SAPE   H4X19266   3.638  -0.243   6.947  0.5423  1.0033 -2.6726
  170SAPE   H4Y19267   3.555  -0.098   6.968 -1.3034 -2.6606 -0.4591
  170SAPE   C3519268   3.741  -0.106   7.082  0.0993 -0.1938 -0.2647
  170SAPE   H5X19269   3.763   0.003   7.074 -1.4868  0.2905  1.2334
  170SAPE   H5Y19270   3.834  -0.166   7.071 -0.4658 -1.1746  0.1881
  170SAPE   C3619271   3.672  -0.134   7.215  0.0264 -0.1545 -0.0827
  170SAPE   H6X19272   3.578  -0.177   7.175  1.7766  0.1265 -5.1038
  170SAPE   H6Y19273   3.647  -0.040   7.270 -1.5244 -1.6716  1.9983
  170SAPE   C3719274   3.746  -0.228   7.301  0.3396  0.2761  0.1860
  170SAPE   H7X19275   3.843  -0.188   7.337  0.7466 -1.8052  1.5905
  170SAPE   H7Y19276   3.776  -0.313   7.236  0.2577 -2.2301  3.1818
  170SAPE   C3819277   3.667  -0.267   7.429  0.0225  0.2137 -0.5357
  170SAPE   H8X19278   3.570  -0.298   7.385 -0.0506  0.0283 -0.2488
  170SAPE   H8Y19279   3.637  -0.186   7.499  0.2402  0.1366 -0.3528
  170SAPE   C3919280   3.737  -0.381   7.504 -0.6324  0.0415  1.3535
  170SAPE   H9X19281   3.841  -0.351   7.531 -0.0556 -1.3347  0.7819
  170SAPE   H9Y19282   3.756  -0.459   7.427  2.8922  0.2743  1.8357
  170SAPE  C31019283   3.659  -0.440   7.626 -0.4568 -0.3322 -0.2920
  170SAPE  H10X19284   3.561  -0.479   7.591 -1.9110  0.5385  2.5225
  170SAPE  H10Y19285   3.649  -0.363   7.705 -0.4427  1.0448 -1.5958
  170SAPE  C31119286   3.741  -0.559   7.689 -0.0922 -0.3147 -0.1007
  170SAPE  H11X19287   3.839  -0.515   7.715  1.8112 -3.2325 -1.7997
  170SAPE  H11Y19288   3.764  -0.641   7.618 -1.4849 -1.9774  1.2985
  170SAPE  C31219289   3.678  -0.607   7.817 -0.6343 -0.1100 -0.8814
  170SAPE  H12X19290   3.722  -0.702   7.854  0.2505  1.6012  2.8733
  170SAPE  H12Y19291   3.568  -0.616   7.811 -0.8987  0.5815  1.8721
  170SAPE  C31319292   3.712  -0.505   7.929 -0.3403  0.0190 -0.3536
  170SAPE  H13X19293   3.668  -0.403   7.927  0.2015  0.2512 -1.4248
  170SAPE  H13Y19294   3.821  -0.484   7.915  0.4822 -1.5989  2.8077
  170SAPE  C31419295   3.679  -0.573   8.065  0.6294  0.7164 -0.9431
  170SAPE  H14X19296   3.727  -0.672   8.074 -4.1636 -1.7139  1.7862
  170SAPE  H14Y19297   3.568  -0.583   8.061  0.7092 -0.5987 -0.2847
  170SAPE  C31519298   3.714  -0.489   8.193 -0.6277 -0.3377  0.3990
  170SAPE  H15X19299   3.662  -0.529   8.283 -0.0620  0.5964  1.1679
  170SAPE  H15Y19300   3.694  -0.380   8.186  3.4232  0.4743 -0.8660
  170SAPE  C31619301   3.869  -0.493   8.224  1.1503  0.0671  0.2319
  170SAPE  H16X19302   3.919  -0.422   8.154 -0.7485  1.2050 -0.0502
  170SAPE  H16Y19303   3.902  -0.598   8.212 -0.7611 -0.7903  1.7848
  170SAPE  C31719304   3.895  -0.453   8.369 -0.1563  0.6498 -0.4003
  170SAPE  H17X19305   4.004  -0.436   8.384 -0.0592  0.8758 -1.3027
  170SAPE  H17Y19306   3.854  -0.530   8.436 -0.6620  0.7571 -0.5796
  170SAPE  C31819307   3.825  -0.315   8.410 -1.2909 -0.1210 -0.6680
  170SAPE  H18X19308   3.837  -0.295   8.519  1.8100  0.3202 -0.9923
  170SAPE  H18Y19309   3.715  -0.317   8.395 -1.1260  0.8476 -2.1927
  170SAPE  H18Z19310   3.872  -0.228   8.358  0.3197 -0.6184 -0.1078
  171SAPE     N19311   0.968   1.016   6.239  0.2190  0.1819  0.2610
  171SAPE   HN119312   1.015   0.929   6.272  0.3036 -0.2082 -0.8756
  171SAPE   HN219313   0.879   1.023   6.292  0.3221 -1.7341  0.7834
  171SAPE   HN319314   0.929   0.993   6.146 -0.8540  1.5728  0.3424
  171SAPE   C1219315   1.045   1.142   6.230  0.8127 -0.2189 -0.6291
  171SAPE  H12A19316   1.148   1.117   6.195  0.7184  0.2147 -1.2299
  171SAPE  H12B19317   1.058   1.190   6.329 -1.4456 -0.4743 -0.1620
  171SAPE   C1119318   0.965   1.253   6.152  0.6755  0.2223  0.5624
  171SAPE  H11A19319   0.966   1.221   6.045  1.5308  2.5210 -0.1720
  171SAPE  H11B19320   1.029   1.343   6.142  1.7314 -0.3966  1.5847
  171SAPE     P19321   0.809   1.367   6.326 -0.1908  0.0487  0.0130
  171SAPE   O1319322   0.664   1.393   6.343 -0.2248  0.5695  0.1016
  171SAPE   O1419323   0.878   1.316   6.447 -0.5774  0.3159 -0.4407
  171SAPE   O1219324   0.831   1.274   6.197  0.3741  0.4091  0.7766
  171SAPE   O1119325   0.869   1.504   6.285 -0.4548 -0.0358  0.1596
  171SAPE    C119326   0.996   1.553   6.340 -0.0855  0.2343  0.7733
  171SAPE    HA19327   1.069   1.476   6.373 -0.1763  0.7500  2.2557
  171SAPE    HB19328   1.041   1.605   6.252 -1.4812 -2.1077 -1.4699
  171SAPE    C219329   0.983   1.649   6.459 -0.1843  0.2469 -0.2497
  171SAPE    HS19330   1.081   1.695   6.485 -0.8666  3.4722 -2.6272
  171SAPE   O2119331   0.931   1.595   6.586 -0.1140  0.4082  0.4104
  171SAPE   C2119332   1.008   1.507   6.652  0.0137 -0.3201 -0.0231
  171SAPE   O2219333   1.125   1.486   6.629  0.2197 -0.5689  0.0775
  171SAPE   C2219334   0.937   1.453   6.770 -0.0982  0.7474  0.1731
  171SAPE   H2R19335   0.862   1.524   6.809  0.9138  0.9872  1.7950
  171SAPE   H2S19336   0.894   1.356   6.736 -0.0600  0.8795 -0.2526
  171SAPE    C319337   0.887   1.763   6.414 -0.0174 -0.5284  0.5063
  171SAPE    HX19338   0.785   1.726   6.391 -0.3730  0.4906  0.3836
  171SAPE    HY19339   0.927   1.811   6.323 -0.6351 -0.9763 -0.0144
  171SAPE   O3119340   0.885   1.863   6.519  0.9102 -0.5730 -0.2113
  171SAPE   C3119341   0.778   1.864   6.597  0.8489  0.0677 -0.5269
  171SAPE   O3219342   0.691   1.775   6.595 -0.0899 -0.0260  0.1128
  171SAPE   C3219343   0.780   1.978   6.695 -0.2632 -0.0580  0.4407
  171SAPE   H2X19344   0.733   2.070   6.654  1.9448  1.7659  1.7321
  171SAPE   H2Y19345   0.885   2.013   6.708 -1.0543  2.8129 -0.0878
  171SAPE   C2319346   1.039   1.424   6.880 -0.5034  0.6780 -0.4713
  171SAPE   H3R19347   1.099   1.509   6.918  1.1554 -0.1558 -1.1341
  171SAPE   H3S19348   1.112   1.345   6.851 -0.0287  0.7317  0.5069
  171SAPE   C2419349   0.978   1.369   7.009  0.6032 -0.0491  0.5691
  171SAPE   H4R19350   0.900   1.440   7.044  0.6994  0.2158  0.2568
  171SAPE   H4S19351   1.049   1.352   7.093 -1.7940 -2.6104  2.2199
  171SAPE   C2519352   0.915   1.234   6.986  0.4789  0.0062 -0.0159
  171SAPE   H5R19353   0.907   1.202   6.881  1.6286 -0.4134  0.0053
  171SAPE   C2619354   0.864   1.152   7.082 -0.5402 -0.0026 -0.0362
  171SAPE   H6R19355   0.807   1.064   7.048 -0.9032 -0.0197  0.5831
  171SAPE   C2719356   0.858   1.172   7.229 -0.4930 -0.2265 -0.0427
  171SAPE   H7R19357   0.757   1.145   7.268  0.5564 -0.5909  2.5766
  171SAPE   H7S19358   0.862   1.281   7.251 -4.2884 -0.1999  1.3028
  171SAPE   C2819359   0.960   1.108   7.323  0.2069  0.4298 -0.4161
  171SAPE   H8R19360   1.064   1.108   7.286 -0.2117 -0.0306 -1.6338
  171SAPE   C2919361   0.936   1.040   7.442  0.4413  0.6116 -0.5562
  171SAPE   H9R19362   1.019   0.996   7.500 -0.3282  0.3577  0.3805
  171SAPE  C21019363   0.805   1.016   7.508  0.0732 -0.3268  0.2084
  171SAPE  H10R19364   0.719   1.058   7.452  0.3950 -0.3037 -0.2749
  171SAPE  H10S19365   0.798   1.058   7.611  0.5407 -0.0752  0.1385
  171SAPE  C21119366   0.770   0.873   7.512 -0.2691 -0.4962  0.5572
  171SAPE  H11R19367   0.785   0.825   7.414  2.5991  1.1430  0.0716
  171SAPE  C21219368   0.751   0.787   7.618  0.2068 -0.3599 -0.0093
  171SAPE  H12R19369   0.731   0.681   7.601 -0.5469  0.0277 -1.7395
  171SAPE  C21319370   0.749   0.836   7.767 -0.7644 -0.4027 -0.3581
  171SAPE  H13R19371   0.656   0.793   7.809 -0.3216 -1.2421 -0.2077
  171SAPE  H13S19372   0.756   0.945   7.784  2.6668 -0.5839  0.0181
  171SAPE  C21419373   0.863   0.767   7.837  0.5739  0.0073  0.0487
  171SAPE  H14R19374   0.840   0.663   7.867  1.9771 -0.0492  0.9997
  171SAPE  C21519375   0.986   0.814   7.862  0.1769  0.1275 -0.2693
  171SAPE  H15R19376   1.053   0.753   7.925  2.3779  0.4474 -2.1492
  171SAPE  C21619377   1.040   0.950   7.817 -0.0684  0.0509  0.0171
  171SAPE  H16R19378   0.971   1.024   7.772 -0.8026 -0.7128 -0.1362
  171SAPE  H16S19379   1.125   0.926   7.748  0.4284  3.0438 -0.5693
  171SAPE  C21719380   1.098   1.007   7.944 -0.0964 -0.5053 -0.1586
  171SAPE  H17R19381   1.169   0.934   7.988  0.7626 -1.6160 -3.1530
  171SAPE  H17S19382   1.017   1.027   8.018  1.1554  1.9297  0.6880
  171SAPE  C21819383   1.159   1.141   7.903 -0.4662  0.1104  0.4905
  171SAPE  H18R19384   1.080   1.209   7.866 -0.4075 -0.4761 -0.7377
  171SAPE  H18S19385   1.234   1.116   7.825 -0.9757 -0.4117  0.1597
  171SAPE  C21919386   1.227   1.211   8.018  0.0974 -0.1393  0.4428
  171SAPE  H19R19387   1.262   1.300   7.963 -0.3910 -0.6454 -0.7060
  171SAPE  H19S19388   1.311   1.161   8.071  1.0758 -0.1470 -1.0702
  171SAPE  C22019389   1.125   1.262   8.117  0.0307  0.4572  0.0651
  171SAPE  H20R19390   1.082   1.187   8.187  0.4790  0.9987  0.9454
  171SAPE  H20S19391   1.038   1.313   8.069 -0.6615  0.2348  1.0540
  171SAPE  H20T19392   1.173   1.345   8.173  1.1371 -0.8691  1.1256
  171SAPE   C3319393   0.719   1.936   6.830  0.0828  0.1050  0.0688
  171SAPE   H3X19394   0.610   1.921   6.814 -0.2340  2.7797 -0.8275
  171SAPE   H3Y19395   0.734   2.032   6.884 -3.4370  2.3782 -2.4864
  171SAPE   C3419396   0.788   1.820   6.898  0.6577 -0.5546  0.1902
  171SAPE   H4X19397   0.898   1.838   6.900  1.1397 -2.6446 -2.2785
  171SAPE   H4Y19398   0.765   1.724   6.846 -0.4047 -1.9417  3.0027
  171SAPE   C3519399   0.747   1.805   7.050  0.0355 -0.1652 -0.0846
  171SAPE   H5X19400   0.638   1.818   7.034  0.2512 -0.1728 -1.7127
  171SAPE   H5Y19401   0.790   1.891   7.105  0.1746  0.9913 -1.9034
  171SAPE   C3619402   0.775   1.670   7.105  0.0302  0.1185 -0.5543
  171SAPE   H6X19403   0.882   1.649   7.130  0.3430  2.4677  0.3064
  171SAPE   H6Y19404   0.731   1.580   7.058 -0.8428  0.1568  0.1632
  171SAPE   C3719405   0.719   1.656   7.252 -0.7006 -0.4973  0.2627
  171SAPE   H7X19406   0.608   1.662   7.251 -0.7031 -0.4172 -1.0781
  171SAPE   H7Y19407   0.772   1.735   7.310  1.3094 -1.8654  0.3766
  171SAPE   C3819408   0.756   1.517   7.321  0.0444 -0.4632  0.4478
  171SAPE   H8X19409   0.866   1.506   7.308 -0.1123 -1.2497 -0.3305
  171SAPE   H8Y19410   0.707   1.437   7.262  0.0530  1.2196 -2.0146
  171SAPE   C3919411   0.731   1.525   7.469  0.0708 -0.2525 -0.5613
  171SAPE   H9X19412   0.625   1.543   7.498  0.1428 -1.2630  0.4125
  171SAPE   H9Y19413   0.797   1.603   7.512 -0.7139  0.1101  0.0229
  171SAPE  C31019414   0.773   1.398   7.541  1.1965 -0.0171  0.2977
  171SAPE  H10X19415   0.871   1.353   7.518  1.0451 -0.9233  1.3607
  171SAPE  H10Y19416   0.691   1.327   7.518 -1.7250  3.1382 -0.0158
  171SAPE  C31119417   0.779   1.421   7.696  0.6163 -0.5061 -0.3645
  171SAPE  H11X19418   0.688   1.474   7.732  0.8649  0.1636 -0.7125
  171SAPE  H11Y19419   0.868   1.484   7.715  0.0948 -0.0864  0.7853
  171SAPE  C31219420   0.791   1.297   7.771 -0.3073  0.4208  0.4461
  171SAPE  H12X19421   0.888   1.246   7.751  0.1652  1.4524  0.0195
  171SAPE  H12Y19422   0.718   1.229   7.722 -0.2893 -0.9934  2.2776
  171SAPE  C31319423   0.758   1.300   7.918  0.4613  0.0991 -0.1408
  171SAPE  H13X19424   0.827   1.233   7.974 -0.0364 -2.1835 -2.0868
  171SAPE  H13Y19425   0.654   1.261   7.932  0.6147 -0.6088 -0.8830
  171SAPE  C31419426   0.761   1.445   7.981 -0.0030 -0.0350  0.2499
  171SAPE  H14X19427   0.676   1.506   7.943  1.0241  0.9755 -0.4703
  171SAPE  H14Y19428   0.853   1.505   7.968 -1.8768  3.3579  1.3676
  171SAPE  C31519429   0.743   1.433   8.129  0.8778 -0.6873  0.6648
  171SAPE  H15X19430   0.796   1.337   8.147  1.8260 -0.6800 -1.6235
  171SAPE  H15Y19431   0.636   1.431   8.158  0.6149  1.2924 -0.0258
  171SAPE  C31619432   0.803   1.555   8.191  0.0831  0.4475  0.1618
  171SAPE  H16X19433   0.755   1.648   8.153 -0.6220  0.2821  0.6231
  171SAPE  H16Y19434   0.909   1.558   8.157  0.0672 -0.0388  0.0492
  171SAPE  C31719435   0.800   1.562   8.346 -0.0957 -0.2532  0.1588
  171SAPE  H17X19436   0.695   1.557   8.384 -0.3009 -0.4274 -0.4138
  171SAPE  H17Y19437   0.850   1.659   8.369  0.7752 -0.7315  0.3142
  171SAPE  C31819438   0.888   1.458   8.407  0.2731  0.7626  0.3415
  171SAPE  H18X19439   0.993   1.450   8.371  0.1423 -1.9948  0.3166
  171SAPE  H18Y19440   0.855   1.355   8.381  1.7751 -0.4688  2.9471
  171SAPE  H18Z19441   0.890   1.478   8.517 -1.5876  1.8895  0.2219
  172SAPE     N19442   3.748   5.684   6.117  0.1021  0.2390  0.5432
  172SAPE   HN119443   3.815   5.644   6.048  0.8997  0.9680  0.8772
  172SAPE   HN219444   3.802   5.716   6.200 -0.3124  1.7359  0.2684
  172SAPE   HN319445   3.680   5.610   6.146  1.8544 -1.3475  0.7976
  172SAPE   C1219446   3.683   5.807   6.060 -0.0950 -0.4568  0.0688
  172SAPE  H12A19447   3.744   5.842   5.974 -1.6715 -2.4239 -1.9485
  172SAPE  H12B19448   3.687   5.888   6.137  0.9215 -1.2195  0.8574
  172SAPE   C1119449   3.541   5.803   6.013  0.1621 -0.8981 -0.3150
  172SAPE  H11A19450   3.543   5.747   5.917  0.7300 -1.7433  0.1745
  172SAPE  H11B19451   3.502   5.906   5.997  0.1136 -0.6981  0.9954
  172SAPE     P19452   3.346   5.798   6.193 -0.0039 -0.2700  0.7801
  172SAPE   O1319453   3.273   5.893   6.100  0.3495  0.7822 -0.5649
  172SAPE   O1419454   3.273   5.702   6.271  0.8266  0.4441  0.1589
  172SAPE   O1219455   3.457   5.726   6.112 -0.2162 -0.1202 -0.5958
  172SAPE   O1119456   3.428   5.884   6.290 -0.1870 -0.0142  0.1546
  172SAPE    C119457   3.502   5.830   6.396  0.2934 -0.6448 -0.6610
  172SAPE    HA19458   3.538   5.727   6.376  0.1288 -0.7705 -0.3057
  172SAPE    HB19459   3.596   5.889   6.394 -0.1020 -0.0200 -1.8180
  172SAPE    C219460   3.443   5.851   6.542  0.2276 -0.0131  0.1949
  172SAPE    HS19461   3.374   5.766   6.564  0.9190 -0.0896  2.2779
  172SAPE   O2119462   3.390   5.984   6.559  0.6349 -0.1793 -0.7752
  172SAPE   C2119463   3.292   5.994   6.651  0.3130  0.0143  0.6853
  172SAPE   O2219464   3.256   5.911   6.730 -0.6633 -0.4678 -0.5374
  172SAPE   C2219465   3.224   6.137   6.637 -0.0954 -0.5039  0.7180
  172SAPE   H2R19466   3.282   6.190   6.558  1.0488 -3.2701 -0.4157
  172SAPE   H2S19467   3.122   6.138   6.592  0.7718  0.2405 -1.3512
  172SAPE    C319468   3.569   5.824   6.637 -0.3158  0.1221  0.2256
  172SAPE    HX19469   3.644   5.901   6.610  2.1436 -2.9755 -2.7035
  172SAPE    HY19470   3.619   5.727   6.616  3.2519  1.2720  2.4245
  172SAPE   O3119471   3.539   5.836   6.780 -0.1857  0.7874  0.3934
  172SAPE   C3119472   3.498   5.719   6.836  0.4344  0.3388  0.1185
  172SAPE   O3219473   3.477   5.616   6.781 -0.2481 -0.3268  0.3929
  172SAPE   C3219474   3.495   5.747   6.987  0.3793  0.2666  0.1089
  172SAPE   H2X19475   3.462   5.852   7.002 -1.3770 -0.0061 -1.4702
  172SAPE   H2Y19476   3.600   5.740   7.023 -0.4753 -0.1996  2.7110
  172SAPE   C2319477   3.215   6.232   6.764 -0.1252 -0.2956 -0.3516
  172SAPE   H3R19478   3.181   6.168   6.848  1.3598 -1.3173 -0.4891
  172SAPE   H3S19479   3.142   6.314   6.745 -0.2318 -0.1946  0.4404
  172SAPE   C2419480   3.346   6.309   6.800  0.1878 -0.3104  0.4151
  172SAPE   H4R19481   3.392   6.351   6.708  1.4515 -0.2558  1.0517
  172SAPE   H4S19482   3.399   6.224   6.848  0.5595 -1.7259 -2.3089
  172SAPE   C2519483   3.332   6.421   6.897 -0.3038 -0.2930  0.3198
  172SAPE   H5R19484   3.284   6.501   6.839 -0.7863 -0.2514  0.7713
  172SAPE   C2619485   3.373   6.435   7.027 -0.1777 -0.3143 -0.5396
  172SAPE   H6R19486   3.341   6.525   7.080 -0.6924 -1.2372  0.7537
  172SAPE   C2719487   3.448   6.331   7.112  0.1232 -0.0064  0.0052
  172SAPE   H7R19488   3.556   6.356   7.107  0.0669  0.0540 -3.3474
  172SAPE   H7S19489   3.435   6.228   7.072  0.8561 -0.5847  1.1909
  172SAPE   C2819490   3.414   6.334   7.262  0.3426 -0.0452  0.1798
  172SAPE   H8R19491   3.347   6.415   7.294 -2.1706 -1.7903 -0.3445
  172SAPE   C2919492   3.432   6.233   7.347 -0.0920 -0.3141 -0.0053
  172SAPE   H9R19493   3.399   6.240   7.452 -0.1079 -2.1444  0.1566
  172SAPE  C21019494   3.501   6.102   7.321 -0.2547  0.1539  0.7002
  172SAPE  H10R19495   3.592   6.093   7.385  0.2824  2.0104  0.2816
  172SAPE  H10S19496   3.544   6.098   7.218  0.1477  0.6080  0.8427
  172SAPE  C21119497   3.404   5.992   7.350 -0.0192 -1.0661  0.6824
  172SAPE  H11R19498   3.327   5.967   7.276 -2.1429 -0.7996  2.6921
  172SAPE  C21219499   3.403   5.920   7.464 -0.6474  0.2417 -0.1824
  172SAPE  H12R19500   3.327   5.841   7.470  0.1915 -0.5412  0.6560
  172SAPE  C21319501   3.488   5.930   7.589 -0.5841  0.0762 -0.2929
  172SAPE  H13R19502   3.421   5.959   7.672  1.1796  2.1407  0.5275
  172SAPE  H13S19503   3.562   6.012   7.575  0.9100 -1.0633  0.6061
  172SAPE  C21419504   3.564   5.800   7.615 -0.7870  0.1380 -0.4888
  172SAPE  H14R19505   3.638   5.763   7.542  1.6245  1.2335  1.2577
  172SAPE  C21519506   3.557   5.727   7.728 -0.6569  0.0945 -0.4196
  172SAPE  H15R19507   3.632   5.648   7.743 -0.0806  0.6841 -0.1426
  172SAPE  C21619508   3.467   5.762   7.847 -0.7721  0.4477 -0.4511
  172SAPE  H16R19509   3.409   5.671   7.871  2.0717 -1.6865 -1.1471
  172SAPE  H16S19510   3.388   5.837   7.823 -2.0441  0.1928  2.6143
  172SAPE  C21719511   3.545   5.805   7.971  0.0213 -0.2443  0.2349
  172SAPE  H17R19512   3.635   5.860   7.935  0.1392  0.1245  1.0699
  172SAPE  H17S19513   3.582   5.715   8.024 -0.2694  0.4687  1.7021
  172SAPE  C21819514   3.453   5.884   8.062  0.1891 -0.2417  0.1236
  172SAPE  H18R19515   3.351   5.840   8.056  0.4723 -0.8780 -0.1742
  172SAPE  H18S19516   3.440   5.990   8.032  1.9789 -0.2231 -0.6946
  172SAPE  C21919517   3.491   5.873   8.209  0.1180  0.0212  0.3532
  172SAPE  H19R19518   3.590   5.920   8.226 -0.3930  1.0666  0.4910
  172SAPE  H19S19519   3.498   5.766   8.236 -0.7282 -0.6175 -1.7457
  172SAPE  C22019520   3.383   5.939   8.300  0.2080 -0.7306 -0.5653
  172SAPE  H20R19521   3.285   5.888   8.307  0.1492 -0.5356  0.0657
  172SAPE  H20S19522   3.358   6.043   8.272 -1.1203 -0.5076  1.2789
  172SAPE  H20T19523   3.423   5.950   8.403 -0.1878 -1.9699 -0.2587
  172SAPE   C3319524   3.414   5.640   7.057 -0.0230 -0.2459  0.4712
  172SAPE   H3X19525   3.448   5.537   7.035 -0.3538 -0.7221  2.0603
  172SAPE   H3Y19526   3.307   5.650   7.028  0.4153  0.3191 -1.0321
  172SAPE   C3419527   3.420   5.645   7.213  0.2016 -0.4210 -0.2844
  172SAPE   H4X19528   3.370   5.741   7.236  3.1669  0.6427  2.2961
  172SAPE   H4Y19529   3.526   5.656   7.245 -0.8540  0.5010  3.2902
  172SAPE   C3519530   3.339   5.527   7.267 -0.0394 -0.0523 -0.4297
  172SAPE   H5X19531   3.394   5.438   7.231 -0.8607 -0.6609 -0.2011
  172SAPE   H5Y19532   3.236   5.527   7.223  1.3152 -1.1188 -3.9852
  172SAPE   C3619533   3.337   5.532   7.419 -0.1199 -0.0972  0.8616
  172SAPE   H6X19534   3.286   5.628   7.443  0.0359  0.1895  0.0497
  172SAPE   H6Y19535   3.441   5.543   7.456  1.4689  0.3864 -3.2583
  172SAPE   C3719536   3.265   5.411   7.480  0.2559 -0.0414 -0.1484
  172SAPE   H7X19537   3.317   5.323   7.435  1.1876  1.1429 -1.4545
  172SAPE   H7Y19538   3.159   5.429   7.454 -0.0980  0.1760  1.3571
  172SAPE   C3819539   3.274   5.404   7.633 -0.4403 -0.5361  0.1362
  172SAPE   H8X19540   3.216   5.494   7.665  0.1008 -0.9196  2.3377
  172SAPE   H8Y19541   3.380   5.414   7.667  0.8670 -1.7878 -3.1875
  172SAPE   C3919542   3.204   5.280   7.686 -0.0489  0.6080 -0.7830
  172SAPE   H9X19543   3.272   5.198   7.654 -0.2771  0.7398 -1.6338
  172SAPE   H9Y19544   3.111   5.263   7.628 -0.3285 -1.8799  0.2911
  172SAPE  C31019545   3.187   5.284   7.831 -0.4869 -0.6250  0.1430
  172SAPE  H10X19546   3.111   5.356   7.868 -0.0882 -0.2830  0.3087
  172SAPE  H10Y19547   3.286   5.309   7.876 -0.5381  1.1577 -0.6653
  172SAPE  C31119548   3.157   5.151   7.893  1.0430 -0.0714 -0.4285
  172SAPE  H11X19549   3.216   5.070   7.844  2.1000  0.1222  0.4980
  172SAPE  H11Y19550   3.052   5.120   7.872  0.3838 -2.1719  4.4488
  172SAPE  C31219551   3.192   5.148   8.042 -0.6573 -0.1966 -0.1013
  172SAPE  H12X19552   3.302   5.162   8.049 -0.5244  0.3957 -2.5398
  172SAPE  H12Y19553   3.181   5.040   8.064 -1.3577 -0.8600 -3.3062
  172SAPE  C31319554   3.116   5.246   8.137  0.2441  0.4095 -0.0958
  172SAPE  H13X19555   3.118   5.192   8.234  0.6867 -3.4000 -2.0336
  172SAPE  H13Y19556   3.007   5.239   8.115  0.3613  0.3871 -0.7074
  172SAPE  C31419557   3.173   5.386   8.159 -0.1778  0.6596 -0.9043
  172SAPE  H14X19558   3.169   5.450   8.068 -1.7585 -1.0608 -2.0992
  172SAPE  H14Y19559   3.284   5.383   8.173 -0.0777  2.7524 -0.8934
  172SAPE  C31519560   3.116   5.454   8.285 -0.6561  0.2276 -0.6585
  172SAPE  H15X19561   3.137   5.381   8.365 -0.3269  1.8697  0.8250
  172SAPE  H15Y19562   3.009   5.481   8.276 -0.2891  1.9515 -0.3425
  172SAPE  C31619563   3.194   5.579   8.332  0.2004  0.3293 -0.3249
  172SAPE  H16X19564   3.153   5.666   8.278  1.1864  0.1159 -1.4738
  172SAPE  H16Y19565   3.299   5.562   8.298  0.0649 -1.6563  0.0925
  172SAPE  C31719566   3.189   5.613   8.482  0.1815 -0.0655  0.3646
  172SAPE  H17X19567   3.261   5.696   8.499  0.3921 -0.0457 -0.5800
  172SAPE  H17Y19568   3.235   5.523   8.531  1.5579 -0.1319 -0.9784
  172SAPE  C31819569   3.050   5.630   8.544 -0.5073 -0.3202  0.1668
  172SAPE  H18X19570   3.038   5.617   8.654  0.3130 -1.0800  0.1704
  172SAPE  H18Y19571   2.977   5.560   8.497 -2.0975  0.9741  0.5931
  172SAPE  H18Z19572   3.006   5.726   8.510  0.7493  0.7463  1.4148
  173SOPE     N19573   3.180   4.165  11.285 -0.2054  0.3361 -0.1998
  173SOPE   HN119574   3.079   4.148  11.266 -0.9821  1.2128  2.6920
  173SOPE   HN219575   3.230   4.082  11.247  0.5817  1.1138 -0.9122
  173SOPE   HN319576   3.196   4.180  11.386 -4.1558  3.0453  0.2243
  173SOPE   C1219577   3.225   4.287  11.207  0.5458  0.4764  0.3217
  173SOPE  H12A19578   3.320   4.331  11.243  0.5441  0.0014  0.8970
  173SOPE  H12B19579   3.145   4.364  11.223 -0.0748 -0.3621  1.3434
  173SOPE   C1119580   3.241   4.258  11.055  0.2206  0.4548 -0.5445
  173SOPE  H11A19581   3.289   4.344  11.004  0.6397  1.5044  1.4773
  173SOPE  H11B19582   3.139   4.251  11.012 -1.5171 -0.3397  3.2965
  173SOPE     P19583   3.469   4.140  10.971  0.1994  0.0249  0.1699
  173SOPE   O1319584   3.507   3.999  10.932  0.5282 -0.0432 -0.3561
  173SOPE   O1419585   3.551   4.214  11.068 -0.2021  0.1399 -0.2300
  173SOPE   O1219586   3.315   4.135  11.032 -0.3372 -0.1229 -0.0415
  173SOPE   O1119587   3.466   4.232  10.835 -0.0231  0.5430  0.3808
  173SOPE    C119588   3.365   4.207  10.734  0.3036 -0.3573 -0.3810
  173SOPE    HA19589   3.338   4.303  10.686 -0.5443 -0.2486  0.2875
  173SOPE    HB19590   3.264   4.191  10.777  0.3127  1.9937  0.6665
  173SOPE    C219591   3.408   4.109  10.625  0.1509  0.6571  0.1579
  173SOPE    HS19592   3.441   4.016  10.678 -1.1137 -1.5330 -2.6367
  173SOPE   O2119593   3.521   4.168  10.553  0.1521 -0.0075 -0.0280
  173SOPE   C2119594   3.614   4.078  10.523  0.1594  0.1384  0.7346
  173SOPE   O2219595   3.611   3.956  10.543  0.3659  0.4441 -0.7646
  173SOPE   C2219596   3.735   4.157  10.465 -0.0568 -0.5512 -1.0534
  173SOPE   H2R19597   3.823   4.138  10.529  0.4469 -0.4451 -1.6993
  173SOPE   H2S19598   3.709   4.262  10.489 -0.1420 -0.5980 -0.9417
  173SOPE    C319599   3.291   4.078  10.522 -0.3527 -0.0597  0.6383
  173SOPE    HX19600   3.272   4.174  10.469 -1.1451 -1.0232 -0.9036
  173SOPE    HY19601   3.202   4.057  10.585  0.3384 -0.7594  1.3958
  173SOPE   O3119602   3.333   3.976  10.426  0.7992  0.1012  0.6684
  173SOPE   C3119603   3.316   3.859  10.489  0.0073 -0.2067  0.4348
  173SOPE   O3219604   3.260   3.842  10.594 -0.3240  0.0556  0.1398
  173SOPE   C3219605   3.366   3.741  10.407  0.5083 -0.2327 -0.3888
  173SOPE   H2X19606   3.272   3.692  10.375 -1.3800  1.3244  2.4189
  173SOPE   H2Y19607   3.425   3.678  10.477  1.1330 -0.8158 -1.4113
  173SOPE   C2319608   3.761   4.119  10.322 -0.6148 -0.0581  0.4219
  173SOPE   H3R19609   3.784   4.012  10.309  0.5331  0.3755 -1.5233
  173SOPE   H3S19610   3.848   4.172  10.277 -2.9605  1.4176 -2.8247
  173SOPE   C2419611   3.649   4.168  10.224  0.4423  0.1646 -0.2027
  173SOPE   H4R19612   3.550   4.133  10.260 -0.1258  0.8090 -1.0694
  173SOPE   H4S19613   3.664   4.278  10.223 -0.7778  0.3475  0.3771
  173SOPE   C2519614   3.673   4.115  10.078  0.6515 -0.2643  0.2267
  173SOPE   H5R19615   3.779   4.135  10.052  0.4574 -0.8760 -1.1415
  173SOPE   H5S19616   3.659   4.005  10.067 -0.3697 -0.1784  0.5335
  173SOPE   C2619617   3.589   4.191   9.975 -0.1311 -0.1115 -0.0756
  173SOPE   H6R19618   3.481   4.165   9.966  0.3618 -2.2689 -0.2972
  173SOPE   H6S19619   3.590   4.302   9.981 -0.9126  0.1405 -3.0575
  173SOPE   C2719620   3.630   4.165   9.830  0.7089 -0.2934  0.5541
  173SOPE   H7R19621   3.738   4.144   9.821  0.8978  0.7303  0.2994
  173SOPE   H7S19622   3.581   4.069   9.802 -0.6763  0.2404  1.0218
  173SOPE   C2819623   3.590   4.279   9.737 -0.2466  0.3407  0.2002
  173SOPE   H8R19624   3.480   4.284   9.750 -0.3793 -0.3084 -0.5983
  173SOPE   H8S19625   3.643   4.374   9.760 -0.3413  0.6976 -0.9870
  173SOPE   C2919626   3.622   4.227   9.604  0.8563  0.1181  0.6683
  173SOPE   H9119627   3.560   4.140   9.579  0.4952  0.0827  1.6513
  173SOPE  C21019628   3.692   4.284   9.501 -0.0955  0.7575  0.0566
  173SOPE  H10119629   3.699   4.229   9.406  1.4677  0.5162  0.2952
  173SOPE  C21119630   3.745   4.427   9.502  0.8815  0.7484  0.3589
  173SOPE  H11R19631   3.854   4.423   9.523  0.6023 -1.0958  1.7058
  173SOPE  H11S19632   3.694   4.488   9.580  3.1690 -0.1980  2.7302
  173SOPE  C21219633   3.715   4.509   9.374  0.9749  0.4019 -0.0235
  173SOPE  H12R19634   3.767   4.607   9.388  0.6012  0.8351 -1.5265
  173SOPE  H12S19635   3.605   4.521   9.366  0.6955 -1.4054  0.7217
  173SOPE  C21319636   3.781   4.454   9.245 -0.0634 -0.0249  0.1352
  173SOPE  H13R19637   3.759   4.346   9.228 -0.0818 -0.6030  3.2797
  173SOPE  H13S19638   3.890   4.469   9.259  0.5487 -2.6899 -1.0821
  173SOPE  C21419639   3.744   4.544   9.131  0.3829  0.3775 -1.2321
  173SOPE  H14R19640   3.752   4.653   9.152 -1.3684  0.3704 -0.2935
  173SOPE  H14S19641   3.637   4.523   9.107  0.6409 -1.5395 -0.8451
  173SOPE  C21519642   3.823   4.539   9.000 -0.1038  0.3831 -0.5381
  173SOPE  H15R19643   3.931   4.521   9.019 -0.3144  0.8185  1.2300
  173SOPE  H15S19644   3.806   4.632   8.942 -0.7643  0.1438 -0.7327
  173SOPE  C21619645   3.759   4.425   8.918 -0.2224 -0.1320  0.1599
  173SOPE  H16R19646   3.652   4.438   8.889 -0.3312  0.2369  0.7154
  173SOPE  H16S19647   3.767   4.334   8.981  1.7157  0.6597  1.1340
  173SOPE  C21719648   3.838   4.410   8.788 -0.1708 -0.0762  0.9379
  173SOPE  H17R19649   3.856   4.513   8.752 -2.2219  0.8962  2.4637
  173SOPE  H17S19650   3.768   4.366   8.714  1.4140 -0.0101 -0.6524
  173SOPE  C21819651   3.960   4.312   8.808 -0.8855  0.1750  0.3729
  173SOPE  H18R19652   4.013   4.331   8.903 -1.1344  1.4908  0.2638
  173SOPE  H18S19653   4.028   4.323   8.721 -1.9142  0.5625 -0.4153
  173SOPE  H18T19654   3.930   4.204   8.807  0.5883 -0.2478  0.2679
  173SOPE   C3319655   3.459   3.786  10.286  0.1421  0.1161 -0.0167
  173SOPE   H3X19656   3.546   3.840  10.327  0.0153 -0.0789  0.5245
  173SOPE   H3Y19657   3.420   3.868  10.223  0.6943  2.0504  2.0391
  173SOPE   C3419658   3.479   3.666  10.187  0.0146 -0.0698 -0.0226
  173SOPE   H4X19659   3.384   3.640  10.136  0.4105 -2.4277  0.3189
  173SOPE   H4Y19660   3.504   3.567  10.232  1.2256 -0.4912 -1.5429
  173SOPE   C3519661   3.573   3.696  10.072  0.3267  0.2630  0.7825
  173SOPE   H5X19662   3.678   3.711  10.105  1.2432 -0.5228 -1.5757
  173SOPE   H5Y19663   3.542   3.795  10.031 -0.9018 -0.8244 -1.0996
  173SOPE   C3619664   3.569   3.594   9.963  0.1544  0.2905  0.8586
  173SOPE   H6X19665   3.468   3.593   9.916  0.8329  2.3631 -0.8379
  173SOPE   H6Y19666   3.601   3.494   9.998 -0.7513  0.0249  0.9610
  173SOPE   C3719667   3.668   3.624   9.844  0.0583  0.6776  0.4672
  173SOPE   H7X19668   3.770   3.623   9.888  0.5592 -0.6686 -0.6435
  173SOPE   H7Y19669   3.648   3.730   9.817 -1.2275  0.5563  0.9033
  173SOPE   C3819670   3.662   3.518   9.733  0.0365  0.6367 -0.2312
  173SOPE   H8X19671   3.559   3.498   9.698  0.1380 -2.2227  0.7921
  173SOPE   H8Y19672   3.688   3.421   9.782  2.4128  1.7382  0.8673
  173SOPE   C3919673   3.743   3.551   9.607  0.6128 -0.4630  0.4321
  173SOPE   H9X19674   3.850   3.557   9.638  0.5609  1.8484  0.3001
  173SOPE   H9Y19675   3.713   3.650   9.567 -0.0687 -1.0647 -0.6128
  173SOPE  C31019676   3.724   3.455   9.492  0.1406  0.7974 -0.4655
  173SOPE  H10X19677   3.615   3.463   9.470 -0.7591  1.0335  3.3460
  173SOPE  H10Y19678   3.748   3.351   9.520 -1.6243  0.6082  0.4397
  173SOPE  C31119679   3.811   3.490   9.371 -1.1122 -0.5782  0.6659
  173SOPE  H11X19680   3.920   3.480   9.392 -0.9808 -1.1547 -0.2200
  173SOPE  H11Y19681   3.793   3.597   9.351  0.7188 -0.2381  0.6705
  173SOPE  C31219682   3.784   3.393   9.252  0.7508 -0.9062 -0.5372
  173SOPE  H12X19683   3.683   3.420   9.212  1.5100  1.9949 -0.7502
  173SOPE  H12Y19684   3.762   3.291   9.289  1.3550 -0.4810  1.0362
  173SOPE  C31319685   3.888   3.409   9.142  0.7010 -0.1106 -0.5757
  173SOPE  H13X19686   3.990   3.387   9.178  1.3099  1.2050 -1.4246
  173SOPE  H13Y19687   3.888   3.519   9.124 -2.8085  0.0922 -0.2026
  173SOPE  C31419688   3.843   3.323   9.024  0.0101 -0.6256 -0.3992
  173SOPE  H14X19689   3.741   3.328   8.979  0.5941  0.2880 -1.6872
  173SOPE  H14Y19690   3.839   3.220   9.067 -0.5057  0.0638  1.2756
  173SOPE  C31519691   3.952   3.340   8.912 -0.3277  0.6369 -0.4457
  173SOPE  H15X19692   4.043   3.290   8.952 -1.3204 -0.1150  0.9495
  173SOPE  H15Y19693   3.966   3.449   8.897 -2.2164  0.5892 -3.3202
  173SOPE  C31619694   3.929   3.276   8.773 -0.1762 -0.1917 -0.4213
  173SOPE  H16X19695   4.016   3.298   8.708 -0.9854  2.8733 -0.6345
  173SOPE  H16Y19696   3.842   3.331   8.733 -0.8107  0.6371  1.9163
  173SOPE  C31719697   3.891   3.134   8.775  0.0972 -0.2470  0.5569
  173SOPE  H17X19698   3.805   3.122   8.706  0.2216  3.6363 -0.4987
  173SOPE  H17Y19699   3.854   3.113   8.878 -2.3909 -0.9560 -0.4252
  173SOPE  C31819700   3.991   3.024   8.743  0.2898 -0.0628 -0.2657
  173SOPE  H18X19701   3.945   2.926   8.766  1.7365 -1.0307 -1.3871
  173SOPE  H18Y19702   4.076   3.029   8.815 -0.2617  0.3524  0.3702
  173SOPE  H18Z19703   4.024   3.028   8.637  0.3139 -0.4256 -0.2711
  174SOPE     N19704   3.141   2.282  11.063 -0.1576  0.5256  0.1439
  174SOPE   HN119705   3.069   2.325  11.124  0.7640 -0.0829  1.6940
  174SOPE   HN219706   3.231   2.287  11.115 -1.1079 -2.1423  2.2194
  174SOPE   HN319707   3.142   2.332  10.971  2.1728 -1.5881 -1.0986
  174SOPE   C1219708   3.115   2.143  11.012  0.3664 -0.2518  0.1898
  174SOPE  H12A19709   3.005   2.140  10.996  0.3984  1.2252 -0.4591
  174SOPE  H12B19710   3.150   2.077  11.094  0.5648 -1.1449 -0.5976
  174SOPE   C1119711   3.197   2.122  10.883 -0.3709  0.5639 -0.0567
  174SOPE  H11A19712   3.189   2.013  10.860  0.8627  0.6686 -1.0581
  174SOPE  H11B19713   3.305   2.146  10.890  0.2756 -1.7571 -1.1542
  174SOPE     P19714   3.023   2.130  10.695 -0.3567  0.4082 -0.0301
  174SOPE   O1319715   2.910   2.084  10.777 -0.9835  0.5188  0.1666
  174SOPE   O1419716   3.088   2.030  10.605 -0.5008  0.3525 -0.4645
  174SOPE   O1219717   3.130   2.203  10.784  0.2537  0.9168 -0.1381
  174SOPE   O1119718   2.969   2.245  10.598  0.1291  0.2419 -0.2902
  174SOPE    C119719   3.005   2.381  10.630 -0.6817  0.6785  0.1838
  174SOPE    HA19720   3.016   2.394  10.740  1.3385 -0.4477  0.1808
  174SOPE    HB19721   2.916   2.444  10.608 -0.9276  0.5322  0.7361
  174SOPE    C219722   3.119   2.435  10.540 -0.4419 -0.3285 -0.3944
  174SOPE    HS19723   3.102   2.543  10.521  0.3798 -0.6241 -3.2700
  174SOPE   O2119724   3.133   2.363  10.421 -0.2856 -0.2955 -0.1471
  174SOPE   C2119725   3.032   2.367  10.343 -0.1458 -0.2480  0.3004
  174SOPE   O2219726   2.934   2.441  10.347 -0.0055 -0.2492 -0.1844
  174SOPE   C2219727   3.040   2.238  10.257  0.2679 -0.2051  0.8268
  174SOPE   H2R19728   3.001   2.272  10.159 -1.5333 -2.0893  0.8061
  174SOPE   H2S19729   2.974   2.158  10.298  0.5876 -0.0858  1.5879
  174SOPE    C319730   3.256   2.425  10.614  0.0888  0.3495  0.1284
  174SOPE    HX19731   3.268   2.317  10.637 -1.2183  0.0475 -0.4920
  174SOPE    HY19732   3.254   2.488  10.705 -0.6086  0.3417  0.1270
  174SOPE   O3119733   3.366   2.469  10.529 -0.5327 -0.0443  0.2713
  174SOPE   C3119734   3.444   2.383  10.473 -0.1208 -0.6981 -0.2583
  174SOPE   O3219735   3.431   2.259  10.487  0.7750 -0.1857 -0.1631
  174SOPE   C3219736   3.546   2.447  10.384  0.0679 -0.2998  0.6755
  174SOPE   H2X19737   3.652   2.418  10.399  1.6836  2.2690 -3.7426
  174SOPE   H2Y19738   3.541   2.558  10.384  0.2762 -0.2578 -1.3068
  174SOPE   C2319739   3.185   2.182  10.230  0.8279  0.1566  0.3424
  174SOPE   H3R19740   3.206   2.126  10.324 -0.8334  0.1010  0.7172
  174SOPE   H3S19741   3.254   2.267  10.211  0.9261 -0.4806 -2.5253
  174SOPE   C2419742   3.178   2.095  10.111  0.4193  0.1212 -0.0562
  174SOPE   H4R19743   3.112   2.010  10.141  0.7565 -0.2288 -0.2951
  174SOPE   H4S19744   3.124   2.137  10.023  0.5489 -1.0262 -0.7019
  174SOPE   C2519745   3.309   2.036  10.067  0.5974  0.1082 -0.1635
  174SOPE   H5R19746   3.389   2.109  10.090 -0.3678  0.4344  2.4781
  174SOPE   H5S19747   3.329   1.940  10.119  2.3504 -0.2349 -1.3812
  174SOPE   C2619748   3.320   1.989   9.921  0.3952  0.4823  0.1450
  174SOPE   H6R19749   3.385   1.900   9.914 -0.6867 -0.2572 -0.8996
  174SOPE   H6S19750   3.220   1.949   9.894  0.2657 -0.2930  1.6617
  174SOPE   C2719751   3.353   2.110   9.828  0.6485  0.1633  0.1654
  174SOPE   H7R19752   3.340   2.069   9.726  3.1587  0.4996 -0.3699
  174SOPE   H7S19753   3.285   2.198   9.833  0.2880 -0.1581  1.5681
  174SOPE   C2819754   3.501   2.158   9.836  0.4477 -0.7522  0.4530
  174SOPE   H8R19755   3.511   2.199   9.939 -0.1638 -0.3317  0.3478
  174SOPE   H8S19756   3.565   2.067   9.843  2.1980  0.4297  0.5639
  174SOPE   C2919757   3.548   2.251   9.723 -0.0662  0.1243  0.2124
  174SOPE   H9119758   3.596   2.344   9.758  2.6495 -0.2257 -2.2071
  174SOPE  C21019759   3.564   2.214   9.588 -0.5517 -0.0931 -0.0158
  174SOPE  H10119760   3.591   2.286   9.509 -0.8326  0.7213  0.6226
  174SOPE  C21119761   3.532   2.076   9.536  0.1574 -0.2282 -0.1047
  174SOPE  H11R19762   3.509   2.004   9.618  0.3653  0.0822  0.2293
  174SOPE  H11S19763   3.616   2.020   9.489 -0.0590 -0.3792 -0.3160
  174SOPE  C21219764   3.410   2.087   9.445  0.2977  0.5633  0.0615
  174SOPE  H12R19765   3.322   2.112   9.509 -1.0867 -2.0569 -0.7040
  174SOPE  H12S19766   3.379   1.981   9.436  0.6606  0.4552  0.0661
  174SOPE  C21319767   3.418   2.167   9.318 -0.6312 -0.4056  0.2411
  174SOPE  H13R19768   3.463   2.265   9.345  0.2506 -0.8655  0.4651
  174SOPE  H13S19769   3.318   2.178   9.270 -1.4115 -1.5837  1.5201
  174SOPE  C21419770   3.517   2.105   9.219 -0.8339  0.2279  0.7202
  174SOPE  H14R19771   3.479   2.002   9.197  0.0941  0.2470 -1.2210
  174SOPE  H14S19772   3.617   2.084   9.264  0.0597  3.5988  0.5751
  174SOPE  C21519773   3.532   2.177   9.084 -0.4359 -0.9641  0.2738
  174SOPE  H15R19774   3.575   2.280   9.092 -2.6159  0.0569 -0.4540
  174SOPE  H15S19775   3.433   2.192   9.035  0.4752  0.6409 -1.2195
  174SOPE  C21619776   3.623   2.096   8.978 -0.5213  0.2918 -0.4018
  174SOPE  H16R19777   3.606   2.148   8.881 -0.5242 -0.6959 -0.9374
  174SOPE  H16S19778   3.594   1.989   8.976  0.2496  0.0875 -0.7724
  174SOPE  C21719779   3.773   2.104   9.023 -0.4150  0.1633  0.0092
  174SOPE  H17R19780   3.785   2.073   9.129 -3.0420  1.7970  0.8862
  174SOPE  H17S19781   3.802   2.211   9.016 -2.3733  0.8796  1.6606
  174SOPE  C21819782   3.881   2.027   8.942 -0.0587 -0.5086 -0.5577
  174SOPE  H18R19783   3.852   1.922   8.964 -1.8209 -0.3628 -2.0056
  174SOPE  H18S19784   3.985   2.050   8.976 -1.4957  1.9806  2.6088
  174SOPE  H18T19785   3.862   2.049   8.835  0.3600  0.2910 -0.4770
  174SOPE   C3319786   3.525   2.409  10.238  0.2850  0.4389  0.0499
  174SOPE   H3X19787   3.500   2.302  10.224 -2.5203  1.1450 -1.2850
  174SOPE   H3Y19788   3.612   2.434  10.174 -0.5696  0.3198 -1.1996
  174SOPE   C3419789   3.404   2.493  10.178 -0.6644  0.3504 -0.4241
  174SOPE   H4X19790   3.413   2.595  10.220 -2.5966  0.6122 -0.5647
  174SOPE   H4Y19791   3.306   2.448  10.205 -1.4137  2.9154  1.4627
  174SOPE   C3519792   3.404   2.513  10.026 -0.3668 -0.3894 -0.0516
  174SOPE   H5X19793   3.395   2.413   9.978  3.6419  0.0292 -2.0769
  174SOPE   H5Y19794   3.498   2.558   9.990  0.7634 -0.5904  2.4366
  174SOPE   C3619795   3.282   2.597   9.983  0.5388 -0.3712 -0.4344
  174SOPE   H6X19796   3.186   2.554  10.018 -0.4173  0.5104 -1.8872
  174SOPE   H6Y19797   3.271   2.581   9.874  0.3950 -0.8075 -0.3580
  174SOPE   C3719798   3.281   2.748  10.020 -0.0794  0.3893  0.7211
  174SOPE   H7X19799   3.380   2.795  10.005 -0.3396  0.6272 -0.3054
  174SOPE   H7Y19800   3.260   2.753  10.129 -1.4031  0.8270  0.4663
  174SOPE   C3819801   3.158   2.834   9.974  0.4228 -0.1037  0.5665
  174SOPE   H8X19802   3.134   2.915  10.047  0.9674  0.0324  0.5958
  174SOPE   H8Y19803   3.071   2.765   9.983  0.3070 -0.0570 -0.1456
  174SOPE   C3919804   3.163   2.891   9.832 -0.0295  0.1959  0.5806
  174SOPE   H9X19805   3.180   2.804   9.765 -0.1256  0.1363  0.6323
  174SOPE   H9Y19806   3.256   2.951   9.827 -0.4404  0.8988  1.1323
  174SOPE  C31019807   3.044   2.979   9.801 -0.6655 -0.4894 -0.0934
  174SOPE  H10X19808   3.041   3.048   9.887  0.7773 -0.3858 -0.0922
  174SOPE  H10Y19809   2.947   2.926   9.791 -0.8450  0.0548 -1.4737
  174SOPE  C31119810   3.052   3.064   9.668  0.6455  0.6342  0.2771
  174SOPE  H11X19811   3.133   3.140   9.676  1.1469  0.1054  0.3271
  174SOPE  H11Y19812   2.953   3.113   9.664  0.7706  0.8554 -0.1375
  174SOPE  C31219813   3.081   2.967   9.546  0.0367 -0.6502 -0.2971
  174SOPE  H12X19814   3.038   2.865   9.551  3.3146 -2.2046 -0.6971
  174SOPE  H12Y19815   3.191   2.950   9.536  0.3446  0.0416  1.4698
  174SOPE  C31319816   3.037   3.028   9.417  0.5263 -0.0518  0.4754
  174SOPE  H13X19817   3.095   3.122   9.403  0.2506 -0.1954 -2.0425
  174SOPE  H13Y19818   2.927   3.042   9.413  0.4433 -0.3783  1.4572
  174SOPE  C31419819   3.079   2.953   9.296 -0.4580  0.4872  0.7832
  174SOPE  H14X19820   3.035   2.851   9.295  0.6372 -0.0101 -0.4793
  174SOPE  H14Y19821   3.189   2.938   9.290  0.0948  4.1831 -0.7989
  174SOPE  C31519822   3.039   3.026   9.158 -0.7174  0.1988 -0.0829
  174SOPE  H15X19823   3.112   3.105   9.132 -3.6122  2.6918 -1.1760
  174SOPE  H15Y19824   2.936   3.067   9.156 -0.4592  0.8571 -0.2739
  174SOPE  C31619825   3.051   2.923   9.050 -0.1545 -0.3020  0.2707
  174SOPE  H16X19826   2.975   2.844   9.061 -1.4804  0.5703 -2.0174
  174SOPE  H16Y19827   3.159   2.894   9.055  0.9104  2.6112 -2.5357
  174SOPE  C31719828   3.039   2.995   8.916 -0.8301 -0.0884  0.1726
  174SOPE  H17X19829   3.103   3.083   8.894  1.4419 -0.9105  2.9354
  174SOPE  H17Y19830   2.931   3.021   8.905 -0.9166  0.2578  1.6464
  174SOPE  C31819831   3.070   2.906   8.800 -0.2801  0.2440 -0.8781
  174SOPE  H18X19832   2.996   2.824   8.815 -1.1111  1.1561  0.1152
  174SOPE  H18Y19833   3.168   2.854   8.810 -0.9549 -1.2134 -1.5105
  174SOPE  H18Z19834   3.044   2.959   8.706 -2.2525  1.7391  0.4384
  175SOPE     N19835   0.069   5.069  10.687 -0.1248 -0.1072  0.1777
  175SOPE   HN119836   0.029   5.147  10.630  1.1891 -0.7858 -1.7910
  175SOPE   HN219837   0.093   5.102  10.782  0.4784 -3.0341  1.1564
  175SOPE   HN319838   0.156   5.028  10.647  0.1944 -2.0858  2.6767
  175SOPE   C1219839  -0.037   4.965  10.683 -0.1811  0.9057 -0.6324
  175SOPE  H12A19840  -0.124   5.009  10.738  0.1878 -1.9159  2.5303
  175SOPE  H12B19841   0.002   4.870  10.725 -0.8006  0.7928 -0.2991
  175SOPE   C1119842  -0.081   4.933  10.539 -0.0662 -0.3443  0.0822
  175SOPE  H11A19843  -0.157   4.853  10.532  0.5537 -0.9955  0.6342
  175SOPE  H11B19844   0.001   4.888  10.478  2.3063  1.4024  1.7940
  175SOPE     P19845  -0.278   5.089  10.466  0.1919  0.4614  0.1580
  175SOPE   O1319846  -0.299   5.236  10.443  0.0228  0.3654  0.3978
  175SOPE   O1419847  -0.351   5.032  10.582  0.2518  0.6926 -0.2155
  175SOPE   O1219848  -0.124   5.058  10.477 -0.1543 -0.4545 -0.4419
  175SOPE   O1119849  -0.312   4.994  10.345  0.1791 -0.3715 -0.0620
  175SOPE    C119850  -0.245   5.000  10.216  0.0132 -0.1559 -0.3345
  175SOPE    HA19851  -0.224   4.895  10.186  0.2737 -0.1751 -0.0881
  175SOPE    HB19852  -0.148   5.053  10.232  0.1937 -0.4705 -0.3698
  175SOPE    C219853  -0.325   5.064  10.104  0.2936  0.4415 -0.7057
  175SOPE    HS19854  -0.355   5.167  10.134 -0.7566  0.7840 -2.7468
  175SOPE   O2119855  -0.441   4.979  10.093  0.0987 -0.4695  0.0694
  175SOPE   C2119856  -0.550   5.052  10.056 -0.1288  0.3869 -0.1079
  175SOPE   O2219857  -0.556   5.170  10.047 -0.4378 -0.6912  0.5597
  175SOPE   C2219858  -0.662   4.948  10.021 -0.1227 -0.4442 -0.2137
  175SOPE   H2R19859  -0.746   4.948  10.094 -0.5466 -4.1240 -0.5262
  175SOPE   H2S19860  -0.616   4.847  10.018  0.3548 -0.2518  0.3678
  175SOPE    C319861  -0.247   5.071   9.968 -0.0947  0.0511 -0.2214
  175SOPE    HX19862  -0.245   4.965   9.933 -0.1454 -0.0592  0.1099
  175SOPE    HY19863  -0.141   5.105   9.974 -0.3614  0.9126 -0.3258
  175SOPE   O3119864  -0.313   5.146   9.863 -0.8474  0.5012 -0.0409
  175SOPE   C3119865  -0.319   5.277   9.877  0.6139  0.1307 -0.6389
  175SOPE   O3219866  -0.264   5.344   9.964  0.1252  0.5215 -0.1111
  175SOPE   C3219867  -0.414   5.337   9.773 -0.5185 -0.1620  0.2415
  175SOPE   H2X19868  -0.402   5.447   9.781  1.2777 -0.2383 -0.9934
  175SOPE   H2Y19869  -0.520   5.325   9.805 -0.6519 -1.2053 -0.5500
  175SOPE   C2319870  -0.710   4.984   9.880 -0.4469 -0.0961  0.6175
  175SOPE   H3R19871  -0.737   5.092   9.877 -0.4162 -0.0941 -1.6026
  175SOPE   H3S19872  -0.800   4.922   9.858  0.4208 -0.7885 -1.2411
  175SOPE   C2419873  -0.604   4.973   9.770  0.5544 -0.4775  0.3942
  175SOPE   H4R19874  -0.530   5.055   9.781  1.2993 -1.0976  0.0792
  175SOPE   H4S19875  -0.546   4.879   9.782  0.8811 -0.1496  1.5582
  175SOPE   C2519876  -0.651   4.971   9.624  0.3487 -0.0120 -0.5519
  175SOPE   H5R19877  -0.744   4.911   9.620 -0.2267  0.7778  0.5446
  175SOPE   H5S19878  -0.685   5.075   9.601 -0.9759 -0.1151  0.8240
  175SOPE   C2619879  -0.552   4.930   9.513  0.5117  0.3338  0.0775
  175SOPE   H6R19880  -0.516   5.029   9.479 -0.9679  0.7801 -0.2560
  175SOPE   H6S19881  -0.472   4.865   9.555 -1.5330 -1.3828  1.5157
  175SOPE   C2719882  -0.627   4.861   9.395  0.2507  0.1095 -0.0192
  175SOPE   H7R19883  -0.683   4.770   9.427 -1.2312  0.6281 -0.9934
  175SOPE   H7S19884  -0.703   4.924   9.344  0.5326 -1.3902 -2.4656
  175SOPE   C2819885  -0.526   4.812   9.297  0.2015 -0.1554 -0.5370
  175SOPE   H8R19886  -0.469   4.738   9.357 -0.9125 -0.0226  0.7375
  175SOPE   H8S19887  -0.580   4.747   9.224  0.5452  0.5293 -1.4153
  175SOPE   C2919888  -0.429   4.912   9.239  0.1258 -0.2536  0.1825
  175SOPE   H9119889  -0.334   4.928   9.293  1.2931  0.2249 -1.8988
  175SOPE  C21019890  -0.443   4.987   9.129 -0.0358  0.3750 -0.0621
  175SOPE  H10119891  -0.357   5.052   9.106 -0.1694  0.4203 -0.4441
  175SOPE  C21119892  -0.553   4.982   9.029  0.8697  0.0180 -0.1122
  175SOPE  H11R19893  -0.635   5.050   9.060  1.8892  1.1058  0.2807
  175SOPE  H11S19894  -0.595   4.880   9.019  0.3520  0.4055 -2.6749
  175SOPE  C21219895  -0.512   5.025   8.884  0.3677 -0.0050 -0.3272
  175SOPE  H12R19896  -0.410   4.994   8.852  0.6184  0.9600 -0.5228
  175SOPE  H12S19897  -0.510   5.136   8.875  2.5451  0.0916  0.6470
  175SOPE  C21319898  -0.620   4.975   8.784  0.1377 -0.2826 -0.8425
  175SOPE  H13R19899  -0.710   5.019   8.832  1.3499  0.5903  0.7754
  175SOPE  H13S19900  -0.621   4.865   8.773  0.4444 -0.2743 -0.9716
  175SOPE  C21419901  -0.600   5.027   8.647 -0.3996 -0.1607  0.6494
  175SOPE  H14R19902  -0.492   5.014   8.623 -1.0584 -0.3637 -2.5107
  175SOPE  H14S19903  -0.616   5.137   8.641  2.2661  0.2467 -0.3688
  175SOPE  C21519904  -0.675   4.951   8.534 -0.0274 -0.1839 -0.2386
  175SOPE  H15R19905  -0.785   4.969   8.543 -0.3279 -2.1576  0.4249
  175SOPE  H15S19906  -0.654   4.844   8.555 -1.0136  0.0725  2.4982
  175SOPE  C21619907  -0.622   4.996   8.392  0.3733  0.2544  0.0446
  175SOPE  H16R19908  -0.517   4.965   8.408  0.4503  0.6848  0.3882
  175SOPE  H16S19909  -0.636   5.106   8.403  3.7931  0.5442  3.6950
  175SOPE  C21719910  -0.706   4.924   8.278 -0.1964  0.2258  0.3752
  175SOPE  H17R19911  -0.643   4.943   8.189  0.1287 -1.9713  0.0933
  175SOPE  H17S19912  -0.803   4.975   8.257  0.4462  0.9842 -0.8734
  175SOPE  C21819913  -0.742   4.775   8.302 -0.2023  0.0628  0.0911
  175SOPE  H18R19914  -0.821   4.756   8.379 -0.6076 -3.3942 -0.9866
  175SOPE  H18S19915  -0.653   4.718   8.337 -1.0761 -0.4302  1.6213
  175SOPE  H18T19916  -0.782   4.729   8.209  0.2866 -0.3051  0.0600
  175SOPE   C3319917  -0.385   5.291   9.632 -0.2099 -0.8666 -1.0153
  175SOPE   H3X19918  -0.386   5.180   9.639  0.5906 -0.8160  0.2342
  175SOPE   H3Y19919  -0.282   5.321   9.602 -0.0055 -1.5041 -0.9704
  175SOPE   C3419920  -0.485   5.336   9.529 -0.3396  0.0241  0.6129
  175SOPE   H4X19921  -0.494   5.445   9.544 -1.3662  0.2883 -1.5667
  175SOPE   H4Y19922  -0.577   5.273   9.537  0.1730 -0.7594  0.5199
  175SOPE   C3519923  -0.432   5.315   9.386 -0.8120 -0.1999  0.1988
  175SOPE   H5X19924  -0.517   5.301   9.316 -0.9721 -3.5762  0.8739
  175SOPE   H5Y19925  -0.381   5.217   9.374  0.2367  0.3216  0.2808
  175SOPE   C3619926  -0.339   5.437   9.339  0.5862  0.5420  0.4506
  175SOPE   H6X19927  -0.261   5.452   9.417  2.1969 -0.9491 -0.7903
  175SOPE   H6Y19928  -0.398   5.530   9.352 -1.5456 -0.4263 -1.4862
  175SOPE   C3719929  -0.281   5.422   9.197 -0.6334 -0.8325  0.6012
  175SOPE   H7X19930  -0.234   5.321   9.187  0.3454 -0.3813  0.5091
  175SOPE   H7Y19931  -0.216   5.510   9.176 -1.7371  0.1053  1.0778
  175SOPE   C3819932  -0.389   5.409   9.087 -0.0414 -0.6238 -1.2026
  175SOPE   H8X19933  -0.439   5.508   9.088 -0.2402 -0.7245 -1.1839
  175SOPE   H8Y19934  -0.472   5.342   9.118 -3.2132  3.6823  0.5628
  175SOPE   C3919935  -0.340   5.373   8.945  0.9213  0.5424  0.2642
  175SOPE   H9X19936  -0.426   5.368   8.875  0.3037  0.9678  0.9691
  175SOPE   H9Y19937  -0.307   5.268   8.952 -2.1738 -0.5592  0.0041
  175SOPE  C31019938  -0.247   5.473   8.886  0.1015  1.0613 -0.3042
  175SOPE  H10X19939  -0.149   5.462   8.939  0.5544  0.3593 -1.2579
  175SOPE  H10Y19940  -0.288   5.576   8.890  2.1527  1.9412 -0.4417
  175SOPE  C31119941  -0.229   5.448   8.739  0.2320  0.7199 -0.0768
  175SOPE  H11X19942  -0.328   5.431   8.691  1.3610  1.5837 -2.8623
  175SOPE  H11Y19943  -0.173   5.353   8.729 -3.5138 -2.1473  2.9559
  175SOPE  C31219944  -0.150   5.566   8.673 -0.3575  0.0420 -0.5868
  175SOPE  H12X19945  -0.223   5.650   8.679 -1.2021 -0.7569  3.6373
  175SOPE  H12Y19946  -0.138   5.546   8.565 -2.2694  2.0007 -1.2339
  175SOPE  C31319947  -0.020   5.615   8.749  0.2226  0.6528 -0.2525
  175SOPE  H13X19948  -0.043   5.661   8.847 -2.0359 -0.5263 -0.1600
  175SOPE  H13Y19949   0.036   5.695   8.696 -0.4105  1.5515  0.4198
  175SOPE  C31419950   0.086   5.504   8.768  0.5112 -0.2816  0.1811
  175SOPE  H14X19951   0.133   5.466   8.675  0.4173 -0.7199  0.3104
  175SOPE  H14Y19952   0.035   5.412   8.803 -2.2137  1.0640  0.0249
  175SOPE  C31519953   0.193   5.532   8.873  0.0119 -0.4138  0.3478
  175SOPE  H15X19954   0.229   5.635   8.852  0.2064  0.0939  2.8740
  175SOPE  H15Y19955   0.287   5.473   8.870 -0.9808 -2.0350 -0.2492
  175SOPE  C31619956   0.131   5.512   9.008 -0.8634 -0.2132  0.0886
  175SOPE  H16X19957   0.033   5.562   9.021  0.2256  1.3170  4.4571
  175SOPE  H16Y19958   0.200   5.560   9.082 -0.7198 -1.0900  0.5458
  175SOPE  C31719959   0.140   5.360   9.050 -0.0111  0.5858  0.2530
  175SOPE  H17X19960   0.216   5.305   8.991 -1.3489 -0.1784 -0.8147
  175SOPE  H17Y19961   0.038   5.325   9.022 -0.2050  0.0741  1.5228
  175SOPE  C31819962   0.171   5.325   9.201  0.0195  1.0703 -0.0126
  175SOPE  H18X19963   0.279   5.345   9.217  0.3646 -0.2686 -0.5234
  175SOPE  H18Y19964   0.158   5.216   9.218 -1.8985  0.9211 -1.9599
  175SOPE  H18Z19965   0.123   5.388   9.278 -0.5018  2.7975 -1.6669
  176SOPE     N19966   5.731   4.374  10.910  0.6631 -0.4188  0.0462
  176SOPE   HN119967   5.736   4.305  10.833  0.3992 -1.5689  1.0206
  176SOPE   HN219968   5.831   4.391  10.934  0.3230  1.9227  0.0365
  176SOPE   HN319969   5.667   4.339  10.984 -1.6705  0.8363 -1.2910
  176SOPE   C1219970   5.673   4.505  10.860 -0.5696  0.0789  0.4678
  176SOPE  H12A19971   5.695   4.580  10.939  2.3228 -1.8869  1.7065
  176SOPE  H12B19972   5.566   4.489  10.836  0.1275 -2.2602 -1.5247
  176SOPE   C1119973   5.742   4.537  10.724 -0.5119  0.0092 -0.0756
  176SOPE  H11A19974   5.674   4.611  10.676  1.0596  1.7295  0.2442
  176SOPE  H11B19975   5.740   4.442  10.667 -0.8795 -1.0261  1.5799
  176SOPE     P19976   5.970   4.650  10.640  0.0999 -0.0395  0.3850
  176SOPE   O1319977   6.104   4.619  10.685 -0.3634  0.2226 -0.2568
  176SOPE   O1419978   5.932   4.792  10.624  0.2069  0.1790 -0.0628
  176SOPE   O1219979   5.870   4.595  10.742 -0.9617 -0.5558  0.1072
  176SOPE   O1119980   5.934   4.575  10.504 -0.2500 -0.2609 -0.2488
  176SOPE    C119981   5.965   4.436  10.492  0.6964 -0.9243  0.4665
  176SOPE    HA19982   5.923   4.377  10.577  1.2276 -2.2879 -0.1857
  176SOPE    HB19983   6.074   4.420  10.502  1.0172  2.1703  4.0907
  176SOPE    C219984   5.909   4.369  10.356 -0.5990 -0.4755  0.1035
  176SOPE    HS19985   5.956   4.269  10.344 -1.2023 -1.0775  2.2165
  176SOPE   O2119986   5.945   4.451  10.234  0.0430 -0.4425 -0.1737
  176SOPE   C2119987   6.066   4.436  10.199 -0.8011  0.7867 -0.1171
  176SOPE   O2219988   6.152   4.371  10.257 -0.2924  0.8666 -0.3018
  176SOPE   C2219989   6.085   4.493  10.058 -0.4145  0.2817 -0.2361
  176SOPE   H2R19990   6.178   4.553  10.058  0.4538 -1.0012 -1.1964
  176SOPE   H2S19991   6.000   4.561  10.035 -0.3258  0.9721  1.3590
  176SOPE    C319992   5.754   4.342  10.363 -0.1162 -0.0577 -0.1272
  176SOPE    HX19993   5.691   4.432  10.375 -3.1783 -1.8362 -1.5445
  176SOPE    HY19994   5.744   4.280  10.456  2.0647 -0.0640  0.1504
  176SOPE   O3119995   5.704   4.261  10.250  0.0969  0.3056  0.2328
  176SOPE   C3119996   5.669   4.316  10.134  0.0046 -0.3257 -0.0590
  176SOPE   O3219997   5.677   4.434  10.111 -0.2352 -0.2209 -0.0412
  176SOPE   C3219998   5.610   4.217  10.038 -0.1756 -0.0524 -0.6216
  176SOPE   H2X19999   5.500   4.223  10.058  0.0529  0.6500  0.5158
  176SOPE   H2Y20000   5.645   4.116  10.069  0.4970  0.4019  0.1460
  176SOPE   C2320001   6.076   4.380   9.952 -0.8319 -0.4085  0.3719
  176SOPE   H3R20002   5.988   4.313   9.963 -1.5319  0.0947 -1.6484
  176SOPE   H3S20003   6.165   4.314   9.960 -1.3518 -0.9984  1.5997
  176SOPE   C2420004   6.069   4.439   9.808  0.3868 -0.2103  0.7088
  176SOPE   H4R20005   6.000   4.525   9.811 -0.4980 -0.8853  0.1947
  176SOPE   H4S20006   6.163   4.496   9.791 -0.3011  1.1236  1.2301
  176SOPE   C2520007   6.036   4.329   9.708  0.0916  0.0841  1.2747
  176SOPE   H5R20008   6.119   4.256   9.693 -0.6355 -0.5628  0.2479
  176SOPE   H5S20009   5.952   4.265   9.743  1.3786 -1.8581  0.9902
  176SOPE   C2620010   5.981   4.394   9.577 -0.2660  0.0965  0.3120
  176SOPE   H6R20011   5.959   4.311   9.507 -0.7320  0.1415  0.3995
  176SOPE   H6S20012   5.880   4.440   9.578 -1.0291 -1.5046  1.6378
  176SOPE   C2720013   6.081   4.475   9.500 -0.2325  0.3065  0.4808
  176SOPE   H7R20014   6.075   4.583   9.521 -0.3875  0.4999 -0.5102
  176SOPE   H7S20015   6.180   4.440   9.536 -0.5735  0.0884  1.2126
  176SOPE   C2820016   6.066   4.459   9.344  0.3729 -0.1040 -0.1528
  176SOPE   H8R20017   5.958   4.460   9.319  0.1139 -3.0171  0.5242
  176SOPE   H8S20018   6.102   4.551   9.294 -1.5495  1.2305  0.8185
  176SOPE   C2920019   6.120   4.335   9.284 -0.1632 -0.5318 -0.4706
  176SOPE   H9120020   6.112   4.260   9.364 -0.0119  0.6909  0.7299
  176SOPE  C21020021   6.159   4.313   9.157  0.1201  0.0109 -0.1268
  176SOPE  H10120022   6.188   4.212   9.123 -3.1552 -0.7933 -0.9621
  176SOPE  C21120023   6.161   4.412   9.051  0.1744  0.2391  0.4126
  176SOPE  H11R20024   6.258   4.396   9.000 -0.6835 -2.3726 -0.5845
  176SOPE  H11S20025   6.165   4.516   9.088 -0.2525  0.5537 -0.4184
  176SOPE  C21220026   6.053   4.396   8.944  0.5809  0.5617  0.4597
  176SOPE  H12R20027   5.983   4.473   8.986  1.7458  1.1175  1.4573
  176SOPE  H12S20028   6.007   4.296   8.934  1.3819  0.1819  0.5551
  176SOPE  C21320029   6.092   4.437   8.804  0.0272  0.4454 -0.2629
  176SOPE  H13R20030   6.150   4.532   8.813 -0.5577  0.6793  1.3462
  176SOPE  H13S20031   6.001   4.454   8.743 -0.7787  1.1447  1.1007
  176SOPE  C21420032   6.177   4.331   8.728  0.2914 -0.5846 -0.3858
  176SOPE  H14R20033   6.106   4.250   8.701 -0.0611 -0.0033 -1.2419
  176SOPE  H14S20034   6.256   4.306   8.801  0.8361 -0.3606 -0.8922
  176SOPE  C21520035   6.248   4.388   8.602  0.0983  0.2105 -0.6918
  176SOPE  H15R20036   6.316   4.309   8.564  0.2896  0.4899 -0.9374
  176SOPE  H15S20037   6.313   4.476   8.618 -0.7139  0.8024 -0.5619
  176SOPE  C21620038   6.146   4.441   8.499 -0.0400  0.5112  0.4464
  176SOPE  H16R20039   6.128   4.549   8.517  2.1453  1.0798 -0.4546
  176SOPE  H16S20040   6.052   4.381   8.495  0.5327 -0.4066  0.5290
  176SOPE  C21720041   6.232   4.437   8.359  0.3023  0.0031 -0.8059
  176SOPE  H17R20042   6.156   4.475   8.288 -1.6321 -0.3515  0.9644
  176SOPE  H17S20043   6.250   4.329   8.337 -0.5237 -0.4257  0.5112
  176SOPE  C21820044   6.356   4.511   8.358  0.0737 -0.5498 -0.0435
  176SOPE  H18R20045   6.423   4.499   8.446  0.6950  0.4634 -0.3654
  176SOPE  H18S20046   6.338   4.621   8.350  1.8686  0.0784  2.9594
  176SOPE  H18T20047   6.407   4.480   8.265  2.0218  1.8582  0.0981
  176SOPE   C3320048   5.638   4.242   9.889 -0.2346  0.4261  0.0301
  176SOPE   H3X20049   5.746   4.219   9.875 -0.5359  0.4763 -3.0661
  176SOPE   H3Y20050   5.621   4.349   9.862 -1.0726 -0.1305 -1.7834
  176SOPE   C3420051   5.558   4.141   9.808 -0.0070 -0.8800  0.4409
  176SOPE   H4X20052   5.452   4.149   9.841 -0.2783  0.8514 -0.7197
  176SOPE   H4Y20053   5.588   4.039   9.843 -0.0075 -0.8716  0.4676
  176SOPE   C3520054   5.567   4.151   9.658 -0.5671 -0.4341  1.1871
  176SOPE   H5X20055   5.488   4.082   9.623 -1.0831 -0.4381  2.3126
  176SOPE   H5Y20056   5.668   4.116   9.627 -0.2435  0.8292  0.7815
  176SOPE   C3620057   5.537   4.291   9.593  0.2596  0.4934 -0.7733
  176SOPE   H6X20058   5.629   4.349   9.617 -0.7014  2.5193 -1.7741
  176SOPE   H6Y20059   5.448   4.334   9.642 -1.0001 -0.3119 -2.2674
  176SOPE   C3720060   5.518   4.286   9.443  0.2830  0.3890 -1.2267
  176SOPE   H7X20061   5.516   4.390   9.402  0.6836  0.0040 -2.2525
  176SOPE   H7Y20062   5.425   4.235   9.408  1.1408 -1.3584 -1.0422
  176SOPE   C3820063   5.630   4.217   9.371  0.1465 -0.2382 -0.5590
  176SOPE   H8X20064   5.622   4.108   9.392  2.1341 -0.4079 -0.5129
  176SOPE   H8Y20065   5.724   4.254   9.418 -0.9694  1.7753  0.2628
  176SOPE   C3920066   5.637   4.253   9.220  0.2305  0.0996  0.3236
  176SOPE   H9X20067   5.735   4.219   9.180 -0.4631  1.9695 -3.4398
  176SOPE   H9Y20068   5.625   4.360   9.191 -1.6670  0.1754  1.2463
  176SOPE  C31020069   5.537   4.167   9.145 -0.4954 -0.2178  0.0188
  176SOPE  H10X20070   5.445   4.225   9.124 -1.8507 -2.0099  0.7251
  176SOPE  H10Y20071   5.478   4.088   9.197 -0.9211 -0.7079 -1.1669
  176SOPE  C31120072   5.585   4.130   9.002 -0.4062 -0.5216 -0.0819
  176SOPE  H11X20073   5.507   4.061   8.962 -1.7978  1.5139 -1.0284
  176SOPE  H11Y20074   5.685   4.081   8.996  2.0098  3.9822 -0.8463
  176SOPE  C31220075   5.590   4.258   8.926  0.3917  0.0422  0.0206
  176SOPE  H12X20076   5.679   4.313   8.962 -0.1179 -0.2424  1.8279
  176SOPE  H12Y20077   5.506   4.330   8.941  1.5060  1.3587  0.0892
  176SOPE  C31320078   5.599   4.242   8.766  0.0170  0.0016  0.0020
  176SOPE  H13X20079   5.585   4.346   8.729 -1.2877 -0.0938  0.1919
  176SOPE  H13Y20080   5.523   4.169   8.729 -0.0081 -0.7817  1.5473
  176SOPE  C31420081   5.726   4.179   8.724  0.5140 -0.5937  0.6616
  176SOPE  H14X20082   5.761   4.101   8.794  0.4693  1.5367  3.2285
  176SOPE  H14Y20083   5.802   4.261   8.720 -1.5346  1.4818  1.7078
  176SOPE  C31520084   5.724   4.113   8.582  0.4160 -0.1656 -0.2953
  176SOPE  H15X20085   5.675   4.181   8.509  0.6705  0.2159 -0.1152
  176SOPE  H15Y20086   5.659   4.023   8.585  1.2161 -0.7353  0.3892
  176SOPE  C31620087   5.860   4.076   8.526 -0.3196  0.8734  0.0127
  176SOPE  H16X20088   5.922   3.999   8.578  1.8362  1.9882 -0.7734
  176SOPE  H16Y20089   5.918   4.170   8.541 -0.4839  0.7732  1.4471
  176SOPE  C31720090   5.856   4.030   8.377 -0.6077  0.5636 -0.3381
  176SOPE  H17X20091   5.782   4.098   8.329 -1.2860  1.4096  1.7974
  176SOPE  H17Y20092   5.831   3.922   8.368 -0.8803  0.7668 -2.9409
  176SOPE  C31820093   5.996   4.055   8.315  0.3214 -0.2313 -0.1344
  176SOPE  H18X20094   5.975   4.061   8.206 -0.6729 -1.3234 -0.0246
  176SOPE  H18Y20095   6.066   3.979   8.355  0.2746  0.3256  1.0659
  176SOPE  H18Z20096   6.043   4.149   8.350  0.9967 -1.0224  1.1779
  177SOPE     N20097   4.764   1.602  10.763 -0.4705  0.0322 -0.0621
  177SOPE   HN120098   4.821   1.682  10.731  1.3988 -2.5172 -3.9480
  177SOPE   HN220099   4.780   1.521  10.699 -0.9782  0.0090 -0.1634
  177SOPE   HN320100   4.664   1.631  10.755 -0.6196 -0.9173 -2.7459
  177SOPE   C1220101   4.792   1.567  10.902  0.4912  0.5931 -1.1089
  177SOPE  H12A20102   4.721   1.489  10.937  1.5116  0.9952  2.2341
  177SOPE  H12B20103   4.776   1.652  10.971  0.4931 -0.5644  0.3626
  177SOPE   C1120104   4.932   1.500  10.913 -0.2369  0.6975  0.2140
  177SOPE  H11A20105   4.944   1.436  11.003 -0.0371 -1.4004 -1.2272
  177SOPE  H11B20106   5.006   1.583  10.920 -2.1639  2.3142  5.0075
  177SOPE     P20107   5.094   1.410  10.725 -0.0430 -0.2556  0.4866
  177SOPE   O1320108   5.090   1.322  10.611  0.8523  0.7796  0.6165
  177SOPE   O1420109   5.205   1.381  10.819 -0.2549  0.1505 -0.6461
  177SOPE   O1220110   4.961   1.413  10.799 -0.5202 -0.5863 -0.2293
  177SOPE   O1120111   5.105   1.558  10.669  0.7900  0.4047  0.2001
  177SOPE    C120112   5.083   1.594  10.529  0.0978  0.3403 -0.3024
  177SOPE    HA20113   5.071   1.705  10.531  1.4390  0.4859  0.0450
  177SOPE    HB20114   4.983   1.563  10.492 -0.5560  0.5515  1.2228
  177SOPE    C220115   5.212   1.568  10.441 -0.9850 -0.4942 -0.1932
  177SOPE    HS20116   5.197   1.637  10.355  1.0335  0.0060 -0.1930
  177SOPE   O2120117   5.229   1.435  10.390  0.8375  0.2561 -0.1196
  177SOPE   C2120118   5.153   1.394  10.291  0.6520 -0.6619  0.4429
  177SOPE   O2220119   5.079   1.469  10.225  1.0271  0.1053 -0.6561
  177SOPE   C2220120   5.167   1.239  10.268 -0.0469  0.3463 -0.3557
  177SOPE   H2R20121   5.087   1.181  10.319 -0.5816  0.9717 -0.4707
  177SOPE   H2S20122   5.265   1.202  10.306 -0.2406 -0.7891 -0.9280
  177SOPE    C320123   5.340   1.616  10.518  0.2186  0.0139 -0.5201
  177SOPE    HX20124   5.344   1.554  10.611  0.4061 -0.1607 -0.6429
  177SOPE    HY20125   5.319   1.719  10.554 -1.3793 -0.6914  0.7100
  177SOPE   O3120126   5.459   1.605  10.436 -0.3294  0.4135 -0.1297
  177SOPE   C3120127   5.473   1.700  10.345  0.4485  0.1617  0.1161
  177SOPE   O3220128   5.399   1.792  10.320  0.4712  0.4759  0.4674
  177SOPE   C3220129   5.608   1.697  10.271 -0.0495  0.0308  0.2018
  177SOPE   H2X20130   5.660   1.604  10.301  1.6729  1.2420  1.1478
  177SOPE   H2Y20131   5.666   1.786  10.305  2.1864 -1.5694  0.7386
  177SOPE   C2320132   5.169   1.203  10.117 -0.1196 -0.1380 -0.0191
  177SOPE   H3R20133   5.078   1.241  10.066  0.3755 -0.1696 -0.9460
  177SOPE   H3S20134   5.181   1.095  10.098 -0.0806  0.0476 -1.0985
  177SOPE   C2420135   5.290   1.259  10.040 -0.2792 -0.1348  0.3736
  177SOPE   H4R20136   5.286   1.367  10.011  0.5589 -0.5987 -1.6027
  177SOPE   H4S20137   5.387   1.251  10.093  0.0483  1.0432 -0.0023
  177SOPE   C2520138   5.306   1.186   9.903 -0.1043 -0.2208  0.3091
  177SOPE   H5R20139   5.303   1.077   9.922  0.1936 -0.0479  1.4172
  177SOPE   H5S20140   5.221   1.209   9.834  0.4476 -1.8963 -0.9970
  177SOPE   C2620141   5.440   1.221   9.842 -0.4420 -0.4235  0.4341
  177SOPE   H6R20142   5.446   1.328   9.871  0.8242 -1.1247  3.1008
  177SOPE   H6S20143   5.519   1.165   9.896 -1.0472 -3.0020 -1.1901
  177SOPE   C2720144   5.447   1.203   9.689  0.5641  0.3170  0.7828
  177SOPE   H7R20145   5.434   1.097   9.659 -0.2890  0.9297 -1.1911
  177SOPE   H7S20146   5.359   1.265   9.659 -0.9731 -1.6703  0.9370
  177SOPE   C2820147   5.569   1.271   9.618 -0.8152  0.1012  0.5255
  177SOPE   H8R20148   5.570   1.257   9.508  1.9741  0.9886  0.3487
  177SOPE   H8S20149   5.559   1.379   9.641  0.1828 -0.0994  2.1012
  177SOPE   C2920150   5.703   1.231   9.681  0.0001 -1.3189  0.0130
  177SOPE   H9120151   5.711   1.262   9.786  1.2904  2.0495 -0.9241
  177SOPE  C21020152   5.806   1.164   9.627 -0.0978  0.5206 -0.2542
  177SOPE  H10120153   5.900   1.158   9.683 -0.0647 -0.9338 -0.4133
  177SOPE  C21120154   5.815   1.105   9.489 -0.2786  0.1405 -0.1639
  177SOPE  H11R20155   5.786   1.181   9.413  0.1892  0.9241  0.4180
  177SOPE  H11S20156   5.743   1.021   9.493  0.8851 -0.9029 -0.3634
  177SOPE  C21220157   5.963   1.055   9.456  0.2070 -0.4106 -0.5004
  177SOPE  H12R20158   5.949   0.982   9.374 -0.0011  0.2183 -1.0386
  177SOPE  H12S20159   6.000   0.998   9.543 -0.6544 -1.6048 -0.8872
  177SOPE  C21320160   6.056   1.171   9.415 -0.1082 -0.5706  0.1863
  177SOPE  H13R20161   6.152   1.116   9.423  0.0747 -0.4086 -0.8002
  177SOPE  H13S20162   6.055   1.256   9.488 -0.4628  0.8137 -1.3671
  177SOPE  C21420163   6.064   1.227   9.272  0.6149 -0.2312 -0.3460
  177SOPE  H14R20164   6.129   1.317   9.275  1.7288 -0.9864 -0.8916
  177SOPE  H14S20165   5.960   1.258   9.248  1.4085  1.6050 -1.6296
  177SOPE  C21520166   6.103   1.124   9.169  0.3997  0.3845  0.0137
  177SOPE  H15R20167   6.055   1.139   9.070  2.7172  0.1711 -1.2160
  177SOPE  H15S20168   6.092   1.024   9.216 -0.4042  0.9949  1.1723
  177SOPE  C21620169   6.253   1.138   9.148 -0.7007 -0.4479 -0.1785
  177SOPE  H16R20170   6.321   1.124   9.235 -1.7956 -1.1623  0.5931
  177SOPE  H16S20171   6.252   1.246   9.123  1.5968 -0.2784  0.2666
  177SOPE  C21720172   6.308   1.061   9.021 -0.1021 -0.7344  0.1863
  177SOPE  H17R20173   6.405   1.105   8.991  0.2532  0.0686  2.3444
  177SOPE  H17S20174   6.225   1.071   8.947 -0.3303 -0.7704  0.4337
  177SOPE  C21820175   6.344   0.913   9.055  0.2045 -0.4363  0.6245
  177SOPE  H18R20176   6.396   0.869   8.968  0.4029  1.9430 -0.5453
  177SOPE  H18S20177   6.248   0.867   9.089  0.1266 -0.6159  0.1682
  177SOPE  H18T20178   6.415   0.901   9.140  1.2509 -2.8476 -0.4847
  177SOPE   C3320179   5.576   1.681  10.130 -0.5736  0.8086  0.5755
  177SOPE   H3X20180   5.520   1.770  10.096  0.1658  1.3881  0.8528
  177SOPE   H3Y20181   5.517   1.587  10.120  1.8923 -1.1256  2.8013
  177SOPE   C3420182   5.701   1.668  10.052 -0.2839  0.1121 -0.1525
  177SOPE   H4X20183   5.776   1.599  10.097  0.0561  0.3951 -0.2786
  177SOPE   H4Y20184   5.754   1.765  10.048  1.5940 -0.8323  0.7075
  177SOPE   C3520185   5.671   1.632   9.899 -0.5341 -0.1099 -0.6662
  177SOPE   H5X20186   5.592   1.698   9.856  1.0802  2.2210 -0.2546
  177SOPE   H5Y20187   5.635   1.527   9.895 -2.2414  0.4574 -1.0173
  177SOPE   C3620188   5.801   1.652   9.810  0.5983  0.4692  0.5253
  177SOPE   H6X20189   5.885   1.616   9.872 -1.1187  0.4069  2.9432
  177SOPE   H6Y20190   5.812   1.762   9.812 -0.9761  0.6479  1.3347
  177SOPE   C3720191   5.788   1.597   9.667 -0.2118 -0.0495 -0.4117
  177SOPE   H7X20192   5.700   1.638   9.613  0.8618  2.2657 -0.5170
  177SOPE   H7Y20193   5.767   1.488   9.669 -0.8739  0.0819  0.8658
  177SOPE   C3820194   5.919   1.613   9.580 -0.0544  0.1659  0.0044
  177SOPE   H8X20195   6.003   1.578   9.644 -1.3854 -0.6472  1.3722
  177SOPE   H8Y20196   5.939   1.722   9.571 -0.4056  0.3377  1.1432
  177SOPE   C3920197   5.918   1.540   9.450 -0.3296 -0.1715 -0.4049
  177SOPE   H9X20198   5.877   1.437   9.461 -0.0748 -0.0886  1.9889
  177SOPE   H9Y20199   6.024   1.521   9.422 -0.6190 -1.2659 -0.8310
  177SOPE  C31020200   5.833   1.607   9.344  0.1252  0.2810 -0.3423
  177SOPE  H10X20201   5.867   1.713   9.346  1.8297 -0.2380  0.4725
  177SOPE  H10Y20202   5.729   1.602   9.382  0.5980 -0.8222  0.8960
  177SOPE  C31120203   5.843   1.546   9.203 -0.3262  0.6025 -0.3281
  177SOPE  H11X20204   5.774   1.596   9.133 -1.5015 -0.5719 -0.0610
  177SOPE  H11Y20205   5.808   1.440   9.197  1.8686 -0.1529 -1.0343
  177SOPE  C31220206   5.980   1.565   9.136 -0.8088 -0.4979  0.0557
  177SOPE  H12X20207   6.070   1.552   9.200  0.5726  2.4497 -1.1331
  177SOPE  H12Y20208   5.983   1.671   9.105 -1.3364  0.1006  1.9195
  177SOPE  C31320209   6.001   1.473   9.011 -0.1339  0.1096 -0.3708
  177SOPE  H13X20210   5.922   1.492   8.935 -0.5296 -0.9548 -0.2365
  177SOPE  H13Y20211   5.993   1.368   9.046 -0.7347  0.1185 -0.4672
  177SOPE  C31420212   6.127   1.507   8.936 -0.1395  0.2369 -0.0575
  177SOPE  H14X20213   6.209   1.471   9.003 -0.2553  0.7008  0.3407
  177SOPE  H14Y20214   6.127   1.618   8.939 -0.7841  0.2603  3.5736
  177SOPE  C31520215   6.148   1.453   8.795 -0.1336 -0.4808  0.5441
  177SOPE  H15X20216   6.240   1.504   8.758 -1.1669  0.9598 -0.1473
  177SOPE  H15Y20217   6.068   1.492   8.729 -0.8143 -1.9148  0.4867
  177SOPE  C31620218   6.147   1.301   8.785 -0.0127  0.2892  0.4094
  177SOPE  H16X20219   6.046   1.267   8.818 -0.2244 -0.0953 -0.5993
  177SOPE  H16Y20220   6.230   1.254   8.842  0.4346 -0.7655 -1.0304
  177SOPE  C31720221   6.168   1.248   8.641  0.1018 -0.2619  0.6766
  177SOPE  H17X20222   6.266   1.286   8.606 -1.0398 -0.0476 -2.6493
  177SOPE  H17Y20223   6.099   1.290   8.565 -0.4204 -0.0556  1.2535
  177SOPE  C31820224   6.168   1.093   8.631 -0.5007  0.4123  0.1342
  177SOPE  H18X20225   6.215   1.061   8.727  0.7088  3.0763  0.5184
  177SOPE  H18Y20226   6.230   1.060   8.544 -0.6272 -0.0351  0.2120
  177SOPE  H18Z20227   6.069   1.045   8.620  0.2496 -1.7893  2.0709
  178SOPE     N20228   0.849   0.991  10.433  0.2055  0.3189  0.0212
  178SOPE   HN120229   0.785   1.059  10.478  0.6902  0.8304 -0.0500
  178SOPE   HN220230   0.813   0.946  10.347 -1.6265 -0.2880  1.0436
  178SOPE   HN320231   0.868   0.909  10.494 -0.4894  0.0426 -0.1292
  178SOPE   C1220232   0.985   1.058  10.417 -0.3125  0.1736  0.1483
  178SOPE  H12A20233   1.010   1.101  10.516 -0.3086 -0.4180  0.4023
  178SOPE  H12B20234   0.982   1.142  10.343  0.3907  1.3159  1.3766
  178SOPE   C1120235   1.093   0.961  10.374 -1.2253  0.3101  0.0774
  178SOPE  H11A20236   1.187   1.018  10.383  1.1586 -2.4529 -3.9073
  178SOPE  H11B20237   1.081   0.947  10.264 -0.6366 -1.6825  0.2152
  178SOPE     P20238   1.216   0.745  10.476 -0.5521  0.4004  0.1025
  178SOPE   O1320239   1.176   0.606  10.483 -0.1338  0.0434 -0.1514
  178SOPE   O1420240   1.296   0.796  10.589 -0.1500 -0.3705  0.9441
  178SOPE   O1220241   1.090   0.835  10.450 -0.5953 -0.2156  0.0440
  178SOPE   O1120242   1.308   0.770  10.350 -0.0985 -0.1336 -0.1744
  178SOPE    C120243   1.343   0.668  10.248 -0.2879 -0.5569 -1.0887
  178SOPE    HA20244   1.305   0.570  10.284  0.5605 -0.3703  0.3786
  178SOPE    HB20245   1.451   0.674  10.223 -0.3158  2.6803 -0.9102
  178SOPE    C220246   1.280   0.695  10.114  0.9714 -0.3145 -0.0344
  178SOPE    HS20247   1.169   0.693  10.121  0.9912 -0.2478  0.2980
  178SOPE   O2120248   1.330   0.604  10.018 -0.0593 -0.2316  0.3028
  178SOPE   C2120249   1.281   0.476  10.028  0.7113  0.4702  0.3819
  178SOPE   O2220250   1.183   0.445  10.094 -0.5453 -0.0684 -0.1083
  178SOPE   C2220251   1.365   0.389   9.937 -0.2444  0.2685  0.7889
  178SOPE   H2R20252   1.303   0.309   9.891  3.9773 -1.7668 -2.0577
  178SOPE   H2S20253   1.436   0.327   9.995  1.2269 -0.0302 -1.2302
  178SOPE    C320254   1.315   0.843  10.072  0.2255  0.2897  0.2341
  178SOPE    HX20255   1.426   0.842  10.071  0.2482  1.2741 -1.5496
  178SOPE    HY20256   1.270   0.902  10.155  0.9729 -0.3436  1.1221
  178SOPE   O3120257   1.265   0.889   9.947 -0.0728  0.2352 -0.1694
  178SOPE   C3120258   1.263   1.020   9.932 -0.1126  0.1385  0.5847
  178SOPE   O3220259   1.283   1.105  10.019 -0.1131  0.1446 -0.0933
  178SOPE   C3220260   1.239   1.048   9.788 -0.2609  0.0182  0.1904
  178SOPE   H2X20261   1.131   1.066   9.769 -0.0940  0.9538  0.1045
  178SOPE   H2Y20262   1.283   0.964   9.730  1.8769  0.6437  0.7876
  178SOPE   C2320263   1.450   0.459   9.825  0.7633 -0.0064  0.1678
  178SOPE   H3R20264   1.490   0.375   9.764  2.1662  1.4070 -0.9427
  178SOPE   H3S20265   1.533   0.512   9.876  1.6106  0.2308 -1.3873
  178SOPE   C2420266   1.375   0.544   9.715 -0.4173 -0.3598  0.3941
  178SOPE   H4R20267   1.363   0.651   9.741 -2.9669 -0.1653 -1.2136
  178SOPE   H4S20268   1.425   0.542   9.616  0.8117  3.4298  0.7729
  178SOPE   C2520269   1.232   0.500   9.683  0.0214 -0.0901  0.3223
  178SOPE   H5R20270   1.227   0.410   9.617 -0.1265  0.8297 -0.9614
  178SOPE   H5S20271   1.164   0.500   9.771  0.1309  3.3400  0.5198
  178SOPE   C2620272   1.162   0.604   9.588  0.0960  0.0664  0.3875
  178SOPE   H6R20273   1.136   0.699   9.639  2.7280  1.1896 -0.1678
  178SOPE   H6S20274   1.239   0.632   9.513 -2.8456  0.3586 -2.7116
  178SOPE   C2720275   1.037   0.550   9.520 -0.6037  0.5449 -0.0204
  178SOPE   H7R20276   1.057   0.449   9.477  1.0051  0.2158  1.3899
  178SOPE   H7S20277   0.965   0.555   9.604 -0.9850  0.6023 -0.3515
  178SOPE   C2820278   0.982   0.644   9.413 -0.3595 -0.6970 -0.4778
  178SOPE   H8R20279   0.931   0.726   9.468  0.5972 -0.8250  0.6356
  178SOPE   H8S20280   1.064   0.699   9.361  0.2909  0.5156  1.6860
  178SOPE   C2920281   0.876   0.582   9.328  0.8827 -0.1464  0.2317
  178SOPE   H9120282   0.803   0.517   9.378 -0.6627  0.4318 -1.1585
  178SOPE  C21020283   0.863   0.596   9.197 -0.2687 -0.2458 -0.6846
  178SOPE  H10120284   0.780   0.542   9.148 -1.1896  1.2328 -0.8225
  178SOPE  C21120285   0.946   0.661   9.098  0.0529 -0.7955 -0.2353
  178SOPE  H11R20286   1.054   0.674   9.122  0.5025 -2.9008 -0.8965
  178SOPE  H11S20287   0.914   0.765   9.073  1.2689 -0.4534 -0.4395
  178SOPE  C21220288   0.952   0.582   8.966 -0.4612  0.3092 -0.1464
  178SOPE  H12R20289   1.017   0.632   8.890  0.7796  2.4844  2.1843
  178SOPE  H12S20290   0.852   0.589   8.918 -0.2065  2.2489 -0.4694
  178SOPE  C21320291   0.998   0.435   8.973  0.5693 -0.8660 -0.1352
  178SOPE  H13R20292   0.953   0.374   9.054  0.8862 -0.0312  0.6953
  178SOPE  H13S20293   1.109   0.430   8.987  0.3229 -1.9872  1.9285
  178SOPE  C21420294   0.977   0.366   8.834 -0.0681 -0.9228 -0.5662
  178SOPE  H14R20295   0.872   0.381   8.803  0.1555 -0.1687 -0.9804
  178SOPE  H14S20296   0.982   0.256   8.850  1.8760 -0.6895  0.8328
  178SOPE  C21520297   1.083   0.394   8.728 -0.3124 -0.6242  0.2409
  178SOPE  H15R20298   1.176   0.337   8.749 -0.2579 -0.7423 -0.2876
  178SOPE  H15S20299   1.096   0.504   8.733 -0.2636 -0.5593 -0.9697
  178SOPE  C21620300   1.039   0.345   8.590 -0.8874  0.0244  0.0105
  178SOPE  H16R20301   1.100   0.407   8.520 -2.5806  2.8249  0.8946
  178SOPE  H16S20302   0.939   0.380   8.558 -0.7256 -0.1752 -0.7343
  178SOPE  C21720303   1.053   0.195   8.575  0.1459  0.2320  0.6076
  178SOPE  H17R20304   1.031   0.152   8.675  0.4172  1.1228  1.0565
  178SOPE  H17S20305   1.162   0.177   8.568 -0.1382 -2.3296  1.4439
  178SOPE  C21820306   0.979   0.114   8.460  0.5434 -0.2184  0.1117
  178SOPE  H18R20307   0.871   0.138   8.465  0.0631 -1.9162 -1.3195
  178SOPE  H18S20308   0.987   0.003   8.465  0.5410 -0.3600 -2.1207
  178SOPE  H18T20309   1.024   0.141   8.362 -1.1297 -0.2921 -0.7010
  178SOPE   C3320310   1.325   1.181   9.749 -0.5407  0.2171  0.0979
  178SOPE   H3X20311   1.345   1.190   9.640  0.8504  0.7407  0.3768
  178SOPE   H3Y20312   1.427   1.177   9.791 -0.7821  0.0349  0.6756
  178SOPE   C3420313   1.273   1.319   9.801  0.4506  0.0580 -0.5523
  178SOPE   H4X20314   1.352   1.395   9.782  0.3257  0.1662 -0.6313
  178SOPE   H4Y20315   1.266   1.332   9.911 -1.1357  3.0057 -0.9053
  178SOPE   C3520316   1.139   1.369   9.739 -0.1501 -0.1501  0.3136
  178SOPE   H5X20317   1.134   1.478   9.763 -0.9689  0.0371 -0.6540
  178SOPE   H5Y20318   1.060   1.316   9.796 -0.6508 -1.4757 -1.5193
  178SOPE   C3620319   1.101   1.339   9.590 -0.3728  0.2513  0.2027
  178SOPE   H6X20320   0.994   1.353   9.566  0.6238  2.0667 -4.4351
  178SOPE   H6Y20321   1.123   1.232   9.571 -0.4784 -0.1408  2.1376
  178SOPE   C3720322   1.178   1.414   9.489 -0.0967 -0.0568 -0.0881
  178SOPE   H7X20323   1.286   1.408   9.512  0.3332 -1.6561 -2.1735
  178SOPE   H7Y20324   1.132   1.515   9.486  1.8683  0.9143  0.6819
  178SOPE   C3820325   1.168   1.353   9.354  0.2042  0.0157  0.5696
  178SOPE   H8X20326   1.091   1.398   9.288 -0.2070 -0.7413  0.5261
  178SOPE   H8Y20327   1.131   1.250   9.372  1.1214  0.0663  3.1098
  178SOPE   C3920328   1.294   1.353   9.265  0.1791 -0.1535  0.1455
  178SOPE   H9X20329   1.364   1.291   9.325 -0.2848 -0.7979  0.0268
  178SOPE   H9Y20330   1.355   1.445   9.249  0.7462 -0.6685 -0.7829
  178SOPE  C31020331   1.276   1.290   9.131  0.2451 -0.4758  0.0120
  178SOPE  H10X20332   1.193   1.218   9.149  0.8217 -0.7513  1.7744
  178SOPE  H10Y20333   1.372   1.240   9.106  0.4804  0.1194 -0.2785
  178SOPE  C31120334   1.239   1.394   9.017  0.5703  0.2698 -0.1594
  178SOPE  H11X20335   1.297   1.489   9.020  0.4138  0.3886 -0.8398
  178SOPE  H11Y20336   1.135   1.433   9.028  0.9405  1.0109  0.8355
  178SOPE  C31220337   1.254   1.336   8.878 -0.0659 -0.1540  0.4501
  178SOPE  H12X20338   1.213   1.233   8.879  0.3611 -0.3750  3.2622
  178SOPE  H12Y20339   1.360   1.313   8.855  1.1741  3.6268  1.7043
  178SOPE  C31320340   1.187   1.412   8.758 -0.5123 -0.4062 -0.9747
  178SOPE  H13X20341   1.219   1.517   8.776 -0.7861 -0.5775  0.7717
  178SOPE  H13Y20342   1.077   1.416   8.772 -0.2456  1.0682  1.2533
  178SOPE  C31420343   1.254   1.370   8.625 -0.0302  0.0918 -0.0467
  178SOPE  H14X20344   1.364   1.380   8.634 -0.1048  1.3398 -0.4092
  178SOPE  H14Y20345   1.210   1.439   8.551 -2.4887 -0.2550  0.9882
  178SOPE  C31520346   1.231   1.221   8.592  0.0272  0.1851  0.7046
  178SOPE  H15X20347   1.121   1.207   8.589 -0.6905  4.3419  1.2230
  178SOPE  H15Y20348   1.266   1.157   8.676  0.8830 -1.0648 -0.5614
  178SOPE  C31620349   1.305   1.179   8.464  0.2804  0.0273  0.2305
  178SOPE  H16X20350   1.414   1.166   8.485  0.1611  2.0509  2.5482
  178SOPE  H16Y20351   1.280   1.253   8.386  2.9398  0.3130 -0.4661
  178SOPE  C31720352   1.233   1.054   8.406 -0.6895 -0.3966 -0.2958
  178SOPE  H17X20353   1.276   1.036   8.306 -1.0175 -2.6189 -0.0739
  178SOPE  H17Y20354   1.124   1.071   8.402 -0.6965 -0.4612 -0.3644
  178SOPE  C31820355   1.268   0.929   8.482  0.3703 -0.5412  0.0496
  178SOPE  H18X20356   1.379   0.919   8.483  0.5107  0.7648  1.5658
  178SOPE  H18Y20357   1.237   0.841   8.422  3.1856 -1.1122 -0.7308
  178SOPE  H18Z20358   1.223   0.931   8.584  2.0469 -1.8121  0.8680
  179SOPE     N20359   1.987   2.075   6.553 -0.7400 -0.6697  0.5400
  179SOPE   HN120360   1.995   2.146   6.628  3.3803 -0.8990  0.5766
  179SOPE   HN220361   1.897   2.084   6.502  1.0330  1.6925 -2.4952
  179SOPE   HN320362   1.984   1.976   6.587 -1.5874 -0.7011  0.3967
  179SOPE   C1220363   2.089   2.100   6.453 -0.2158  0.0053  0.3851
  179SOPE  H12A20364   2.186   2.067   6.496  0.1397  0.1448 -0.2840
  179SOPE  H12B20365   2.092   2.205   6.416  2.8698 -0.3430 -0.6489
  179SOPE   C1120366   2.058   2.003   6.329 -0.7152 -0.2924 -0.4125
  179SOPE  H11A20367   2.012   1.910   6.368 -1.3697  0.5235  0.8141
  179SOPE  H11B20368   2.154   1.978   6.279 -0.2450 -0.6974  0.6573
  179SOPE     P20369   1.803   2.045   6.234 -0.3223  0.3792  0.1896
  179SOPE   O1320370   1.768   1.900   6.207  0.0222 -0.2497  0.8324
  179SOPE   O1420371   1.731   2.154   6.164 -0.2205  0.2425 -0.2691
  179SOPE   O1220372   1.962   2.072   6.241 -0.3921 -0.2249  0.2409
  179SOPE   O1120373   1.774   2.065   6.384 -0.2089 -0.5661 -0.2733
  179SOPE    C120374   1.642   2.048   6.427 -0.1136 -0.2477 -0.4279
  179SOPE    HA20375   1.573   2.014   6.347 -0.2084 -0.7651 -0.1274
  179SOPE    HB20376   1.603   2.146   6.463 -1.8282 -1.6884  1.8770
  179SOPE    C220377   1.633   1.957   6.548 -0.1696  0.4430 -0.1908
  179SOPE    HS20378   1.528   1.940   6.579 -0.2737  0.3891 -0.5665
  179SOPE   O2120379   1.716   1.999   6.659 -0.5185  0.0575 -0.4352
  179SOPE   C2120380   1.672   2.102   6.735  0.1467 -0.3818  0.1787
  179SOPE   O2220381   1.579   2.173   6.708 -0.0025  0.0823  0.3159
  179SOPE   C2220382   1.747   2.103   6.866 -0.1444 -0.5674  0.4199
  179SOPE   H2R20383   1.778   2.205   6.898  1.7083  0.2531 -3.4367
  179SOPE   H2S20384   1.848   2.059   6.856 -0.6126 -1.9465  1.4683
  179SOPE    C320385   1.677   1.810   6.515 -0.5427 -0.2088  0.6499
  179SOPE    HX20386   1.786   1.812   6.495  0.4042  0.2431  4.8733
  179SOPE    HY20387   1.627   1.786   6.419 -1.4562 -2.5053  1.6027
  179SOPE   O3120388   1.635   1.732   6.626 -0.7486 -0.3646  0.5479
  179SOPE   C3120389   1.522   1.663   6.611 -0.6803 -0.3619  0.5324
  179SOPE   O3220390   1.453   1.659   6.509 -0.2751 -0.0386  0.2580
  179SOPE   C3220391   1.500   1.575   6.733  0.4994  0.3613  0.1560
  179SOPE   H2X20392   1.592   1.527   6.773 -0.0973 -1.8473 -0.9316
  179SOPE   H2Y20393   1.427   1.500   6.695 -0.7038  0.4521  2.1496
  179SOPE   C2320394   1.656   2.047   6.980 -0.3609 -0.1850  0.5332
  179SOPE   H3R20395   1.628   1.944   6.950 -0.2059  0.3782 -1.7452
  179SOPE   H3S20396   1.564   2.109   6.985  0.0493  0.3775  1.4873
  179SOPE   C2420397   1.737   2.030   7.115  0.1638 -0.4582 -0.8140
  179SOPE   H4R20398   1.831   1.974   7.096  0.0512 -0.4989 -1.2445
  179SOPE   H4S20399   1.747   2.134   7.151 -1.5329 -1.3896  2.8496
  179SOPE   C2520400   1.652   1.943   7.208  0.1397  0.5853  0.7054
  179SOPE   H5R20401   1.547   1.962   7.176  0.6669  0.9609 -0.8421
  179SOPE   H5S20402   1.667   1.833   7.215  1.0664  0.6770  0.2433
  179SOPE   C2620403   1.671   1.980   7.355  0.4944  0.7516 -0.6233
  179SOPE   H6R20404   1.721   2.078   7.367 -0.1683  1.0237  0.0311
  179SOPE   H6S20405   1.568   1.994   7.394  0.3173  4.3291 -1.9321
  179SOPE   C2720406   1.741   1.864   7.443 -0.1819  0.1644  0.5292
  179SOPE   H7R20407   1.699   1.764   7.421 -2.3213  0.7638  1.6273
  179SOPE   H7S20408   1.850   1.872   7.419  0.1037  1.0281  1.9620
  179SOPE   C2820409   1.735   1.891   7.600  0.3361  0.1888  0.4431
  179SOPE   H8R20410   1.795   1.813   7.649  0.3650 -0.8410 -1.1434
  179SOPE   H8S20411   1.771   1.992   7.630 -1.3839  0.6788  0.9771
  179SOPE   C2920412   1.591   1.866   7.634  0.2164  0.3121 -0.4718
  179SOPE   H9120413   1.540   1.802   7.560  0.8272 -0.6603 -0.0715
  179SOPE  C21020414   1.521   1.918   7.739  0.1590 -0.4964  0.1739
  179SOPE  H10120415   1.414   1.896   7.748 -0.3114  1.1095 -1.1360
  179SOPE  C21120416   1.576   2.002   7.849 -0.1590  0.9369  0.4136
  179SOPE  H11R20417   1.516   2.095   7.856 -2.4481 -0.4203 -0.1984
  179SOPE  H11S20418   1.677   2.038   7.822 -0.9308  0.3743 -3.8919
  179SOPE  C21220419   1.576   1.913   7.975 -0.4649  0.6735 -0.4544
  179SOPE  H12R20420   1.625   1.817   7.950  0.4148  0.8218  0.6228
  179SOPE  H12S20421   1.476   1.877   8.009 -0.1542  0.4861  0.2798
  179SOPE  C21320422   1.623   1.973   8.107 -0.6692 -0.0262  0.7242
  179SOPE  H13R20423   1.724   2.014   8.086 -0.0487 -1.2071  1.2614
  179SOPE  H13S20424   1.626   1.893   8.184  1.1475 -2.1533 -1.3952
  179SOPE  C21420425   1.523   2.078   8.152  0.2927 -0.5894  0.6935
  179SOPE  H14R20426   1.417   2.050   8.131  0.3832  0.5209 -1.5265
  179SOPE  H14S20427   1.535   2.160   8.079 -2.1051  0.5844  1.4889
  179SOPE  C21520428   1.523   2.108   8.302  0.3376  0.3449  0.0593
  179SOPE  H15R20429   1.631   2.120   8.324  0.4199  1.1658 -0.7405
  179SOPE  H15S20430   1.483   2.027   8.367  0.4750  0.8054  0.7325
  179SOPE  C21620431   1.430   2.231   8.339 -0.1772 -0.5041 -0.0985
  179SOPE  H16R20432   1.427   2.236   8.450 -0.7761 -1.2712 -0.0738
  179SOPE  H16S20433   1.326   2.214   8.306 -1.5968  2.2616  2.4576
  179SOPE  C21720434   1.479   2.365   8.286 -0.7535  0.6220 -0.2579
  179SOPE  H17R20435   1.474   2.365   8.175  0.6942 -1.1961 -0.3733
  179SOPE  H17S20436   1.589   2.366   8.297 -0.5955 -2.8406 -0.3693
  179SOPE  C21820437   1.422   2.491   8.357  0.8543 -0.0116  0.2151
  179SOPE  H18R20438   1.450   2.473   8.463  2.7641 -0.5981 -0.3517
  179SOPE  H18S20439   1.311   2.492   8.353  0.8809 -0.1426 -0.6893
  179SOPE  H18T20440   1.466   2.584   8.316 -1.5657  2.6361  3.0729
  179SOPE   C3320441   1.427   1.644   6.848 -0.3800 -0.2769  0.3786
  179SOPE   H3X20442   1.343   1.702   6.803 -0.2349 -1.3959 -1.4352
  179SOPE   H3Y20443   1.493   1.720   6.893 -0.8384  1.4941 -1.7910
  179SOPE   C3420444   1.384   1.537   6.954  0.5966  0.5004  0.2631
  179SOPE   H4X20445   1.480   1.484   6.973  0.7105  0.1881 -1.1261
  179SOPE   H4Y20446   1.327   1.456   6.904  2.6550  0.3748 -2.0520
  179SOPE   C3520447   1.323   1.580   7.098 -0.2192  0.7471  0.1251
  179SOPE   H5X20448   1.217   1.607   7.080  0.0680  0.3899 -2.5193
  179SOPE   H5Y20449   1.377   1.668   7.138 -0.1726 -0.1656  2.1766
  179SOPE   C3620450   1.318   1.472   7.200 -0.2534  0.8788 -0.7634
  179SOPE   H6X20451   1.417   1.430   7.230 -1.4878 -0.3056  1.9822
  179SOPE   H6Y20452   1.250   1.390   7.169 -0.8143  1.6285 -1.5466
  179SOPE   C3720453   1.247   1.519   7.328  0.4949 -0.2920  0.2655
  179SOPE   H7X20454   1.144   1.546   7.296  0.5183 -2.0932 -1.5947
  179SOPE   H7Y20455   1.295   1.616   7.354  2.1104 -0.3870 -2.0076
  179SOPE   C3820456   1.259   1.417   7.443 -0.1233  0.1701 -0.3486
  179SOPE   H8X20457   1.367   1.400   7.465 -0.2250 -1.0764 -0.7680
  179SOPE   H8Y20458   1.222   1.320   7.404  2.5632 -0.9802 -0.2528
  179SOPE   C3920459   1.186   1.452   7.571  0.2323  0.9245  0.2795
  179SOPE   H9X20460   1.176   1.359   7.630 -0.2644  1.2158  0.6664
  179SOPE   H9Y20461   1.078   1.471   7.551  0.0294  0.1756  0.6471
  179SOPE  C31020462   1.254   1.556   7.661 -0.3469  0.3677  0.0272
  179SOPE  H10X20463   1.250   1.649   7.601  1.3262  0.7868  0.5366
  179SOPE  H10Y20464   1.356   1.514   7.672 -0.4945  0.0472  0.2314
  179SOPE  C31120465   1.177   1.563   7.796 -0.1106 -1.0823  0.2588
  179SOPE  H11X20466   1.158   1.463   7.842  1.0532 -1.4038  0.0881
  179SOPE  H11Y20467   1.084   1.621   7.777  0.6929  1.6985  3.7533
  179SOPE  C31220468   1.236   1.651   7.907  0.0710  0.0776 -0.6863
  179SOPE  H12X20469   1.269   1.747   7.861  0.3816 -0.2048 -1.0514
  179SOPE  H12Y20470   1.331   1.602   7.938  1.9263  2.2414 -2.5897
  179SOPE  C31320471   1.130   1.684   8.020 -0.6609 -0.0954 -0.3326
  179SOPE  H13X20472   1.111   1.584   8.063  1.0076 -0.4455 -0.3289
  179SOPE  H13Y20473   1.035   1.718   7.974 -3.4987 -3.4664  2.4328
  179SOPE  C31420474   1.194   1.775   8.129  0.8016  0.5415  0.4060
  179SOPE  H14X20475   1.216   1.870   8.075 -1.4892  0.6975 -0.3969
  179SOPE  H14Y20476   1.282   1.729   8.179  0.6291 -0.1632  0.0765
  179SOPE  C31520477   1.100   1.822   8.235 -0.3594  0.1294 -0.0517
  179SOPE  H15X20478   1.091   1.729   8.296  2.3597  0.2549  0.6850
  179SOPE  H15Y20479   1.003   1.847   8.187  0.0533 -0.8831 -1.4947
  179SOPE  C31620480   1.158   1.941   8.319 -0.1416  0.4632  0.5084
  179SOPE  H16X20481   1.154   2.028   8.250  1.2853  0.2686  0.1574
  179SOPE  H16Y20482   1.265   1.938   8.347  0.1331 -0.5436 -0.5564
  179SOPE  C31720483   1.076   1.968   8.446 -0.4553 -0.4044 -0.0154
  179SOPE  H17X20484   1.104   2.064   8.494  3.1233 -1.4042  0.2052
  179SOPE  H17Y20485   1.107   1.882   8.509  1.7192 -1.9724 -2.9597
  179SOPE  C31820486   0.924   1.972   8.441  0.4115 -0.8105 -0.2483
  179SOPE  H18X20487   0.871   1.997   8.535 -1.7683  0.2319 -1.6522
  179SOPE  H18Y20488   0.884   1.874   8.407  2.0043 -1.0236 -1.6494
  179SOPE  H18Z20489   0.888   2.034   8.356  0.2022  1.0867  1.1709
  180SOPE     N20490   6.406   3.219   6.552 -0.0319 -0.5664 -0.5588
  180SOPE   HN120491   6.433   3.270   6.466  1.3101 -0.6649 -0.2106
  180SOPE   HN220492   6.324   3.156   6.538  2.3084 -3.6423 -1.4460
  180SOPE   HN320493   6.381   3.293   6.621  0.3482 -3.0647  2.5155
  180SOPE   C1220494   6.518   3.132   6.597  0.6215 -0.4255 -0.1775
  180SOPE  H12A20495   6.487   3.088   6.694  0.3800  2.3612  1.1073
  180SOPE  H12B20496   6.608   3.195   6.610  0.6696  0.1815 -2.8791
  180SOPE   C1120497   6.536   3.009   6.502 -0.5016  0.5367 -0.0267
  180SOPE  H11A20498   6.446   2.948   6.522 -0.4119 -0.2703 -1.8699
  180SOPE  H11B20499   6.619   2.938   6.526 -1.2972  0.2394  2.0661
  180SOPE     P20500   6.663   3.107   6.292  0.5786  0.0129  0.1666
  180SOPE   O1320501   6.623   3.210   6.192 -0.4023  0.3566  0.7741
  180SOPE   O1420502   6.735   2.983   6.245 -0.6132 -0.3880  0.6963
  180SOPE   O1220503   6.531   3.046   6.366 -0.4771 -0.4002 -0.1739
  180SOPE   O1120504   6.748   3.168   6.400 -0.3120 -0.0314  0.3957
  180SOPE    C120505   6.885   3.146   6.416 -0.1241 -0.0671  0.4182
  180SOPE    HA20506   6.942   3.188   6.330 -0.7537 -0.6174 -0.2799
  180SOPE    HB20507   6.903   3.037   6.409 -2.6002 -0.4695 -1.3829
  180SOPE    C220508   6.932   3.202   6.549 -0.0930 -0.7077  0.2716
  180SOPE    HS20509   7.043   3.191   6.553  0.1699  1.6717  0.8795
  180SOPE   O2120510   6.866   3.141   6.664 -0.2894 -0.0851 -0.5188
  180SOPE   C2120511   6.929   3.036   6.717 -0.0299  1.2493 -0.0311
  180SOPE   O2220512   7.042   2.997   6.689  0.3209 -0.3768 -0.4341
  180SOPE   C2220513   6.830   2.963   6.806  0.2964 -0.6043 -0.4895
  180SOPE   H2R20514   6.865   2.862   6.836  1.5118 -0.1680 -0.3620
  180SOPE   H2S20515   6.740   2.956   6.742  0.1756 -0.4262 -0.3402
  180SOPE    C320516   6.913   3.356   6.563 -0.0844  0.7397 -0.0740
  180SOPE    HX20517   6.807   3.360   6.534 -0.0005 -0.2146 -0.5577
  180SOPE    HY20518   6.969   3.411   6.484  0.6425 -0.6783 -0.5898
  180SOPE   O3120519   6.943   3.419   6.689 -0.2542 -0.1939  0.0541
  180SOPE   C3120520   6.842   3.415   6.780 -0.2361  0.0027  0.0536
  180SOPE   O3220521   6.727   3.380   6.756 -0.1889 -0.0417 -0.0869
  180SOPE   C3220522   6.896   3.473   6.909  0.3209  0.2578 -0.3908
  180SOPE   H2X20523   6.931   3.578   6.900  2.8600 -0.2906  1.8477
  180SOPE   H2Y20524   6.974   3.400   6.939 -0.5001  0.2713  1.9761
  180SOPE   C2320525   6.791   3.039   6.928  0.4210  0.1244 -0.1099
  180SOPE   H3R20526   6.704   2.987   6.973  1.0138 -0.0914  0.8208
  180SOPE   H3S20527   6.740   3.135   6.905  0.9341  0.8140  1.4386
  180SOPE   C2420528   6.894   3.051   7.044  0.0037 -0.3834  0.5359
  180SOPE   H4R20529   6.956   2.959   7.037  0.2593 -0.2002  0.3300
  180SOPE   H4S20530   6.972   3.128   7.026 -0.2540  0.3160  2.1996
  180SOPE   C2520531   6.831   3.061   7.181  0.4692  0.2291  0.9429
  180SOPE   H5R20532   6.763   3.149   7.182 -1.1515 -0.9456 -0.3992
  180SOPE   H5S20533   6.767   2.972   7.195  0.9844 -0.5418 -1.1497
  180SOPE   C2620534   6.931   3.059   7.295 -0.6293 -0.5072  0.3865
  180SOPE   H6R20535   7.009   2.985   7.267 -0.3702 -0.5670  1.2358
  180SOPE   H6S20536   6.986   3.155   7.305  0.7442 -1.4189  2.3732
  180SOPE   C2720537   6.858   3.035   7.433  0.3871  0.1785 -0.4113
  180SOPE   H7R20538   6.785   3.117   7.447  1.9135  1.6677 -0.7982
  180SOPE   H7S20539   6.808   2.936   7.433 -0.5793  0.6181  1.4755
  180SOPE   C2820540   6.947   3.033   7.556 -0.0349 -0.2970 -0.2314
  180SOPE   H8R20541   6.882   3.000   7.640  0.5329  0.8243  0.6826
  180SOPE   H8S20542   7.025   2.956   7.535 -2.2080 -2.1075 -2.1533
  180SOPE   C2920543   7.007   3.169   7.597 -0.3396 -0.6075 -0.4974
  180SOPE   H9120544   7.061   3.220   7.516 -1.7124  1.7276 -0.0118
  180SOPE  C21020545   6.994   3.233   7.717 -0.6420 -0.6699 -0.1950
  180SOPE  H10120546   7.058   3.322   7.729 -1.0195 -0.0428 -2.4400
  180SOPE  C21120547   6.933   3.180   7.845 -0.2906  0.1418  0.9450
  180SOPE  H11R20548   6.906   3.072   7.846 -1.7776  0.4730  0.1948
  180SOPE  H11S20549   6.840   3.241   7.849  0.2083  0.9106  1.0664
  180SOPE  C21220550   7.012   3.222   7.969 -0.1527 -0.0983 -0.1456
  180SOPE  H12R20551   7.029   3.332   7.959  2.1355 -0.5920 -2.9466
  180SOPE  H12S20552   7.110   3.171   7.973 -0.7242 -1.1719  0.4877
  180SOPE  C21320553   6.943   3.207   8.100 -0.3513  0.3507 -0.0869
  180SOPE  H13R20554   6.914   3.100   8.111  2.1989 -0.2570  1.9349
  180SOPE  H13S20555   6.852   3.270   8.104 -0.9325 -0.5030  2.4276
  180SOPE  C21420556   7.033   3.241   8.222  0.3270 -0.1119  0.1274
  180SOPE  H14R20557   7.117   3.170   8.232  0.0250 -0.5108 -0.1411
  180SOPE  H14S20558   6.969   3.238   8.313  3.2554 -0.3020  2.3290
  180SOPE  C21520559   7.087   3.387   8.222 -0.3625 -0.8911  0.1105
  180SOPE  H15R20560   7.023   3.454   8.161  3.1012  2.9850  0.3203
  180SOPE  H15S20561   7.190   3.389   8.179 -0.0078  1.1639  0.9422
  180SOPE  C21620562   7.093   3.450   8.355 -0.3277 -0.5880 -0.3235
  180SOPE  H16R20563   6.992   3.443   8.400  1.2465 -0.7516  3.6095
  180SOPE  H16S20564   7.124   3.556   8.352 -0.1861 -0.6026  0.3469
  180SOPE  C21720565   7.203   3.391   8.443  0.1035  0.4116 -0.1657
  180SOPE  H17R20566   7.299   3.405   8.389  0.6415  2.9903  1.3009
  180SOPE  H17S20567   7.185   3.283   8.460  0.3313  0.2396 -0.9702
  180SOPE  C21820568   7.227   3.463   8.580 -0.9487 -0.0365  0.4474
  180SOPE  H18R20569   7.301   3.414   8.646 -1.0125 -0.0277  0.5256
  180SOPE  H18S20570   7.132   3.486   8.633 -1.1750  1.2223 -0.4547
  180SOPE  H18T20571   7.275   3.560   8.556 -1.7824  0.4769  0.8286
  180SOPE   C3320572   6.782   3.474   7.016  0.0450 -0.2339 -0.2027
  180SOPE   H3X20573   6.731   3.375   7.008 -1.7212  0.2118  3.4125
  180SOPE   H3Y20574   6.702   3.550   6.997  0.3463  0.2139  0.2764
  180SOPE   C3420575   6.828   3.508   7.158 -0.4781  0.0288  0.5650
  180SOPE   H4X20576   6.889   3.601   7.165  1.3726 -0.6844 -3.2631
  180SOPE   H4Y20577   6.894   3.427   7.193  1.7339 -0.2179 -3.4916
  180SOPE   C3520578   6.722   3.521   7.270  0.0423  0.5998  0.0650
  180SOPE   H5X20579   6.657   3.430   7.260  0.1630  0.6978 -1.9674
  180SOPE   H5Y20580   6.664   3.610   7.240 -0.9316 -0.1283 -0.2782
  180SOPE   C3620581   6.786   3.548   7.404  0.0354 -0.3040 -0.5395
  180SOPE   H6X20582   6.850   3.638   7.397 -0.2189  0.4110  3.7691
  180SOPE   H6Y20583   6.856   3.468   7.437  0.2106 -0.7778 -1.9670
  180SOPE   C3720584   6.686   3.562   7.524 -0.3747  0.4363  0.2478
  180SOPE   H7X20585   6.628   3.468   7.533 -0.6221  0.5275 -0.3323
  180SOPE   H7Y20586   6.611   3.634   7.484 -0.2076  0.8372  0.6387
  180SOPE   C3820587   6.753   3.583   7.661  0.8561 -0.2256  0.2567
  180SOPE   H8X20588   6.821   3.671   7.666 -1.7874  1.9339  1.2155
  180SOPE   H8Y20589   6.806   3.489   7.685 -1.2040 -0.8978  2.6172
  180SOPE   C3920590   6.651   3.624   7.769 -0.3685 -0.4190 -1.0638
  180SOPE   H9X20591   6.562   3.557   7.778 -0.3979 -0.4766 -1.7435
  180SOPE   H9Y20592   6.627   3.730   7.750  1.3610 -0.0526 -1.3913
  180SOPE  C31020593   6.718   3.628   7.910  0.4344  0.4284 -0.2094
  180SOPE  H10X20594   6.787   3.715   7.915  0.6476  0.3251 -1.1381
  180SOPE  H10Y20595   6.777   3.538   7.937  0.0385 -0.3040 -1.6487
  180SOPE  C31120596   6.610   3.663   8.023  0.2884  0.0886  0.0997
  180SOPE  H11X20597   6.529   3.588   8.036 -1.8998  2.4270  0.8770
  180SOPE  H11Y20598   6.568   3.761   7.990 -0.4315  0.3293  1.6577
  180SOPE  C31220599   6.668   3.683   8.168 -0.8879 -0.4315  0.1229
  180SOPE  H12X20600   6.596   3.746   8.224 -3.0611 -2.3509 -0.3621
  180SOPE  H12Y20601   6.755   3.753   8.173 -0.8016 -0.4539 -0.8900
  180SOPE  C31320602   6.705   3.555   8.238  0.4846  0.0139  0.0319
  180SOPE  H13X20603   6.802   3.518   8.199  1.3925 -1.1001  3.0745
  180SOPE  H13Y20604   6.621   3.489   8.208 -0.2402  0.2963  1.3382
  180SOPE  C31420605   6.707   3.575   8.390  0.3222  0.1496  0.4778
  180SOPE  H14X20606   6.730   3.475   8.432 -0.6839 -0.4389 -0.3243
  180SOPE  H14Y20607   6.599   3.593   8.409 -0.0386  0.1766 -1.4235
  180SOPE  C31520608   6.798   3.681   8.449  0.1152 -0.4416 -0.1045
  180SOPE  H15X20609   6.733   3.766   8.418 -1.0976  0.0870  3.3748
  180SOPE  H15Y20610   6.891   3.678   8.389 -1.2092  0.2454 -2.2963
  180SOPE  C31620611   6.810   3.663   8.602  0.0356  0.4242  0.4545
  180SOPE  H16X20612   6.896   3.593   8.615  0.7758  1.2324  0.0416
  180SOPE  H16Y20613   6.717   3.624   8.648  1.7658 -3.3437  1.2226
  180SOPE  C31720614   6.820   3.795   8.681 -0.2866 -0.5453 -0.5396
  180SOPE  H17X20615   6.732   3.863   8.672  1.5980  2.5674  2.0260
  180SOPE  H17Y20616   6.902   3.857   8.639 -1.2654  1.9823  1.0050
  180SOPE  C31820617   6.852   3.788   8.827  0.4715 -0.4184  0.0956
  180SOPE  H18X20618   6.768   3.727   8.867  0.9333 -0.0764  1.6578
  180SOPE  H18Y20619   6.855   3.885   8.881  0.5119  0.5724 -1.5934
  180SOPE  H18Z20620   6.948   3.733   8.836  0.7265  0.3748  3.1448
  181SOPE     N20621   5.178   5.536   5.754  0.7160  0.3964 -0.5653
  181SOPE   HN120622   5.187   5.521   5.652 -0.1911  0.1357 -0.6182
  181SOPE   HN220623   5.257   5.600   5.772  0.9254 -0.4073  1.7838
  181SOPE   HN320624   5.204   5.455   5.814 -1.8145  0.2181  0.4174
  181SOPE   C1220625   5.051   5.609   5.792  0.0431 -0.0810  0.3559
  181SOPE  H12A20626   4.979   5.590   5.710  1.3643  1.4616 -1.2228
  181SOPE  H12B20627   5.077   5.717   5.785  1.8512 -0.6149 -2.6754
  181SOPE   C1120628   5.015   5.572   5.938 -0.4130 -0.0810 -0.1368
  181SOPE  H11A20629   5.108   5.564   5.997 -0.1468  0.4218 -0.4798
  181SOPE  H11B20630   4.979   5.467   5.935 -0.6991  0.0103 -3.3025
  181SOPE     P20631   4.774   5.633   6.018  0.2612  0.4360 -0.2513
  181SOPE   O1320632   4.707   5.597   5.888  0.6450  0.2110 -0.0830
  181SOPE   O1420633   4.718   5.738   6.106  0.0532  0.4287  0.7456
  181SOPE   O1220634   4.921   5.675   5.986 -0.2158  0.2663  0.0349
  181SOPE   O1120635   4.788   5.501   6.100  0.1520 -0.2036  0.0792
  181SOPE    C120636   4.819   5.486   6.239 -0.3358 -0.4023 -0.0353
  181SOPE    HA20637   4.748   5.551   6.294 -2.9239 -2.4017 -0.8190
  181SOPE    HB20638   4.928   5.500   6.259 -0.5176 -1.9222  2.4677
  181SOPE    C220639   4.787   5.350   6.297 -0.0092 -0.2553 -0.2975
  181SOPE    HS20640   4.676   5.346   6.284  0.0576  0.7880 -1.3812
  181SOPE   O2120641   4.828   5.343   6.437 -0.2717 -0.1417 -0.2046
  181SOPE   C2120642   4.781   5.234   6.499  1.4572 -0.4580  0.1904
  181SOPE   O2220643   4.689   5.155   6.461  0.3579 -0.3157 -0.3322
  181SOPE   C2220644   4.845   5.221   6.636  0.8009  0.6279  0.0147
  181SOPE   H2R20645   4.931   5.153   6.616 -0.0550 -0.1465 -1.1006
  181SOPE   H2S20646   4.772   5.168   6.701 -0.2145  1.5117 -0.3932
  181SOPE    C320647   4.851   5.230   6.219  0.0572 -0.4604 -0.3096
  181SOPE    HX20648   4.800   5.237   6.121 -1.3729 -0.9581  0.3711
  181SOPE    HY20649   4.814   5.134   6.260 -0.7701  0.1952  0.5301
  181SOPE   O3120650   4.992   5.232   6.205  0.1104  0.1352  0.1751
  181SOPE   C3120651   5.062   5.159   6.290 -0.0733  0.3576  1.0167
  181SOPE   O3220652   5.020   5.093   6.382 -0.1397  0.3248 -0.0372
  181SOPE   C3220653   5.209   5.148   6.247 -0.0902 -0.4749  0.1202
  181SOPE   H2X20654   5.222   5.215   6.160  0.3253 -1.1304 -0.3338
  181SOPE   H2Y20655   5.239   5.044   6.221 -1.0813 -0.8634  0.4727
  181SOPE   C2320656   4.907   5.356   6.695  0.4906  0.0732 -0.1586
  181SOPE   H3R20657   4.824   5.427   6.715  0.6160  0.2396 -0.2320
  181SOPE   H3S20658   4.984   5.388   6.622 -1.6722  1.7422 -1.8803
  181SOPE   C2420659   4.977   5.338   6.834 -0.3441 -0.0059  0.3081
  181SOPE   H4R20660   4.898   5.308   6.905 -0.1070 -1.5404 -0.0230
  181SOPE   H4S20661   5.041   5.247   6.827  0.3564  0.4814  0.2336
  181SOPE   C2520662   5.055   5.463   6.879 -0.5154  0.2455 -0.2899
  181SOPE   H5R20663   5.150   5.474   6.823 -1.6593  0.6778 -2.2240
  181SOPE   H5S20664   5.001   5.558   6.859 -1.1995 -0.5368 -2.3712
  181SOPE   C2620665   5.105   5.438   7.019 -0.0528 -0.0765  0.1756
  181SOPE   H6R20666   5.012   5.424   7.078 -0.8906  2.2607 -0.4699
  181SOPE   H6S20667   5.150   5.337   7.015  2.4471  0.9893 -0.5749
  181SOPE   C2720668   5.205   5.540   7.075 -0.1034  0.4976 -0.5341
  181SOPE   H7R20669   5.308   5.526   7.037  0.2527  0.5888  0.3743
  181SOPE   H7S20670   5.157   5.637   7.049 -0.0861  0.6857  0.1076
  181SOPE   C2820671   5.223   5.525   7.228  0.2201 -0.2731 -0.2742
  181SOPE   H8R20672   5.279   5.618   7.252  2.5808 -1.2981 -1.3648
  181SOPE   H8S20673   5.129   5.510   7.284  0.1734  0.8567 -0.0129
  181SOPE   C2920674   5.317   5.408   7.256 -0.4308 -0.0417 -0.0023
  181SOPE   H9120675   5.378   5.364   7.176  1.3196 -0.8580  1.7029
  181SOPE  C21020676   5.334   5.351   7.376  0.3024  0.1730  0.1036
  181SOPE  H10120677   5.383   5.252   7.371 -0.7833 -0.4213  0.9788
  181SOPE  C21120678   5.268   5.384   7.504  0.1612  0.4215 -0.2781
  181SOPE  H11R20679   5.205   5.298   7.536 -0.5769  1.3736  0.9319
  181SOPE  H11S20680   5.203   5.474   7.509 -1.5825 -0.7581 -0.7928
  181SOPE  C21220681   5.380   5.392   7.604 -0.0221  0.0781  0.2645
  181SOPE  H12R20682   5.470   5.446   7.567 -0.5012  0.2868 -0.6098
  181SOPE  H12S20683   5.410   5.290   7.635 -0.7483 -0.5866 -1.1388
  181SOPE  C21320684   5.333   5.458   7.742 -0.3205  0.2857  0.3567
  181SOPE  H13R20685   5.235   5.412   7.770 -0.2986  0.1828  0.2673
  181SOPE  H13S20686   5.325   5.565   7.713 -0.3871 -0.3514 -2.2213
  181SOPE  C21420687   5.431   5.452   7.859  0.0800 -0.1608  1.1123
  181SOPE  H14R20688   5.455   5.345   7.880 -0.5380 -0.9570 -1.7675
  181SOPE  H14S20689   5.376   5.492   7.947 -2.6974  1.6080 -1.2207
  181SOPE  C21520690   5.569   5.519   7.837 -0.3732  0.3743 -0.0723
  181SOPE  H15R20691   5.558   5.628   7.821 -0.6670  0.3796  0.1590
  181SOPE  H15S20692   5.610   5.467   7.748 -0.2035 -3.1884  1.9021
  181SOPE  C21620693   5.669   5.497   7.953 -0.3912 -0.1925 -0.1230
  181SOPE  H16R20694   5.688   5.388   7.952 -0.4159 -0.1956 -1.6749
  181SOPE  H16S20695   5.634   5.534   8.052  1.8978  3.6612 -0.5510
  181SOPE  C21720696   5.806   5.567   7.916  0.1972  0.9064 -0.0469
  181SOPE  H17R20697   5.775   5.651   7.850  0.1856  0.3948 -0.7030
  181SOPE  H17S20698   5.866   5.503   7.848  0.3088 -1.5697  2.2359
  181SOPE  C21820699   5.902   5.598   8.029 -0.3831 -0.0168 -0.1248
  181SOPE  H18R20700   5.973   5.677   7.995 -0.8712 -0.0849 -1.3581
  181SOPE  H18S20701   5.947   5.503   8.064 -1.7533 -0.0798  1.5709
  181SOPE  H18T20702   5.837   5.642   8.107  0.3678 -0.0250  0.5158
  181SOPE   C3320703   5.309   5.206   6.344 -0.2134  0.7402 -0.0589
  181SOPE   H3X20704   5.290   5.313   6.364  2.8590  0.7738  3.9345
  181SOPE   H3Y20705   5.403   5.201   6.285 -1.8417  1.7527 -2.9289
  181SOPE   C3420706   5.312   5.122   6.484  0.5019 -0.5531  0.8710
  181SOPE   H4X20707   5.336   5.017   6.456  1.0196 -0.1840 -0.1096
  181SOPE   H4Y20708   5.212   5.126   6.532  0.6044 -0.2177  1.0601
  181SOPE   C3520709   5.416   5.176   6.582 -0.6984 -0.8392  0.5693
  181SOPE   H5X20710   5.404   5.285   6.598 -0.6191 -0.7693  0.1848
  181SOPE   H5Y20711   5.523   5.167   6.552 -0.0956 -0.3795  2.4346
  181SOPE   C3620712   5.411   5.112   6.722 -0.2507 -1.4944  0.1965
  181SOPE   H6X20713   5.467   5.017   6.733  0.2295 -1.0087  2.4564
  181SOPE   H6Y20714   5.308   5.085   6.752 -0.0819 -0.6210  1.6213
  181SOPE   C3720715   5.449   5.202   6.846  0.3498  0.4427 -0.3499
  181SOPE   H7X20716   5.377   5.284   6.865  0.9608  1.2784 -1.4900
  181SOPE   H7Y20717   5.551   5.240   6.825  0.6695  0.6564  1.4582
  181SOPE   C3820718   5.468   5.112   6.978  0.5215 -0.0074 -0.2612
  181SOPE   H8X20719   5.501   5.172   7.066 -2.0459 -0.5535  1.1507
  181SOPE   H8Y20720   5.548   5.037   6.959  0.1812 -1.0203  2.0130
  181SOPE   C3920721   5.343   5.028   7.023  0.0138 -0.0447  0.4295
  181SOPE   H9X20722   5.316   4.964   6.937  0.1159  0.2502  0.1774
  181SOPE   H9Y20723   5.265   5.104   7.045  0.2022 -0.2235  1.8507
  181SOPE  C31020724   5.373   4.941   7.142  0.2015  0.1651 -0.0292
  181SOPE  H10X20725   5.464   4.884   7.113  1.3238 -0.1109  3.5947
  181SOPE  H10Y20726   5.301   4.859   7.162  1.7469 -0.6018  2.8773
  181SOPE  C31120727   5.400   5.011   7.273  0.3382  0.5170  0.1390
  181SOPE  H11X20728   5.311   5.073   7.298  0.5921  0.6959  0.6151
  181SOPE  H11Y20729   5.488   5.075   7.252  1.3373 -1.3263 -1.5927
  181SOPE  C31220730   5.433   4.905   7.384 -0.2082 -0.1854 -0.2918
  181SOPE  H12X20731   5.534   4.863   7.363 -1.1864 -3.7103  1.2590
  181SOPE  H12Y20732   5.362   4.823   7.362  0.9985 -1.0933 -0.9429
  181SOPE  C31320733   5.404   4.939   7.531  0.0945 -0.6484  1.1869
  181SOPE  H13X20734   5.369   4.844   7.576 -0.8917 -1.2624 -0.7686
  181SOPE  H13Y20735   5.325   5.015   7.549  0.0795 -0.1934 -0.6444
  181SOPE  C31420736   5.537   4.984   7.591  0.2934 -0.5796 -0.1784
  181SOPE  H14X20737   5.582   5.071   7.538 -1.9231  0.3688 -0.5772
  181SOPE  H14Y20738   5.616   4.908   7.575  0.8137  0.3279 -2.2860
  181SOPE  C31520739   5.533   4.993   7.741 -0.1435  0.1971 -1.1416
  181SOPE  H15X20740   5.455   5.065   7.774 -0.0350 -0.3834  0.4530
  181SOPE  H15Y20741   5.633   5.019   7.779 -0.1604 -0.0170 -0.9488
  181SOPE  C31620742   5.519   4.856   7.817 -0.4675 -0.6540 -0.0256
  181SOPE  H16X20743   5.599   4.789   7.777  0.8048 -0.4486  2.0096
  181SOPE  H16Y20744   5.417   4.813   7.809 -1.0189  0.3182  1.3277
  181SOPE  C31720745   5.563   4.878   7.962  0.2761  0.0189 -0.3318
  181SOPE  H17X20746   5.661   4.929   7.968  0.1597  0.2983 -0.7289
  181SOPE  H17Y20747   5.568   4.778   8.009  1.5999  0.8059  1.2974
  181SOPE  C31820748   5.459   4.955   8.051 -0.0266 -0.2771 -0.0282
  181SOPE  H18X20749   5.363   4.900   8.044 -1.0463  1.5224 -0.8319
  181SOPE  H18Y20750   5.442   5.062   8.024 -2.2148 -0.3010  1.0862
  181SOPE  H18Z20751   5.484   4.940   8.158  0.3466  0.6200  0.0250
  182SOPE     N20752   0.753   3.402   5.923 -0.2504 -0.3476  0.1494
  182SOPE   HN120753   0.737   3.370   6.021 -1.8903 -0.5412 -0.1398
  182SOPE   HN220754   0.833   3.342   5.895  0.4766  0.3685  0.6522
  182SOPE   HN320755   0.776   3.502   5.936  0.8996 -0.7256  1.1133
  182SOPE   C1220756   0.643   3.375   5.830 -0.2790 -0.1135 -0.0910
  182SOPE  H12A20757   0.697   3.353   5.735 -0.9757  0.3350 -0.5978
  182SOPE  H12B20758   0.588   3.471   5.821  0.1715  0.3243  1.5530
  182SOPE   C1120759   0.558   3.253   5.878 -0.1691 -0.3056  0.7096
  182SOPE  H11A20760   0.465   3.265   5.818 -0.7414  0.4339  1.7037
  182SOPE  H11B20761   0.529   3.266   5.985  2.5292  2.1175  1.2473
  182SOPE     P20762   0.638   3.015   5.942  0.0950  0.6294  0.1110
  182SOPE   O1320763   0.722   2.915   5.876 -0.9655  0.3836 -0.2244
  182SOPE   O1420764   0.499   2.968   5.961 -0.2985  0.8606 -0.4131
  182SOPE   O1220765   0.631   3.134   5.845  0.3336 -0.1925  0.2104
  182SOPE   O1120766   0.691   3.078   6.084 -0.6470  0.1760 -0.1956
  182SOPE    C120767   0.785   3.004   6.160  0.4620 -0.3699  0.7078
  182SOPE    HA20768   0.884   3.054   6.153 -0.6776  1.7538 -1.2154
  182SOPE    HB20769   0.795   2.901   6.119 -1.0988  0.1287 -1.0367
  182SOPE    C220770   0.746   2.989   6.313  0.3001  0.3220  0.3329
  182SOPE    HS20771   0.652   2.930   6.309 -1.5514  3.0729 -3.7673
  182SOPE   O2120772   0.726   3.121   6.369 -0.4686  0.1427  0.1518
  182SOPE   C2120773   0.612   3.134   6.426 -0.7313 -0.1348 -0.6721
  182SOPE   O2220774   0.521   3.057   6.435  0.2918 -0.2445  0.0850
  182SOPE   C2220775   0.617   3.262   6.508 -0.2981  0.2796  0.2505
  182SOPE   H2R20776   0.645   3.342   6.435  0.7142  0.1255  0.4509
  182SOPE   H2S20777   0.690   3.240   6.589 -1.2792 -1.5346  0.6999
  182SOPE    C320778   0.853   2.909   6.403  0.1345 -0.6691  0.5329
  182SOPE    HX20779   0.942   2.975   6.393  1.1239 -2.0056  0.1827
  182SOPE    HY20780   0.883   2.811   6.359  1.6068 -0.6212  1.3744
  182SOPE   O3120781   0.805   2.895   6.542 -0.1458 -0.4540  0.0709
  182SOPE   C3120782   0.734   2.790   6.570  0.6198  0.3901 -0.2892
  182SOPE   O3220783   0.724   2.695   6.494 -0.2263 -0.8604 -0.2066
  182SOPE   C3220784   0.673   2.806   6.710  0.0901 -0.5043  0.0921
  182SOPE   H2X20785   0.755   2.831   6.781  1.1959  1.1147 -1.6575
  182SOPE   H2Y20786   0.630   2.709   6.742 -0.9071  0.3011  1.2814
  182SOPE   C2320787   0.483   3.291   6.569  0.6362  0.1641 -0.4787
  182SOPE   H3R20788   0.444   3.204   6.625  1.4475  1.6518  2.6249
  182SOPE   H3S20789   0.404   3.318   6.496  0.5476  0.7340 -0.1784
  182SOPE   C2420790   0.488   3.408   6.673  0.2993  0.4462  0.4824
  182SOPE   H4R20791   0.575   3.476   6.658 -0.2605  1.2600  0.8538
  182SOPE   H4S20792   0.393   3.465   6.669 -0.0883 -0.2340 -1.1321
  182SOPE   C2520793   0.506   3.361   6.818  0.4224  0.1207  0.4476
  182SOPE   H5R20794   0.418   3.307   6.860 -0.8798  3.5072  2.5107
  182SOPE   H5S20795   0.593   3.293   6.826  0.9599  0.9803  2.5092
  182SOPE   C2620796   0.534   3.477   6.915 -0.0523  0.5794 -0.3557
  182SOPE   H6R20797   0.628   3.522   6.876  0.5105 -1.6815 -1.7710
  182SOPE   H6S20798   0.455   3.555   6.916  1.1006  1.9171  3.5969
  182SOPE   C2720799   0.547   3.416   7.049 -0.4215 -0.1871 -0.0408
  182SOPE   H7R20800   0.447   3.388   7.089  0.0148  0.2588  1.4280
  182SOPE   H7S20801   0.607   3.323   7.051 -0.3654 -0.1908 -1.2540
  182SOPE   C2820802   0.609   3.516   7.148  0.3103 -0.1913  0.2012
  182SOPE   H8R20803   0.713   3.545   7.119 -0.0050 -0.9816 -1.9710
  182SOPE   H8S20804   0.559   3.615   7.141  0.8974  0.0705 -0.5665
  182SOPE   C2920805   0.605   3.465   7.288  0.5671 -0.4184 -0.1557
  182SOPE   H9120806   0.642   3.365   7.315 -1.3583 -0.8992  0.8558
  182SOPE  C21020807   0.547   3.532   7.389  0.5041 -0.3657  0.1016
  182SOPE  H10120808   0.551   3.484   7.488 -0.1114 -1.8312 -0.5668
  182SOPE  C21120809   0.469   3.664   7.387 -0.5719  0.5442 -0.3417
  182SOPE  H11R20810   0.463   3.725   7.294 -1.1885  1.6376  0.3895
  182SOPE  H11S20811   0.527   3.731   7.455  3.6193 -0.2045 -2.8527
  182SOPE  C21220812   0.324   3.651   7.448  0.0433 -0.2890 -0.4828
  182SOPE  H12R20813   0.269   3.585   7.379 -2.0846  0.0983  0.7592
  182SOPE  H12S20814   0.265   3.745   7.440  0.5307  0.0682  0.0096
  182SOPE  C21320815   0.305   3.605   7.595  0.1995 -0.2998  0.3268
  182SOPE  H13R20816   0.367   3.515   7.615 -0.0797 -0.5332  0.1464
  182SOPE  H13S20817   0.196   3.586   7.604 -0.0690  0.8750 -0.2224
  182SOPE  C21420818   0.341   3.701   7.705  0.4181 -0.5793  0.6574
  182SOPE  H14R20819   0.281   3.793   7.694  1.9736  0.6237  1.7362
  182SOPE  H14S20820   0.446   3.735   7.688  1.3500 -2.7479  1.7351
  182SOPE  C21520821   0.325   3.641   7.843  0.7310 -0.7208  0.1457
  182SOPE  H15R20822   0.397   3.559   7.864  1.4228 -0.5852 -1.5216
  182SOPE  H15S20823   0.224   3.594   7.838 -0.1428  1.1742 -1.6643
  182SOPE  C21620824   0.325   3.748   7.951 -0.1109 -0.0550 -0.0834
  182SOPE  H16R20825   0.247   3.823   7.924  1.3632  1.8120  0.6438
  182SOPE  H16S20826   0.420   3.803   7.940  0.5450 -0.6927  1.9568
  182SOPE  C21720827   0.314   3.696   8.094  0.4331 -0.3558 -0.8035
  182SOPE  H17R20828   0.387   3.613   8.107 -0.3140 -1.0665 -1.0068
  182SOPE  H17S20829   0.210   3.656   8.096 -0.2081  1.2383  1.5362
  182SOPE  C21820830   0.327   3.808   8.200 -0.1556 -0.0937  0.7484
  182SOPE  H18R20831   0.240   3.872   8.176  0.4755  0.5947  0.2641
  182SOPE  H18S20832   0.423   3.865   8.204 -0.7909  1.0789 -0.3016
  182SOPE  H18T20833   0.304   3.752   8.293 -0.1404 -1.6636 -0.1526
  182SOPE   C3320834   0.573   2.922   6.722  0.1825  0.1393  0.1981
  182SOPE   H3X20835   0.489   2.921   6.650 -0.9589 -1.2015  1.4872
  182SOPE   H3Y20836   0.625   3.020   6.711 -1.3369  0.8282 -1.2142
  182SOPE   C3420837   0.499   2.908   6.848 -0.2460 -0.0240  0.2142
  182SOPE   H4X20838   0.506   2.808   6.895  0.0431  0.4415  1.2150
  182SOPE   H4Y20839   0.393   2.943   6.845 -0.0870  0.3895 -1.0494
  182SOPE   C3520840   0.553   3.005   6.959  0.0019 -0.2290  0.2660
  182SOPE   H5X20841   0.535   3.111   6.928  1.7679 -0.7133 -2.8142
  182SOPE   H5Y20842   0.663   2.994   6.974  0.6890  2.7406 -1.6044
  182SOPE   C3620843   0.494   2.987   7.104 -0.1310  0.2437 -0.2284
  182SOPE   H6X20844   0.537   2.890   7.137  1.6219  0.9962 -0.1544
  182SOPE   H6Y20845   0.384   2.974   7.098 -0.1287  0.8851 -2.8381
  182SOPE   C3720846   0.533   3.091   7.210  0.3658  0.2599  0.0662
  182SOPE   H7X20847   0.478   3.186   7.198 -0.4768 -0.2696 -0.3741
  182SOPE   H7Y20848   0.643   3.110   7.213  0.0956  2.0749 -0.3065
  182SOPE   C3820849   0.485   3.040   7.356  0.4600 -0.5366 -0.2036
  182SOPE   H8X20850   0.531   2.939   7.365 -0.9609 -1.1355  0.6564
  182SOPE   H8Y20851   0.378   3.030   7.382  1.0353  1.7370  3.8572
  182SOPE   C3920852   0.549   3.125   7.467  0.5205 -0.7413 -0.4441
  182SOPE   H9X20853   0.483   3.214   7.476  1.5338 -0.1184  1.3674
  182SOPE   H9Y20854   0.643   3.167   7.425  0.8006  0.7315  1.5301
  182SOPE  C31020855   0.553   3.045   7.601  0.3294 -0.1332 -0.3809
  182SOPE  H10X20856   0.637   2.973   7.600  1.4804  1.0884  1.4205
  182SOPE  H10Y20857   0.453   2.999   7.611 -0.3552  1.0691 -1.3431
  182SOPE  C31120858   0.587   3.135   7.724  0.9313  0.6103  0.6872
  182SOPE  H11X20859   0.510   3.212   7.745 -0.3331 -0.6384  0.7300
  182SOPE  H11Y20860   0.679   3.197   7.713 -0.4427  2.4357 -1.3966
  182SOPE  C31220861   0.600   3.047   7.846 -0.5429 -0.2002  0.7175
  182SOPE  H12X20862   0.698   2.996   7.840 -0.2858  0.4473 -2.1771
  182SOPE  H12Y20863   0.512   2.979   7.848 -2.0038  1.4120 -2.1354
  182SOPE  C31320864   0.602   3.125   7.976 -0.2082  0.1103 -0.2100
  182SOPE  H13X20865   0.507   3.175   8.005 -0.2124 -1.2338  2.3714
  182SOPE  H13Y20866   0.679   3.204   7.968 -0.8278  0.9990  1.9463
  182SOPE  C31420867   0.619   3.032   8.097 -0.5078 -0.0424 -0.2185
  182SOPE  H14X20868   0.705   2.962   8.087 -0.4080 -0.0693  0.7773
  182SOPE  H14Y20869   0.533   2.961   8.098  1.1894 -2.2423 -0.5134
  182SOPE  C31520870   0.627   3.110   8.227 -0.8538 -0.1024 -0.4508
  182SOPE  H15X20871   0.598   3.050   8.316 -0.9543  1.9207  0.9276
  182SOPE  H15Y20872   0.562   3.200   8.222 -0.4792  0.1440 -0.9673
  182SOPE  C31620873   0.774   3.141   8.259 -0.3570 -0.6379 -0.4240
  182SOPE  H16X20874   0.808   3.195   8.169 -2.3333 -0.7207 -1.2714
  182SOPE  H16Y20875   0.835   3.049   8.271  1.6037  0.6917  0.2346
  182SOPE  C31720876   0.771   3.219   8.386  0.0914  0.0433  0.0716
  182SOPE  H17X20877   0.723   3.148   8.457  0.7800 -1.1417 -0.6098
  182SOPE  H17Y20878   0.717   3.315   8.381  2.1005  1.2338  0.0921
  182SOPE  C31820879   0.916   3.245   8.425  0.3496 -0.2156  0.2086
  182SOPE  H18X20880   0.963   3.145   8.416  1.2610  0.3281 -1.7441
  182SOPE  H18Y20881   0.917   3.268   8.533  0.3518 -0.9623  0.3712
  182SOPE  H18Z20882   0.962   3.324   8.362  0.1653 -0.7524 -0.6183
  183SOPE     N20883   3.325   6.412   6.329  0.3369 -0.1400 -0.0068
  183SOPE   HN120884   3.309   6.483   6.403 -1.9666  0.6814 -1.2075
  183SOPE   HN220885   3.342   6.449   6.233 -1.7417 -1.2627 -0.8608
  183SOPE   HN320886   3.237   6.357   6.326 -0.2597  0.8255 -2.1934
  183SOPE   C1220887   3.425   6.316   6.372  0.0669  0.3132  0.5088
  183SOPE  H12A20888   3.421   6.295   6.481  1.2577  1.1652  0.7383
  183SOPE  H12B20889   3.525   6.365   6.365  0.1927 -0.0501 -0.3016
  183SOPE   C1120890   3.420   6.185   6.295 -0.3280  1.2849  0.6517
  183SOPE  H11A20891   3.324   6.130   6.301  0.2551  0.0013 -1.0006
  183SOPE  H11B20892   3.492   6.122   6.352 -1.8318 -0.9437  0.1987
  183SOPE     P20893   3.600   6.220   6.107 -0.3555  0.3682 -0.3452
  183SOPE   O1320894   3.645   6.354   6.154  0.6279  0.3339  0.3400
  183SOPE   O1420895   3.609   6.176   5.970 -0.1698 -0.3135  0.4572
  183SOPE   O1220896   3.457   6.202   6.158  0.6519 -0.5526 -0.1472
  183SOPE   O1120897   3.678   6.113   6.193 -0.4461  0.2275  0.1804
  183SOPE    C120898   3.797   6.158   6.262  0.4760 -0.0425 -0.2856
  183SOPE    HA20899   3.847   6.243   6.210 -1.3751  0.9885 -0.4960
  183SOPE    HB20900   3.876   6.082   6.244  1.0983  0.9306 -1.9206
  183SOPE    C220901   3.785   6.187   6.411  0.3418  0.0635  0.4500
  183SOPE    HS20902   3.677   6.204   6.429 -0.1138  1.8398 -3.1526
  183SOPE   O2120903   3.866   6.302   6.425 -0.0214  0.0478 -0.1132
  183SOPE   C2120904   3.830   6.392   6.513  0.5247 -0.7142 -0.0384
  183SOPE   O2220905   3.725   6.393   6.574 -0.4186  0.0740 -0.5466
  183SOPE   C2220906   3.949   6.479   6.528 -0.1675 -0.1847 -0.6375
  183SOPE   H2R20907   3.937   6.586   6.501  1.0813  0.6970  1.9134
  183SOPE   H2S20908   4.031   6.461   6.455  0.9846  2.3937 -0.1018
  183SOPE    C320909   3.831   6.070   6.507  0.7367  0.1174  0.0759
  183SOPE    HX20910   3.942   6.073   6.509  0.8416 -2.1985 -0.3919
  183SOPE    HY20911   3.810   5.972   6.460 -1.9508  2.0200 -3.1850
  183SOPE   O3120912   3.769   6.072   6.639  0.0519  0.1352  0.1378
  183SOPE   C3120913   3.827   6.134   6.746 -0.2525 -0.2293  0.9703
  183SOPE   O3220914   3.950   6.161   6.743  0.4689 -0.3079 -0.0310
  183SOPE   C3220915   3.718   6.168   6.849 -0.0565 -0.4651 -0.3364
  183SOPE   H2X20916   3.633   6.098   6.836 -0.2408 -0.2563 -0.2652
  183SOPE   H2Y20917   3.684   6.274   6.843 -2.3230 -1.1765 -0.6601
  183SOPE   C2320918   4.006   6.483   6.676  0.3557 -0.6778  0.4180
  183SOPE   H3R20919   4.051   6.383   6.696 -0.2550 -0.8207  1.1599
  183SOPE   H3S20920   3.911   6.485   6.734  0.9886 -0.2829  1.4570
  183SOPE   C2420921   4.114   6.596   6.684 -0.3755  0.0114 -0.2565
  183SOPE   H4R20922   4.183   6.573   6.600  2.1764 -0.4728  1.8544
  183SOPE   H4S20923   4.064   6.690   6.652 -0.3310  0.1254  0.0078
  183SOPE   C2520924   4.198   6.594   6.810 -0.1161  0.2553 -0.0996
  183SOPE   H5R20925   4.224   6.488   6.831  2.5831  0.5263 -1.7330
  183SOPE   H5S20926   4.299   6.637   6.795  0.5989 -1.6266 -1.0471
  183SOPE   C2620927   4.142   6.660   6.943 -0.3165  0.3483  0.5087
  183SOPE   H6R20928   4.126   6.764   6.907  2.4568  1.0650  1.0787
  183SOPE   H6S20929   4.048   6.609   6.973  1.4160 -3.6445 -0.2133
  183SOPE   C2720930   4.235   6.652   7.069 -0.3340  0.5252 -0.1856
  183SOPE   H7R20931   4.338   6.690   7.052 -0.5012  1.5472  0.9438
  183SOPE   H7S20932   4.189   6.722   7.142 -4.1588 -1.6951 -0.1916
  183SOPE   C2820933   4.250   6.508   7.117 -0.7372  0.2265 -0.4872
  183SOPE   H8R20934   4.297   6.447   7.037 -1.0284 -0.1713 -0.3583
  183SOPE   H8S20935   4.330   6.496   7.193 -0.3621 -0.9031 -1.0377
  183SOPE   C2920936   4.121   6.451   7.165 -0.2618 -0.3458 -0.0022
  183SOPE   H9120937   4.060   6.425   7.078 -0.1470 -0.6220 -0.0022
  183SOPE  C21020938   4.067   6.434   7.289 -0.5608  0.4229 -0.5494
  183SOPE  H10120939   3.962   6.401   7.285  0.1853 -2.2184 -0.4979
  183SOPE  C21120940   4.115   6.465   7.431 -0.2169  0.4200 -0.0445
  183SOPE  H11R20941   4.050   6.545   7.472 -0.5206 -0.0838  0.4695
  183SOPE  H11S20942   4.214   6.515   7.433 -0.0249  0.0224  0.7381
  183SOPE  C21220943   4.116   6.337   7.515  0.1709  0.8302  0.1867
  183SOPE  H12R20944   4.153   6.246   7.463  0.4440  0.3327  1.2282
  183SOPE  H12S20945   4.013   6.318   7.552  1.3216 -2.5208  2.1491
  183SOPE  C21320946   4.191   6.359   7.645  0.1264 -0.4137 -0.3716
  183SOPE  H13R20947   4.147   6.446   7.698  1.6534  2.7348 -3.8318
  183SOPE  H13S20948   4.295   6.386   7.617 -0.8398  1.2600 -2.6555
  183SOPE  C21420949   4.195   6.224   7.729 -0.4502 -0.3544 -0.0217
  183SOPE  H14R20950   4.247   6.146   7.669  1.9461 -0.0556  1.5184
  183SOPE  H14S20951   4.087   6.210   7.753 -1.0709  3.5853  0.2050
  183SOPE  C21520952   4.263   6.239   7.864 -0.4622  0.2450 -0.5628
  183SOPE  H15R20953   4.372   6.257   7.850 -0.4736 -0.7140 -2.1424
  183SOPE  H15S20954   4.255   6.142   7.917  2.1435 -1.2103 -2.5759
  183SOPE  C21620955   4.214   6.356   7.959 -0.5686 -0.0870  0.3947
  183SOPE  H16R20956   4.104   6.344   7.973 -0.4078 -1.8817  0.3858
  183SOPE  H16S20957   4.241   6.447   7.901 -1.2551 -0.1435 -0.0232
  183SOPE  C21720958   4.298   6.372   8.092  0.3849  0.4344 -0.3198
  183SOPE  H17R20959   4.270   6.475   8.121  1.6512  1.5932 -2.8851
  183SOPE  H17S20960   4.406   6.360   8.070  0.4829  0.7380 -0.0058
  183SOPE  C21820961   4.269   6.273   8.200  0.4725 -0.2078 -0.0945
  183SOPE  H18R20962   4.333   6.301   8.286  0.6564  1.3590 -0.7109
  183SOPE  H18S20963   4.282   6.169   8.164 -3.0688 -1.3109  1.3642
  183SOPE  H18T20964   4.162   6.294   8.224  1.1718  4.0601 -0.0573
  183SOPE   C3320965   3.771   6.132   6.994  0.0135 -0.2708 -0.3718
  183SOPE   H3X20966   3.683   6.155   7.058 -0.5753 -0.1894 -1.1857
  183SOPE   H3Y20967   3.856   6.198   7.020  0.4474 -0.0539 -2.1562
  183SOPE   C3420968   3.813   5.983   7.008 -0.4890 -0.4292 -0.4057
  183SOPE   H4X20969   3.923   5.982   6.992 -0.3703 -0.8881  0.3948
  183SOPE   H4Y20970   3.765   5.925   6.926  0.3212 -0.9539 -0.5130
  183SOPE   C3520971   3.805   5.916   7.141  0.2090  0.1346  0.8581
  183SOPE   H5X20972   3.861   5.820   7.135 -0.6895 -0.3146 -2.3524
  183SOPE   H5Y20973   3.698   5.888   7.153 -0.5114  1.6323 -1.2362
  183SOPE   C3620974   3.855   6.000   7.262  0.0952  0.6017  0.9439
  183SOPE   H6X20975   3.801   6.096   7.278 -0.1078  0.6977 -0.2463
  183SOPE   H6Y20976   3.953   6.036   7.224  0.2943 -2.7765 -2.2809
  183SOPE   C3720977   3.870   5.908   7.382 -0.3153  0.1767 -0.1498
  183SOPE   H7X20978   3.918   5.811   7.359 -0.6785 -0.1703  0.5500
  183SOPE   H7Y20979   3.770   5.885   7.425  0.7588 -0.0815  2.3709
  183SOPE   C3820980   3.949   5.959   7.507 -0.4698 -0.6082 -0.1135
  183SOPE   H8X20981   3.905   6.056   7.539  0.8194 -0.0167 -0.0640
  183SOPE   H8Y20982   4.057   5.977   7.486 -0.9258  1.6668 -0.7860
  183SOPE   C3920983   3.928   5.873   7.635 -0.2599  0.6263  0.0394
  183SOPE   H9X20984   3.938   5.764   7.615 -1.2737  0.7231 -1.0714
  183SOPE   H9Y20985   3.823   5.887   7.668 -0.4866 -1.2997  0.2684
  183SOPE  C31020986   4.020   5.908   7.749  0.1714 -0.5247  0.2214
  183SOPE  H10X20987   4.001   6.018   7.757 -0.5779 -0.5051 -1.5807
  183SOPE  H10Y20988   4.120   5.869   7.721  0.4807  0.8041 -0.6242
  183SOPE  C31120989   3.975   5.844   7.877  0.2147 -0.1456 -0.4238
  183SOPE  H11X20990   4.021   5.743   7.885 -3.7469 -2.1639 -0.3199
  183SOPE  H11Y20991   3.864   5.838   7.873  0.0607  1.0654  0.9767
  183SOPE  C31220992   4.018   5.936   7.995  0.0020  0.2777 -0.3774
  183SOPE  H12X20993   3.983   6.038   7.969 -0.9304  0.4357  1.3452
  183SOPE  H12Y20994   4.128   5.941   8.008 -0.0668  0.7961  0.0210
  183SOPE  C31320995   3.950   5.890   8.117 -0.1077 -0.1549  0.3681
  183SOPE  H13X20996   3.951   5.779   8.121 -1.7551 -0.2157 -0.1825
  183SOPE  H13Y20997   3.844   5.923   8.113  0.4111  1.5825  0.2224
  183SOPE  C31420998   4.000   5.941   8.257  1.1506 -0.0309 -0.4859
  183SOPE  H14X20999   4.015   6.050   8.268  2.5913 -0.1723 -0.8659
  183SOPE  H14Y21000   4.098   5.895   8.279  0.5561 -0.4946  1.3617
  183SOPE  C31521001   3.909   5.905   8.375  0.2397 -0.0738  0.0358
  183SOPE  H15X21002   3.917   5.794   8.374  0.9213 -0.0279 -1.0547
  183SOPE  H15Y21003   3.806   5.941   8.357 -0.9208 -0.8929  4.1289
  183SOPE  C31621004   3.967   5.952   8.511 -0.0636 -0.3347  0.7173
  183SOPE  H16X21005   3.981   6.062   8.509 -0.8294 -0.2245  1.2060
  183SOPE  H16Y21006   4.069   5.912   8.528  0.8138  1.0876 -0.8965
  183SOPE  C31721007   3.879   5.915   8.624 -0.3231  0.3010 -0.3691
  183SOPE  H17X21008   3.924   5.940   8.723 -2.2345  1.2936  0.3135
  183SOPE  H17Y21009   3.865   5.805   8.622  2.6139 -0.1278 -2.2159
  183SOPE  C31821010   3.740   5.983   8.630 -1.4151  0.0559  0.0392
  183SOPE  H18X21011   3.679   5.923   8.701  0.0640 -1.6091 -0.0097
  183SOPE  H18Y21012   3.688   5.977   8.532 -1.1853 -1.2555 -0.0315
  183SOPE  H18Z21013   3.745   6.089   8.661  1.0154  0.3506 -1.1464
  184SOPE     N21014   2.099   5.190   5.849 -0.7521  0.1246  0.4025
  184SOPE   HN121015   2.138   5.115   5.910 -1.6279  0.7150  1.7417
  184SOPE   HN221016   1.995   5.182   5.856 -0.7551 -1.8980 -1.1926
  184SOPE   HN321017   2.108   5.161   5.750  1.0151  0.9326  0.2913
  184SOPE   C1221018   2.156   5.323   5.889 -0.8710  0.3015  0.0869
  184SOPE  H12A21019   2.112   5.396   5.818 -1.2067 -0.6139 -0.6676
  184SOPE  H12B21020   2.263   5.322   5.859 -0.1844 -0.4660  2.3868
  184SOPE   C1121021   2.127   5.365   6.029 -0.0164  0.3374 -0.2206
  184SOPE  H11A21022   2.020   5.361   6.061  0.4993  1.6301  1.8290
  184SOPE  H11B21023   2.153   5.472   6.037  1.8755  0.0045 -1.3730
  184SOPE     P21024   2.332   5.330   6.180 -0.0198  0.2481  0.1004
  184SOPE   O1321025   2.420   5.363   6.064  0.1226 -0.1014 -0.0411
  184SOPE   O1421026   2.389   5.225   6.263 -0.1072  0.7719 -0.6587
  184SOPE   O1221027   2.199   5.280   6.118 -0.3903 -0.2333  0.3017
  184SOPE   O1121028   2.285   5.456   6.262  0.4941  0.5621  0.4635
  184SOPE    C121029   2.169   5.454   6.338  0.5867  0.0677 -0.2717
  184SOPE    HA21030   2.095   5.374   6.318 -2.9633  2.5913  1.6404
  184SOPE    HB21031   2.107   5.544   6.319 -0.0572  0.2904  2.4961
  184SOPE    C221032   2.198   5.458   6.494 -0.2021  0.9162  0.3023
  184SOPE    HS21033   2.096   5.453   6.538  0.0947  0.3993  0.9523
  184SOPE   O2121034   2.279   5.574   6.520 -1.0705  0.0950 -0.2725
  184SOPE   C2121035   2.254   5.643   6.639  0.0742 -0.1917  0.1077
  184SOPE   O2221036   2.150   5.628   6.694 -0.2062  0.5827  0.4556
  184SOPE   C2221037   2.355   5.750   6.672 -0.6166 -1.0330 -0.0759
  184SOPE   H2R21038   2.308   5.850   6.656  3.4822  1.6893  2.7984
  184SOPE   H2S21039   2.435   5.739   6.595 -0.5353 -0.7777 -0.0318
  184SOPE    C321040   2.279   5.339   6.547  0.5104  0.0239 -0.1375
  184SOPE    HX21041   2.387   5.362   6.531  0.8314 -0.9920  0.4156
  184SOPE    HY21042   2.251   5.248   6.491  0.0456  0.3919 -0.5055
  184SOPE   O3121043   2.256   5.317   6.688  0.2033 -0.2024  0.7122
  184SOPE   C3121044   2.355   5.341   6.775  0.3377  0.0905 -0.4119
  184SOPE   O3221045   2.468   5.372   6.747 -0.2872  0.0656  0.2916
  184SOPE   C3221046   2.307   5.331   6.920 -0.5648  0.3635  0.5393
  184SOPE   H2X21047   2.273   5.226   6.935  0.0323  0.1381  0.3508
  184SOPE   H2Y21048   2.215   5.392   6.929 -1.2306 -0.5824  0.3136
  184SOPE   C2321049   2.413   5.729   6.812 -0.2745 -0.4696 -0.7340
  184SOPE   H3R21050   2.488   5.647   6.819 -0.6664 -0.7266  0.8886
  184SOPE   H3S21051   2.338   5.715   6.893 -1.2014  0.7541 -1.3469
  184SOPE   C2421052   2.502   5.856   6.857 -0.5214  0.6111  1.0604
  184SOPE   H4R21053   2.575   5.889   6.780  0.5917 -0.2893  1.6942
  184SOPE   H4S21054   2.424   5.934   6.873 -2.1911 -0.6763 -0.4009
  184SOPE   C2521055   2.575   5.844   6.996 -0.5555 -0.2459  0.8852
  184SOPE   H5R21056   2.614   5.742   7.016  3.9154  0.9527 -0.5285
  184SOPE   H5S21057   2.667   5.906   6.987 -0.0718 -1.2263 -1.8093
  184SOPE   C2621058   2.499   5.905   7.117 -0.3166  0.0181  0.4950
  184SOPE   H6R21059   2.465   6.008   7.090  0.1377  0.2708  0.8616
  184SOPE   H6S21060   2.401   5.853   7.124  0.5226 -1.3667  3.1836
  184SOPE   C2721061   2.572   5.892   7.248 -1.1867  0.3496  0.0834
  184SOPE   H7R21062   2.597   5.787   7.274 -5.4454 -1.4718 -2.1486
  184SOPE   H7S21063   2.658   5.962   7.236 -0.7013 -0.3602 -0.6153
  184SOPE   C2821064   2.485   5.942   7.365 -0.1839 -0.1229 -0.5195
  184SOPE   H8R21065   2.379   5.910   7.359 -0.1950  0.0247 -1.2176
  184SOPE   H8S21066   2.519   5.910   7.465  3.1243 -0.7935 -1.7232
  184SOPE   C2921067   2.486   6.092   7.375 -0.6095 -0.0862 -0.2138
  184SOPE   H9121068   2.406   6.142   7.318 -0.8092 -0.4627 -0.2693
  184SOPE  C21021069   2.581   6.168   7.439  0.4852  0.3785 -0.0603
  184SOPE  H10121070   2.581   6.278   7.444  0.5813  0.3595  0.3880
  184SOPE  C21121071   2.695   6.097   7.508 -0.1452 -1.3647  0.4035
  184SOPE  H11R21072   2.711   5.998   7.461  2.4909 -0.0692 -1.7393
  184SOPE  H11S21073   2.680   6.066   7.613  0.7719 -2.0882  0.3386
  184SOPE  C21221074   2.832   6.175   7.491  0.4240  0.8280  0.3723
  184SOPE  H12R21075   2.823   6.270   7.548 -3.8686 -0.9416  3.1857
  184SOPE  H12S21076   2.835   6.198   7.382  0.4744 -0.2177  0.1461
  184SOPE  C21321077   2.956   6.097   7.538 -0.1990  0.0236  0.9441
  184SOPE  H13R21078   2.959   6.006   7.475 -1.0244 -0.2884  1.3427
  184SOPE  H13S21079   2.941   6.058   7.641  0.3189  1.4462  1.5858
  184SOPE  C21421080   3.085   6.173   7.522  0.0211  0.4963 -0.4976
  184SOPE  H14R21081   3.104   6.197   7.415  0.1717 -0.5247 -0.7101
  184SOPE  H14S21082   3.173   6.111   7.549 -0.6009  0.7600  2.5602
  184SOPE  C21521083   3.097   6.306   7.599 -0.0256  0.3315 -0.1935
  184SOPE  H15R21084   3.016   6.371   7.560  0.0902  0.1815 -0.6923
  184SOPE  H15S21085   3.193   6.352   7.570 -0.3074  0.7323 -0.5090
  184SOPE  C21621086   3.090   6.289   7.754 -0.2481  0.1253  0.3111
  184SOPE  H16R21087   3.012   6.219   7.790  1.3999 -1.6304  0.6544
  184SOPE  H16S21088   3.080   6.392   7.793  4.3185  0.4891  1.0217
  184SOPE  C21721089   3.222   6.239   7.818 -0.2323  0.2613 -0.1907
  184SOPE  H17R21090   3.302   6.302   7.773 -1.0214  1.1373 -0.3756
  184SOPE  H17S21091   3.253   6.133   7.804  1.9620  0.5379  1.8712
  184SOPE  C21821092   3.215   6.250   7.975 -0.2551 -0.5370 -0.6409
  184SOPE  H18R21093   3.188   6.352   8.008  2.8338 -0.2187  1.2234
  184SOPE  H18S21094   3.315   6.219   8.011  0.1742 -0.7723 -1.9776
  184SOPE  H18T21095   3.142   6.185   8.030  2.5697 -1.4700  2.3346
  184SOPE   C3321096   2.403   5.381   7.033  0.7928  0.4383  0.0566
  184SOPE   H3X21097   2.418   5.490   7.018 -0.9254  0.5465 -1.0907
  184SOPE   H3Y21098   2.503   5.332   7.023  0.1552 -0.5149 -2.2142
  184SOPE   C3421099   2.357   5.349   7.175 -0.1661  0.1652 -0.0502
  184SOPE   H4X21100   2.347   5.239   7.183  1.5067  0.0566  1.0135
  184SOPE   H4Y21101   2.258   5.395   7.192 -0.8864 -0.4882 -2.1934
  184SOPE   C3521102   2.457   5.384   7.286  0.2827 -0.6238 -0.7259
  184SOPE   H5X21103   2.492   5.485   7.255  0.6888 -0.7860 -0.8037
  184SOPE   H5Y21104   2.540   5.310   7.277  1.8210  1.0058 -0.5280
  184SOPE   C3621105   2.400   5.373   7.428  0.1099  0.2778  0.1511
  184SOPE   H6X21106   2.406   5.268   7.463  1.6554 -0.2623 -1.5986
  184SOPE   H6Y21107   2.294   5.409   7.420  0.6230  1.6608 -0.8498
  184SOPE   C3721108   2.475   5.473   7.534 -0.2821  0.4320 -0.3797
  184SOPE   H7X21109   2.511   5.557   7.471 -1.2940 -0.3033 -2.0146
  184SOPE   H7Y21110   2.571   5.424   7.561  0.2366  1.8447  0.4070
  184SOPE   C3821111   2.393   5.505   7.656 -0.5076 -0.0001 -0.2826
  184SOPE   H8X21112   2.392   5.420   7.726 -1.9872  1.6941  1.8831
  184SOPE   H8Y21113   2.286   5.531   7.642  0.0906  3.9578  1.0753
  184SOPE   C3921114   2.447   5.629   7.728  0.5324  0.3086 -0.0262
  184SOPE   H9X21115   2.443   5.719   7.663 -0.8278 -2.1746 -3.7810
  184SOPE   H9Y21116   2.551   5.611   7.764 -0.2013  0.0118  2.0881
  184SOPE  C31021117   2.366   5.672   7.856  0.4239  0.4808  0.4019
  184SOPE  H10X21118   2.351   5.572   7.902  1.5327  0.4137  0.6604
  184SOPE  H10Y21119   2.271   5.722   7.827 -0.3513 -1.3195 -0.3088
  184SOPE  C31121120   2.448   5.752   7.959 -0.0226  0.2547  0.0815
  184SOPE  H11X21121   2.523   5.683   8.003  0.4447  1.4025  1.1683
  184SOPE  H11Y21122   2.380   5.784   8.042 -1.1453 -1.6100 -0.0674
  184SOPE  C31221123   2.512   5.871   7.897 -0.1057 -0.6177 -0.9611
  184SOPE  H12X21124   2.439   5.946   7.859 -0.3413 -1.0496 -1.3708
  184SOPE  H12Y21125   2.571   5.853   7.805  2.2859  2.0711 -0.0702
  184SOPE  C31321126   2.606   5.930   8.003  0.7250  0.4686 -0.2284
  184SOPE  H13X21127   2.678   5.857   8.045  2.9218  1.5014 -1.9629
  184SOPE  H13Y21128   2.533   5.949   8.084  1.9045  1.8069  0.5828
  184SOPE  C31421129   2.678   6.063   7.950 -0.6990  0.3942  0.0759
  184SOPE  H14X21130   2.607   6.144   7.923 -0.7827  0.8557  1.5843
  184SOPE  H14Y21131   2.728   6.045   7.852 -0.3790  0.5316  0.2145
  184SOPE  C31521132   2.778   6.127   8.051  0.2321 -0.1913 -1.5130
  184SOPE  H15X21133   2.808   6.225   8.008 -1.5219 -0.4817 -3.5604
  184SOPE  H15Y21134   2.867   6.060   8.058  0.1110 -0.1773  0.5350
  184SOPE  C31621135   2.720   6.140   8.193  0.2096  1.0026 -0.2109
  184SOPE  H16X21136   2.697   6.036   8.223  0.5883  0.9939  0.0632
  184SOPE  H16Y21137   2.633   6.209   8.190  2.2648  3.7790 -2.2730
  184SOPE  C31721138   2.814   6.193   8.302  0.3783 -1.0117  0.2647
  184SOPE  H17X21139   2.753   6.221   8.391  0.7746 -1.0836  0.5622
  184SOPE  H17Y21140   2.866   6.285   8.269 -0.4434 -0.2483  1.0672
  184SOPE  C31821141   2.928   6.098   8.347 -0.0646 -0.0245  0.0673
  184SOPE  H18X21142   2.989   6.149   8.425  0.3373 -0.4509  0.0417
  184SOPE  H18Y21143   2.992   6.072   8.260  0.0663 -1.5797  0.5817
  184SOPE  H18Z21144   2.888   5.998   8.375 -0.4516 -0.0890 -0.7030
  185SAPI   C1221145   4.537   4.024  10.740  0.2727 -0.0155 -0.5021
  185SAPI    H221146   4.512   4.058  10.637 -1.1068  2.8571  0.6637
  185SAPI    O221147   4.409   4.053  10.803 -0.1275  0.0213  0.2153
  185SAPI   HO221148   4.386   4.144  10.780 -1.3917 -0.1791  0.6269
  185SAPI   C1321149   4.565   3.878  10.737 -0.1927 -0.2866  0.3404
  185SAPI    H321150   4.661   3.862  10.684 -0.8173 -0.1219 -0.8740
  185SAPI    O321151   4.456   3.805  10.673  0.1022  0.0531  0.6378
  185SAPI   HO321152   4.500   3.733  10.628 -2.9462 -1.4547 -0.1846
  185SAPI   C1421153   4.600   3.832  10.882  0.2704  0.5100  0.3538
  185SAPI    H421154   4.507   3.850  10.940 -0.6727  1.3634 -1.3456
  185SAPI    O421155   4.624   3.692  10.880  0.5088  0.9447 -0.2500
  185SAPI   HO421156   4.548   3.642  10.912  2.7779 -1.5151  1.8095
  185SAPI   C1521157   4.719   3.911  10.936 -0.1822  0.1035  0.6657
  185SAPI    H521158   4.810   3.887  10.876 -0.1675 -2.8473  1.6998
  185SAPI    O521159   4.742   3.864  11.069 -0.2413  0.1212  0.3403
  185SAPI   HO521160   4.665   3.840  11.121  1.2979 -0.7406  2.3606
  185SAPI   C1621161   4.692   4.061  10.934  0.1981  0.3164  0.2154
  185SAPI    H621162   4.598   4.084  10.988 -0.9935  1.6341 -2.2669
  185SAPI    O621163   4.810   4.129  10.981  0.1707  0.2780 -0.6289
  185SAPI   HO621164   4.853   4.181  10.912  1.8432  0.0761  0.1907
  185SAPI   C1121165   4.650   4.104  10.790  0.0748  0.0883 -0.1931
  185SAPI    H121166   4.738   4.079  10.727  0.3332  2.0172 -0.6665
  185SAPI     P21167   4.731   4.359  10.731  0.0972  0.0248  0.2331
  185SAPI   O1321168   4.864   4.303  10.763  0.0092 -0.7261 -0.1866
  185SAPI   O1421169   4.689   4.494  10.775 -0.5138 -0.6811 -0.3557
  185SAPI   O1221170   4.620   4.243  10.777  0.4027 -0.0102  0.2051
  185SAPI   O1121171   4.712   4.347  10.574 -0.0763 -0.5469 -0.1137
  185SAPI    C121172   4.594   4.368  10.498  0.0270 -0.3182 -0.1169
  185SAPI    HA21173   4.575   4.273  10.444 -0.6373 -1.1716  1.5253
  185SAPI    HB21174   4.507   4.394  10.563  1.1969  0.7414  1.0827
  185SAPI    C221175   4.603   4.483  10.387  0.2024  0.3809  0.4886
  185SAPI    HS21176   4.501   4.486  10.344  1.4398 -0.0974 -2.7789
  185SAPI   O2121177   4.700   4.439  10.277  0.3026  0.1385  0.6934
  185SAPI   C2121178   4.655   4.354  10.190 -0.6444 -0.2740 -0.2846
  185SAPI   O2221179   4.549   4.294  10.197  1.1167  0.0586  0.5311
  185SAPI   C2221180   4.753   4.361  10.074  0.0353  0.0873 -0.2889
  185SAPI   H2R21181   4.743   4.463  10.032  3.8297  1.1148  0.8898
  185SAPI   H2S21182   4.856   4.356  10.118 -0.3387  1.4213  0.8012
  185SAPI    C321183   4.646   4.616  10.445 -0.0467 -0.4178 -0.5871
  185SAPI    HX21184   4.738   4.613  10.508 -0.0310  2.1392 -0.4021
  185SAPI    HY21185   4.567   4.646  10.518 -1.4665  0.5537 -2.4608
  185SAPI   O3121186   4.653   4.722  10.350  0.3212 -0.4391 -0.3960
  185SAPI   C3121187   4.769   4.751  10.304  0.4461  0.0817  0.0892
  185SAPI   O3221188   4.873   4.699  10.336  0.3153 -0.1753 -0.4761
  185SAPI   C3221189   4.751   4.850  10.194 -0.4287 -0.3513  0.3586
  185SAPI   H2X21190   4.721   4.948  10.236 -2.0420 -0.2587 -0.9480
  185SAPI   H2Y21191   4.675   4.821  10.119  1.8377  1.7094 -2.9942
  185SAPI   C2321192   4.727   4.248   9.976  0.2150 -0.7215 -0.0279
  185SAPI   H3R21193   4.693   4.152  10.020 -0.4935 -0.9207 -0.9624
  185SAPI   H3S21194   4.827   4.220   9.938  0.7126 -1.7188  1.9056
  185SAPI   C2421195   4.627   4.299   9.868  0.0368  0.1206 -0.0471
  185SAPI   H4R21196   4.658   4.395   9.821  0.2332 -0.4074 -1.0202
  185SAPI   H4S21197   4.537   4.336   9.923  1.6858  2.6975  1.1013
  185SAPI   C2521198   4.577   4.181   9.792  0.3734 -0.4625  0.5602
  185SAPI   H5R21199   4.515   4.113   9.852  0.4743 -0.6444  0.4608
  185SAPI   C2621200   4.594   4.154   9.658  0.3765 -0.4426 -0.6319
  185SAPI   H6R21201   4.539   4.068   9.615  0.9852 -1.1975  0.0629
  185SAPI   C2721202   4.666   4.252   9.563 -0.1541  0.5321  0.1410
  185SAPI   H7R21203   4.714   4.332   9.623 -0.7526  0.8508  0.2029
  185SAPI   H7S21204   4.581   4.293   9.504 -1.4907 -0.4769  1.2816
  185SAPI   C2821205   4.777   4.190   9.481 -0.3309  0.9867 -0.0761
  185SAPI   H8R21206   4.865   4.165   9.541  0.1361 -2.0461 -1.8110
  185SAPI   C2921207   4.777   4.170   9.345 -0.2964 -0.2137  0.3052
  185SAPI   H9R21208   4.855   4.110   9.295 -0.0123 -0.4297  1.0025
  185SAPI  C21021209   4.659   4.206   9.252  0.0070 -0.4319 -0.8505
  185SAPI  H10R21210   4.692   4.258   9.159 -2.2830 -2.0863 -2.7226
  185SAPI  H10S21211   4.594   4.281   9.303  0.0710 -0.9895  0.0584
  185SAPI  C21121212   4.585   4.086   9.215  0.0372 -0.2179 -0.0076
  185SAPI  H11R21213   4.512   4.044   9.287  0.9949 -0.5241  0.8170
  185SAPI  C21221214   4.592   4.020   9.099 -0.3296  0.4735  0.4305
  185SAPI  H12R21215   4.517   3.941   9.086  1.8715 -1.3451 -2.4713
  185SAPI  C21321216   4.667   4.057   8.969  0.6654 -0.2880  0.4056
  185SAPI  H13R21217   4.718   3.967   8.930  1.6425  1.1604 -1.9256
  185SAPI  H13S21218   4.739   4.141   8.981 -1.5507  1.8455 -0.1928
  185SAPI  C21421219   4.568   4.110   8.871 -0.6690  0.4810  0.5909
  185SAPI  H14R21220   4.488   4.174   8.910 -0.5654  1.2519 -0.4167
  185SAPI  C21521221   4.566   4.071   8.744  0.9661  0.5457  0.6065
  185SAPI  H15R21222   4.475   4.100   8.689 -0.5533 -1.9303  1.6523
  185SAPI  C21621223   4.662   3.977   8.676 -0.3509  0.0931  0.6398
  185SAPI  H16R21224   4.606   3.883   8.659 -0.7334  0.8276 -2.9127
  185SAPI  H16S21225   4.752   3.953   8.736 -1.4009 -2.2407  1.4121
  185SAPI  C21721226   4.688   4.029   8.532  0.0408  0.3702  0.6345
  185SAPI  H17R21227   4.591   4.064   8.492  0.1560  0.0003  0.0288
  185SAPI  H17S21228   4.713   3.938   8.474  0.3962  0.5331  0.5292
  185SAPI  C21821229   4.810   4.119   8.519 -0.6171  0.9086  0.2620
  185SAPI  H18R21230   4.901   4.079   8.570 -0.9066 -0.2698 -0.1106
  185SAPI  H18S21231   4.791   4.218   8.566 -0.5345  1.9658 -1.8144
  185SAPI  C21921232   4.837   4.137   8.369  0.2176  0.2951  0.3113
  185SAPI  H19R21233   4.826   4.049   8.302 -0.1782  0.9329 -0.4849
  185SAPI  H19S21234   4.941   4.177   8.362  0.0526  1.1156  2.1231
  185SAPI  C22021235   4.757   4.251   8.313 -0.1312 -0.1686  1.9492
  185SAPI  H20R21236   4.765   4.247   8.202 -0.6256  1.7369  1.8138
  185SAPI  H20S21237   4.789   4.351   8.349  0.0160  0.6485 -0.2953
  185SAPI  H20T21238   4.649   4.238   8.337 -0.9704  1.8446 -0.2903
  185SAPI   C3321239   4.888   4.860  10.121 -0.4072 -0.4047  0.5585
  185SAPI   H3X21240   4.926   4.758  10.099 -2.1636 -0.8088 -0.7960
  185SAPI   H3Y21241   4.957   4.914  10.189 -1.7339  2.4022 -0.1396
  185SAPI   C3421242   4.878   4.937   9.987 -0.0419 -0.6165  0.5623
  185SAPI   H4X21243   4.813   5.027   9.998 -0.7143 -1.0116 -0.0931
  185SAPI   H4Y21244   4.828   4.868   9.916  0.4255  0.0614 -0.4447
  185SAPI   C3521245   5.018   4.975   9.937  0.0740  0.3703 -0.5919
  185SAPI   H5X21246   5.067   4.876   9.929  3.2972  1.9065 -1.6101
  185SAPI   H5Y21247   5.066   5.036  10.016 -2.0505  0.1541  0.9429
  185SAPI   C3621248   5.013   5.049   9.803  0.1602 -0.1933 -0.2897
  185SAPI   H6X21249   5.115   5.086   9.779  0.8488 -0.8485  1.4381
  185SAPI   H6Y21250   4.944   5.136   9.809 -1.7061 -1.4645 -2.0799
  185SAPI   C3721251   4.972   4.949   9.687 -0.2657  0.0526 -0.3423
  185SAPI   H7X21252   4.861   4.942   9.693 -0.3816  0.6706 -1.4823
  185SAPI   H7Y21253   5.025   4.855   9.713  1.5741  0.9384 -0.7258
  185SAPI   C3821254   5.018   4.998   9.546 -0.5327  0.0867 -0.2626
  185SAPI   H8X21255   5.128   4.986   9.546 -0.5628 -0.2184  0.0412
  185SAPI   H8Y21256   4.999   5.105   9.522 -1.6130 -0.2176 -0.8337
  185SAPI   C3921257   4.977   4.914   9.430  0.1019 -0.1598  0.0153
  185SAPI   H9X21258   4.870   4.931   9.408 -0.3452 -1.1312  1.3159
  185SAPI   H9Y21259   5.001   4.808   9.456 -0.9071 -0.7279 -1.2676
  185SAPI  C31021260   5.043   4.956   9.293  0.2259  0.0641 -0.0676
  185SAPI  H10X21261   5.153   4.961   9.311  0.5141 -0.0393 -1.6782
  185SAPI  H10Y21262   5.020   5.062   9.267  0.8621 -0.1049 -1.4027
  185SAPI  C31121263   5.004   4.864   9.179 -0.4219 -0.2100 -0.1602
  185SAPI  H11X21264   4.894   4.864   9.168 -0.7684  0.3424  2.5494
  185SAPI  H11Y21265   5.030   4.758   9.196 -2.2353 -0.9092 -1.3997
  185SAPI  C31221266   5.075   4.896   9.050  0.2820  0.3729  0.5689
  185SAPI  H12X21267   5.032   4.824   8.977 -2.6372  2.0736  0.4649
  185SAPI  H12Y21268   5.183   4.874   9.069  0.2243 -1.6058 -1.0226
  185SAPI  C31321269   5.056   5.040   9.006 -0.6413 -0.4113  0.6861
  185SAPI  H13X21270   5.139   5.107   9.036 -0.8018  0.4548 -0.7307
  185SAPI  H13Y21271   4.965   5.080   9.058 -1.5310  1.2964 -1.9607
  185SAPI  C31421272   5.021   5.055   8.852  0.4685  0.5054 -0.0574
  185SAPI  H14X21273   4.975   5.155   8.838 -2.5425 -0.8717 -0.7804
  185SAPI  H14Y21274   4.943   4.978   8.835  0.8472 -0.1398  1.0379
  185SAPI  C31521275   5.129   5.029   8.752 -0.4244  0.6061 -0.2567
  185SAPI  H15X21276   5.163   4.924   8.766 -0.0360  0.5972 -1.1953
  185SAPI  H15Y21277   5.214   5.099   8.767 -1.6926  1.7109  2.4939
  185SAPI  C31621278   5.092   5.037   8.604  0.8534  0.9409 -0.0755
  185SAPI  H16X21279   5.065   5.143   8.582  1.8491  1.2052 -0.0733
  185SAPI  H16Y21280   5.002   4.974   8.592  2.1447 -1.3952  1.7005
  185SAPI  C31721281   5.209   4.993   8.522  0.2887  0.0554  0.9347
  185SAPI  H17X21282   5.237   4.889   8.551  0.5224  0.1348  0.9962
  185SAPI  H17Y21283   5.295   5.061   8.537  0.5146  0.0146 -0.1127
  185SAPI  C31821284   5.187   5.009   8.366 -0.4985  0.7322  1.0383
  185SAPI  H18X21285   5.158   5.113   8.341  0.6624  1.2426  1.7469
  185SAPI  H18Y21286   5.111   4.935   8.330  0.8738 -0.7176  1.0012
  185SAPI  H18Z21287   5.284   4.986   8.318 -1.8454 -0.0744 -1.5063
  186SAPI   C1221288   6.166   0.291  10.768 -0.5294 -0.5200  0.2642
  186SAPI    H221289   6.187   0.196  10.821  0.1268  0.5806  2.0409
  186SAPI    O221290   6.043   0.345  10.817 -0.7505  0.4087 -0.1827
  186SAPI   HO221291   5.970   0.332  10.757 -1.0265  0.6985  0.0882
  186SAPI   C1321292   6.283   0.381  10.785 -0.9743  0.2323 -0.3343
  186SAPI    H321293   6.374   0.344  10.735  1.9693  2.1134  3.1308
  186SAPI    O321294   6.314   0.375  10.930 -0.6594  0.1896  0.4273
  186SAPI   HO321295   6.242   0.418  10.978 -1.4111 -1.1342  0.5400
  186SAPI   C1421296   6.256   0.519  10.725  0.1083 -0.2301 -0.2533
  186SAPI    H421297   6.166   0.570  10.765 -0.3367 -1.7215  0.7083
  186SAPI    O421298   6.365   0.605  10.749  0.0649 -0.1426 -0.1247
  186SAPI   HO421299   6.335   0.662  10.820  0.5888 -1.4991  1.2229
  186SAPI   C1521300   6.228   0.503  10.579  0.1132  0.7734 -0.5380
  186SAPI    H521301   6.314   0.462  10.522 -1.4247 -2.3884 -0.8305
  186SAPI    O521302   6.192   0.637  10.525 -0.1707  0.3557 -0.0474
  186SAPI   HO521303   6.274   0.686  10.519 -0.8401  1.4050 -0.7726
  186SAPI   C1621304   6.116   0.396  10.552  0.5074 -0.1342  0.5769
  186SAPI    H621305   6.019   0.426  10.597  0.4632 -0.4791  0.7164
  186SAPI    O621306   6.097   0.380  10.413 -0.6361  0.1729  0.8552
  186SAPI   HO621307   6.166   0.318  10.387  0.7180  2.3104 -1.0401
  186SAPI   C1121308   6.149   0.264  10.624 -0.5899  0.1004 -0.3483
  186SAPI    H121309   6.241   0.220  10.580  0.4353  0.0231  1.7441
  186SAPI     P21310   6.032   0.019  10.574 -0.4683 -0.2631  0.2931
  186SAPI   O1321311   5.907  -0.047  10.599  0.1127  0.1403 -0.3844
  186SAPI   O1421312   6.156  -0.037  10.633 -0.3417 -0.3793 -0.5470
  186SAPI   O1221313   6.033   0.180  10.612 -0.4019 -0.0708 -0.2477
  186SAPI   O1121314   6.059   0.024  10.416  0.5810 -0.1400  0.0809
  186SAPI    C121315   5.943   0.047  10.336 -0.1659 -0.0368 -0.0764
  186SAPI    HA21316   5.866   0.105  10.392  0.0530 -0.5468  0.7811
  186SAPI    HB21317   5.963   0.098  10.240 -0.5468 -0.2258 -0.2607
  186SAPI    C221318   5.872  -0.090  10.300 -0.3265  0.6576  0.3243
  186SAPI    HS21319   5.906  -0.159  10.379  0.7586  0.7698 -0.0196
  186SAPI   O2121320   5.934  -0.128  10.181 -0.8062  0.4637  0.2219
  186SAPI   C2121321   5.936  -0.254  10.144 -0.6810  0.2633  1.1658
  186SAPI   O2221322   5.905  -0.350  10.208  0.3853  1.0417  0.0109
  186SAPI   C2221323   5.974  -0.241   9.995  0.0757  0.1692  0.6774
  186SAPI   H2R21324   5.905  -0.163   9.957 -1.4256 -1.7211 -0.6336
  186SAPI   H2S21325   6.080  -0.210   9.985  0.7784 -2.1031  0.5668
  186SAPI    C321326   5.723  -0.088  10.284  0.6894 -0.3938 -0.0777
  186SAPI    HX21327   5.674  -0.061  10.380  0.7723 -1.9055  0.4171
  186SAPI    HY21328   5.688  -0.191  10.262  0.4556 -0.9350  2.5361
  186SAPI   O3121329   5.686  -0.002  10.174 -0.3838  0.2241 -0.2813
  186SAPI   C3121330   5.557  -0.003  10.150  0.5120  0.6839  0.5204
  186SAPI   O3221331   5.472  -0.071  10.214  0.1652 -0.2919 -0.2674
  186SAPI   C3221332   5.524   0.056  10.008  0.3566 -0.2505 -0.0875
  186SAPI   H2X21333   5.612   0.115   9.975  1.2052 -1.8301 -0.7708
  186SAPI   H2Y21334   5.437   0.124  10.022 -1.8383 -2.0130 -3.8816
  186SAPI   C2321335   5.944  -0.376   9.916  0.1636  0.6861 -1.0454
  186SAPI   H3R21336   5.840  -0.412   9.933 -0.3492  1.5505 -2.2030
  186SAPI   H3S21337   6.015  -0.452   9.956  0.7440  1.8402  0.1743
  186SAPI   C2421338   5.949  -0.373   9.761 -0.0520  0.4411 -0.8586
  186SAPI   H4R21339   5.935  -0.480   9.735 -2.2397  0.0931  1.3766
  186SAPI   H4S21340   6.054  -0.345   9.737  1.3223 -1.9775  1.6845
  186SAPI   C2521341   5.844  -0.294   9.685  0.0127 -0.6275  0.8370
  186SAPI   H5R21342   5.796  -0.211   9.740 -2.9905 -1.2499 -0.6082
  186SAPI   C2621343   5.799  -0.306   9.557 -0.2383  0.2645  0.9421
  186SAPI   H6R21344   5.729  -0.232   9.515 -0.1625  0.0611  0.4486
  186SAPI   C2721345   5.842  -0.410   9.457 -0.1593  0.3713  0.2132
  186SAPI   H7R21346   5.908  -0.479   9.513 -0.1692  0.6155  0.5318
  186SAPI   H7S21347   5.897  -0.352   9.381 -2.1440  1.5282 -0.4273
  186SAPI   C2821348   5.728  -0.481   9.385  0.4302 -0.0770  0.6179
  186SAPI   H8R21349   5.658  -0.520   9.461  0.6164  3.0057  2.5582
  186SAPI   C2921350   5.699  -0.488   9.256 -0.2793 -0.2097 -0.3295
  186SAPI   H9R21351   5.603  -0.528   9.220 -0.4236  1.8105 -2.3589
  186SAPI  C21021352   5.778  -0.417   9.148 -0.5690 -0.4432  0.0227
  186SAPI  H10R21353   5.785  -0.480   9.057  0.8265 -0.3072  0.0045
  186SAPI  H10S21354   5.888  -0.409   9.161 -0.3537 -1.4571 -0.9736
  186SAPI  C21121355   5.739  -0.275   9.113  0.3600 -0.0813 -0.0973
  186SAPI  H11R21356   5.772  -0.193   9.178  1.0974  0.7880 -1.5245
  186SAPI  C21221357   5.663  -0.242   9.011  0.0960  0.2324 -0.4020
  186SAPI  H12R21358   5.643  -0.134   9.002 -0.2154  0.1931 -0.2067
  186SAPI  C21321359   5.604  -0.337   8.909  0.2025  0.6922 -0.5163
  186SAPI  H13R21360   5.617  -0.443   8.942 -0.4173  0.5524 -0.7065
  186SAPI  H13S21361   5.656  -0.323   8.812 -1.1516 -0.5534 -1.4713
  186SAPI  C21421362   5.456  -0.320   8.900  0.3467  0.5684  0.3608
  186SAPI  H14R21363   5.391  -0.337   8.987  0.2845  0.0415  0.2154
  186SAPI  C21521364   5.389  -0.277   8.786 -0.4436 -0.6108  0.1861
  186SAPI  H15R21365   5.280  -0.285   8.786 -0.3556 -2.1149 -0.3881
  186SAPI  C21621366   5.441  -0.222   8.654  0.3842  0.0865 -0.0129
  186SAPI  H16R21367   5.543  -0.260   8.632  0.0231  0.6273 -3.0875
  186SAPI  H16S21368   5.468  -0.115   8.669  0.9475 -0.3601  2.6222
  186SAPI  C21721369   5.355  -0.262   8.529 -0.0889  0.1018  0.0659
  186SAPI  H17R21370   5.248  -0.240   8.550 -0.0539  1.6894 -1.2056
  186SAPI  H17S21371   5.350  -0.364   8.486 -1.0022  1.2377 -2.6838
  186SAPI  C21821372   5.400  -0.182   8.404 -0.5610  0.5194  0.5965
  186SAPI  H18R21373   5.489  -0.233   8.361 -1.9528 -0.0074 -1.8449
  186SAPI  H18S21374   5.432  -0.079   8.432  1.2171  0.6206 -1.5167
  186SAPI  C21921375   5.300  -0.173   8.289  0.1654  0.1218  0.4420
  186SAPI  H19R21376   5.201  -0.133   8.321  0.6896  1.6504  0.2425
  186SAPI  H19S21377   5.284  -0.275   8.248 -0.5439  0.1332  0.6767
  186SAPI  C22021378   5.365  -0.085   8.181  0.0952  0.0594  0.9145
  186SAPI  H20R21379   5.387   0.016   8.223 -3.4204  1.2751  0.2174
  186SAPI  H20S21380   5.293  -0.064   8.098 -0.2539  1.8986  1.6152
  186SAPI  H20T21381   5.451  -0.139   8.136 -0.9195 -0.8472  0.0188
  186SAPI   C3321382   5.481  -0.041   9.894 -0.0707 -0.6216  0.1621
  186SAPI   H3X21383   5.391  -0.103   9.916 -1.8353  1.3583 -1.1924
  186SAPI   H3Y21384   5.567  -0.107   9.868  0.7862  0.3250  0.5364
  186SAPI   C3421385   5.440   0.031   9.773  1.1106  0.4049  0.6921
  186SAPI   H4X21386   5.516   0.105   9.740  2.2842  0.1237  2.6180
  186SAPI   H4Y21387   5.342   0.079   9.792 -0.3255 -2.1192  0.1738
  186SAPI   C3521388   5.405  -0.073   9.663 -0.0042 -0.0693  0.2983
  186SAPI   H5X21389   5.338  -0.151   9.703  0.2238 -0.9329 -0.9465
  186SAPI   H5Y21390   5.495  -0.133   9.636 -0.5877 -1.2443  0.8834
  186SAPI   C3621391   5.361  -0.009   9.535  0.9097 -0.3774  0.6076
  186SAPI   H6X21392   5.419   0.085   9.520 -0.8230  0.4028 -1.9333
  186SAPI   H6Y21393   5.256   0.021   9.552  0.0401 -2.9281  0.1037
  186SAPI   C3721394   5.378  -0.107   9.423 -0.1362 -0.3366  0.0974
  186SAPI   H7X21395   5.322  -0.201   9.445 -0.2834 -0.7454 -1.8863
  186SAPI   H7Y21396   5.487  -0.128   9.422  0.1457  1.0924 -0.5960
  186SAPI   C3821397   5.335  -0.069   9.289  0.0810  0.0827  0.5453
  186SAPI   H8X21398   5.230  -0.033   9.289 -0.5888 -1.6724 -1.3559
  186SAPI   H8Y21399   5.336  -0.163   9.230  1.1873  1.0106 -1.0020
  186SAPI   C3921400   5.431   0.022   9.215 -0.4585  0.5250  0.6751
  186SAPI   H9X21401   5.536  -0.010   9.226 -0.9476 -1.3535  0.2036
  186SAPI   H9Y21402   5.429   0.128   9.250  1.3915  1.2738 -1.2745
  186SAPI  C31021403   5.402   0.024   9.065 -0.0159  0.5374  0.4429
  186SAPI  H10X21404   5.426  -0.072   9.014  4.0588  0.7586  1.5868
  186SAPI  H10Y21405   5.469   0.104   9.026  1.8776 -1.3024 -0.3087
  186SAPI  C31121406   5.258   0.068   9.033  0.2467  0.4554 -0.7548
  186SAPI  H11X21407   5.244   0.142   9.115  1.1285  0.5645 -0.6859
  186SAPI  H11Y21408   5.191  -0.013   9.069  1.7209 -1.1138 -1.3854
  186SAPI  C31221409   5.231   0.123   8.894  0.1994 -0.2718 -0.2173
  186SAPI  H12X21410   5.246   0.037   8.825 -0.7555 -0.0005 -0.7775
  186SAPI  H12Y21411   5.305   0.202   8.869 -0.0063  0.1736  0.5375
  186SAPI  C31321412   5.085   0.164   8.868 -0.3364 -0.3751 -0.7505
  186SAPI  H13X21413   5.093   0.246   8.793  0.2850 -1.2809 -1.7108
  186SAPI  H13Y21414   5.054   0.208   8.965  2.8733 -1.8779  1.1025
  186SAPI  C31421415   5.008   0.045   8.820  0.5508  0.3539 -0.1565
  186SAPI  H14X21416   4.996  -0.031   8.900  1.0321 -1.2194 -1.5444
  186SAPI  H14Y21417   5.055  -0.020   8.744  0.1184  0.4410 -0.4996
  186SAPI  C31521418   4.874   0.092   8.773 -0.3920 -0.3965  0.3797
  186SAPI  H15X21419   4.888   0.144   8.676  0.8529  4.2416  2.7486
  186SAPI  H15Y21420   4.843   0.170   8.846  1.4326  0.2890  0.4884
  186SAPI  C31621421   4.779  -0.019   8.756 -0.5737 -0.0008 -0.1197
  186SAPI  H16X21422   4.756  -0.070   8.851 -1.4625  0.5656 -0.0162
  186SAPI  H16Y21423   4.823  -0.097   8.691  1.0426  1.0959 -0.4130
  186SAPI  C31721424   4.638   0.009   8.693  0.1322 -0.5238  0.3610
  186SAPI  H17X21425   4.605   0.104   8.742  1.2715  0.5016 -0.7731
  186SAPI  H17Y21426   4.559  -0.065   8.716 -3.5716  1.9140 -3.1135
  186SAPI  C31821427   4.647   0.028   8.542 -1.2028  0.2709  0.5689
  186SAPI  H18X21428   4.562   0.066   8.482 -0.6777 -1.0225 -1.0596
  186SAPI  H18Y21429   4.688  -0.064   8.497 -0.0027  0.1989  1.7327
  186SAPI  H18Z21430   4.719   0.109   8.516 -1.9629  0.9043  0.4008
  187SAPI   C1221431   2.790   1.351   6.114  0.1372  0.2791  0.1303
  187SAPI    H221432   2.753   1.291   6.200  0.0714 -1.0179 -0.7675
  187SAPI    O221433   2.927   1.327   6.111 -0.6482  0.2701  0.1687
  187SAPI   HO221434   2.937   1.248   6.164 -1.2114  0.5226  0.6617
  187SAPI   C1321435   2.714   1.297   5.987 -0.4070  0.4968 -0.3487
  187SAPI    H321436   2.607   1.313   6.012  0.1423  1.2087  1.7169
  187SAPI    O321437   2.735   1.157   5.958  0.3701 -0.1221 -0.0517
  187SAPI   HO321438   2.714   1.145   5.866 -1.3882 -0.5248  0.3679
  187SAPI   C1421439   2.742   1.382   5.866 -0.0323 -0.2381 -0.3735
  187SAPI    H421440   2.848   1.376   5.835  0.0509  1.7736 -0.5808
  187SAPI    O421441   2.658   1.335   5.756 -0.5516  0.2549  0.7181
  187SAPI   HO421442   2.712   1.330   5.677  0.7382 -0.1387  1.6055
  187SAPI   C1521443   2.712   1.525   5.895  0.5179 -0.3201 -0.0554
  187SAPI    H521444   2.605   1.525   5.923 -0.1580 -2.3372 -2.2877
  187SAPI    O521445   2.737   1.605   5.776  0.8244  0.3295  0.2627
  187SAPI   HO521446   2.652   1.632   5.740 -0.5007 -1.5394  1.8031
  187SAPI   C1621447   2.788   1.584   6.017  0.4893 -0.2332  0.0225
  187SAPI    H621448   2.895   1.569   5.991  0.2121 -1.1416 -0.6380
  187SAPI    O621449   2.759   1.720   6.035 -0.1322 -0.0730  0.6816
  187SAPI   HO621450   2.665   1.728   6.053 -0.5162 -0.4716 -0.9788
  187SAPI   C1121451   2.752   1.496   6.140  0.6434  0.7012  0.2914
  187SAPI    H121452   2.642   1.497   6.156  0.8935  0.4969  2.3573
  187SAPI     P21453   2.736   1.579   6.395 -0.1443  0.0479  0.2473
  187SAPI   O1321454   2.603   1.632   6.371  0.4665 -0.7718  0.4403
  187SAPI   O1421455   2.830   1.653   6.478 -0.1740  0.2861  0.6418
  187SAPI   O1221456   2.818   1.545   6.258 -0.3571  0.0146  0.3510
  187SAPI   O1121457   2.719   1.430   6.442 -0.0398  0.4159  0.2652
  187SAPI    C121458   2.833   1.345   6.460  0.2633  0.4378 -0.2613
  187SAPI    HA21459   2.827   1.259   6.390 -0.1117 -0.3555  0.7212
  187SAPI    HB21460   2.929   1.398   6.444  0.3757  0.0773 -0.7853
  187SAPI    C221461   2.834   1.279   6.601  0.3905  0.3245  0.5748
  187SAPI    HS21462   2.731   1.245   6.622  0.0996 -0.2934 -1.6726
  187SAPI   O2121463   2.883   1.379   6.689  0.5886 -0.3085 -0.2579
  187SAPI   C2121464   2.799   1.454   6.745 -0.2158 -0.1894 -0.3482
  187SAPI   O2221465   2.677   1.454   6.728 -0.0148  0.0754 -0.5720
  187SAPI   C2221466   2.870   1.531   6.852 -0.4651  0.2002  0.3668
  187SAPI   H2R21467   2.871   1.472   6.946 -0.0922  0.8128  0.7518
  187SAPI   H2S21468   2.966   1.566   6.809 -1.1765 -0.1965 -1.6647
  187SAPI    C321469   2.919   1.145   6.612 -0.1972  0.0036  0.3231
  187SAPI    HX21470   3.019   1.175   6.571  0.2685 -1.3139  0.4383
  187SAPI    HY21471   2.869   1.075   6.543 -1.5096  1.3355 -0.1301
  187SAPI   O3121472   2.933   1.101   6.741  0.0722  0.0977 -0.7097
  187SAPI   C3121473   2.982   0.981   6.759  0.3847  0.2965 -0.2760
  187SAPI   O3221474   3.044   0.925   6.678 -0.1044 -0.1499  0.7476
  187SAPI   C3221475   2.977   0.934   6.905 -0.1698  0.1507  0.3338
  187SAPI   H2X21476   2.980   1.027   6.966 -2.7086  0.9680 -0.6597
  187SAPI   H2Y21477   3.063   0.864   6.911 -1.6413 -1.6920  1.0303
  187SAPI   C2321478   2.780   1.649   6.888 -0.4630 -0.0961 -0.7296
  187SAPI   H3R21479   2.698   1.608   6.951  0.1775  1.1935  1.0318
  187SAPI   H3S21480   2.733   1.696   6.800 -2.2876 -1.8370 -0.7530
  187SAPI   C2421481   2.855   1.756   6.964 -0.5096 -0.4064 -0.0674
  187SAPI   H4R21482   2.786   1.830   7.010 -2.2939 -2.4998  0.8138
  187SAPI   H4S21483   2.927   1.809   6.899  0.6972  3.2269  3.8134
  187SAPI   C2521484   2.946   1.713   7.074  0.3936 -0.2970 -0.0565
  187SAPI   H5R21485   3.037   1.661   7.041 -0.4745 -0.9447 -1.5228
  187SAPI   C2621486   2.930   1.731   7.205 -0.5308 -0.1959 -0.2627
  187SAPI   H6R21487   3.009   1.714   7.280  0.4291  1.1446 -0.9443
  187SAPI   C2721488   2.816   1.810   7.266 -0.0260 -0.6107  0.2782
  187SAPI   H7R21489   2.781   1.890   7.197 -1.6641 -0.9557  0.6543
  187SAPI   H7S21490   2.856   1.867   7.352 -2.2218  0.6934  0.5239
  187SAPI   C2821491   2.701   1.711   7.301  0.3782  0.4028 -0.1399
  187SAPI   H8R21492   2.661   1.666   7.209  2.8923 -3.3121  0.3399
  187SAPI   C2921493   2.651   1.676   7.425  0.3077  0.3064 -0.1174
  187SAPI   H9R21494   2.568   1.604   7.434 -0.7075  1.3082 -1.1977
  187SAPI  C21021495   2.686   1.731   7.563  0.4458  0.2707 -0.0691
  187SAPI  H10R21496   2.744   1.822   7.535  2.0507 -0.8885 -0.7066
  187SAPI  H10S21497   2.770   1.668   7.599 -0.4146 -0.3726  0.8652
  187SAPI  C21121498   2.572   1.751   7.665 -0.1093  0.6598  0.5270
  187SAPI  H11R21499   2.500   1.829   7.635  0.0985  0.7643  0.2955
  187SAPI  C21221500   2.569   1.696   7.786 -0.1258  0.1706  0.1166
  187SAPI  H12R21501   2.487   1.733   7.850  0.8597  2.6647  0.0429
  187SAPI  C21321502   2.669   1.605   7.853  0.4033  0.3998  0.5077
  187SAPI  H13R21503   2.731   1.552   7.778 -0.7940  1.4051 -1.2652
  187SAPI  H13S21504   2.611   1.522   7.898 -0.8066 -0.0183 -1.7098
  187SAPI  C21421505   2.749   1.683   7.950  0.0926 -0.7811  0.2997
  187SAPI  H14R21506   2.828   1.748   7.910  0.2126 -0.0109  1.7057
  187SAPI  C21521507   2.741   1.680   8.088  0.2352  0.0577 -0.2625
  187SAPI  H15R21508   2.800   1.748   8.152  0.7726 -1.4234  0.8843
  187SAPI  C21621509   2.642   1.592   8.165 -0.6908 -0.3996 -0.4037
  187SAPI  H16R21510   2.702   1.505   8.200 -0.9029 -0.2955  0.2227
  187SAPI  H16S21511   2.577   1.545   8.089 -0.5679  1.5379 -1.7670
  187SAPI  C21721512   2.558   1.659   8.272  0.8070 -0.2170  0.0192
  187SAPI  H17R21513   2.632   1.708   8.338  1.8553 -2.4801  0.5846
  187SAPI  H17S21514   2.507   1.580   8.331 -3.0286  0.7491 -1.6570
  187SAPI  C21821515   2.461   1.772   8.221 -0.0108  0.0485  0.8588
  187SAPI  H18R21516   2.375   1.713   8.182  0.0907  1.0288 -0.9234
  187SAPI  H18S21517   2.510   1.841   8.149 -0.7173 -1.1024 -0.8032
  187SAPI  C21921518   2.399   1.852   8.336 -0.4843  0.2905 -0.2580
  187SAPI  H19R21519   2.487   1.900   8.384 -1.1097  1.4826 -0.2755
  187SAPI  H19S21520   2.358   1.778   8.408  0.4775 -1.2340 -1.2065
  187SAPI  C22021521   2.296   1.951   8.290 -0.4965  0.0049  0.0475
  187SAPI  H20R21522   2.261   2.012   8.375 -2.6599 -1.6913  0.4848
  187SAPI  H20S21523   2.197   1.915   8.251 -1.3127  1.7487  0.4278
  187SAPI  H20T21524   2.346   2.010   8.210 -0.3787 -0.6403 -0.3645
  187SAPI   C3321525   2.852   0.851   6.948 -0.4396 -0.7459  0.6986
  187SAPI   H3X21526   2.847   0.770   6.872 -0.6283  0.3923 -0.5418
  187SAPI   H3Y21527   2.757   0.908   6.952  0.2173  0.4525 -0.1356
  187SAPI   C3421528   2.858   0.755   7.068 -0.4764 -0.5385 -0.5785
  187SAPI   H4X21529   2.955   0.701   7.071 -0.0658  0.1737 -0.8588
  187SAPI   H4Y21530   2.775   0.681   7.067 -0.6828 -0.6066  3.5219
  187SAPI   C3521531   2.849   0.841   7.194  0.7071  0.0914 -0.4537
  187SAPI   H5X21532   2.749   0.889   7.200  1.5243  1.7490  0.9274
  187SAPI   H5Y21533   2.915   0.929   7.181  1.1259 -0.3433 -1.3518
  187SAPI   C3621534   2.870   0.748   7.313 -0.7227 -0.3530 -0.0258
  187SAPI   H6X21535   2.972   0.705   7.310 -0.2441  0.7580  0.0152
  187SAPI   H6Y21536   2.787   0.674   7.315 -1.6706  0.6981  1.0593
  187SAPI   C3721537   2.876   0.834   7.439 -0.2606  0.4805  0.5346
  187SAPI   H7X21538   2.779   0.885   7.454 -1.9429 -2.3006 -0.2724
  187SAPI   H7Y21539   2.946   0.919   7.422 -2.3687  2.0111 -1.1275
  187SAPI   C3821540   2.942   0.761   7.565  0.1749 -0.5951  0.7780
  187SAPI   H8X21541   3.050   0.738   7.554  1.0131  2.3765  1.8563
  187SAPI   H8Y21542   2.876   0.672   7.574 -1.0723 -0.1488 -2.4709
  187SAPI   C3921543   2.907   0.832   7.699  0.3608  0.3778  0.1219
  187SAPI   H9X21544   2.799   0.855   7.704  0.2856  0.4011 -1.1276
  187SAPI   H9Y21545   2.945   0.935   7.684  0.7729  0.1401 -0.5479
  187SAPI  C31021546   2.981   0.768   7.819  0.9123  0.1020  0.1302
  187SAPI  H10X21547   3.088   0.800   7.815  0.6173  1.1437  0.1689
  187SAPI  H10Y21548   3.000   0.659   7.818  0.2447 -0.0151 -0.0719
  187SAPI  C31121549   2.915   0.814   7.949  0.3729  0.4796  0.0870
  187SAPI  H11X21550   2.809   0.783   7.955 -0.7551  2.4603 -4.7543
  187SAPI  H11Y21551   2.903   0.925   7.955 -0.0060  0.5091 -0.9672
  187SAPI  C31221552   2.998   0.780   8.075 -0.0336  0.1170  0.3899
  187SAPI  H12X21553   2.945   0.812   8.168 -0.9932 -0.4686  0.0606
  187SAPI  H12Y21554   3.094   0.834   8.069 -1.4864  2.7835 -0.2574
  187SAPI  C31321555   3.033   0.627   8.086 -0.3773 -0.0830  0.1782
  187SAPI  H13X21556   3.103   0.599   8.004 -1.2466  2.8400 -1.7113
  187SAPI  H13Y21557   2.938   0.571   8.075 -0.2626 -0.7900  2.2875
  187SAPI  C31421558   3.102   0.588   8.214 -0.2306  0.1595  0.6261
  187SAPI  H14X21559   3.027   0.568   8.293  1.1733 -1.8648  1.5361
  187SAPI  H14Y21560   3.156   0.679   8.248  1.0888  0.5376 -2.1933
  187SAPI  C31521561   3.203   0.473   8.199  0.4187 -1.2671  1.2014
  187SAPI  H15X21562   3.267   0.480   8.290  0.8142 -0.2614  0.8597
  187SAPI  H15Y21563   3.260   0.480   8.104 -0.5462  0.5711  0.7190
  187SAPI  C31621564   3.125   0.343   8.209 -0.5829  0.1421  1.2414
  187SAPI  H16X21565   3.047   0.324   8.132  1.4601  1.2766 -1.2201
  187SAPI  H16Y21566   3.089   0.347   8.314  0.3707 -1.6844  1.6903
  187SAPI  C31721567   3.233   0.228   8.210  0.1693 -0.0672  0.5234
  187SAPI  H17X21568   3.323   0.251   8.271  1.4059 -1.7335 -0.5817
  187SAPI  H17Y21569   3.258   0.213   8.103  0.9164 -2.4336  0.9612
  187SAPI  C31821570   3.187   0.095   8.263 -0.3637  1.2239  0.5411
  187SAPI  H18X21571   3.114   0.031   8.209  1.5632  1.0358 -2.0257
  187SAPI  H18Y21572   3.151   0.123   8.364 -1.0199  0.9869  0.3799
  187SAPI  H18Z21573   3.270   0.022   8.276 -0.3079  1.2591  0.3939
  188SAPI   C1221574   3.357   4.520   6.387 -0.4265  0.3919 -0.1667
  188SAPI    H221575   3.341   4.598   6.464  0.8268  0.2716  0.2292
  188SAPI    O221576   3.459   4.570   6.297 -0.1627 -1.2422  0.2490
  188SAPI   HO221577   3.425   4.656   6.271 -0.2327 -0.9332  1.3122
  188SAPI   C1321578   3.403   4.391   6.454  0.0661 -0.3447 -0.4460
  188SAPI    H321579   3.312   4.360   6.509 -1.1883  0.2552 -2.0823
  188SAPI    O321580   3.504   4.428   6.552 -0.9646  0.0188 -0.2839
  188SAPI   HO321581   3.588   4.446   6.509  0.6010 -2.1052  1.6217
  188SAPI   C1421582   3.447   4.295   6.348  0.2612  0.4504 -0.0626
  188SAPI    H421583   3.534   4.330   6.288 -1.5565  1.6875 -2.0943
  188SAPI    O421584   3.492   4.173   6.410  0.2471  0.5568 -0.1646
  188SAPI   HO421585   3.586   4.186   6.426  0.6563  0.3793 -2.1455
  188SAPI   C1521586   3.328   4.264   6.256  0.3815 -0.2099  0.6363
  188SAPI    H521587   3.245   4.215   6.312  1.2065 -1.8931  0.4620
  188SAPI    O521588   3.368   4.174   6.152 -0.1629  0.3982  0.2014
  188SAPI   HO521589   3.314   4.097   6.137  1.9850 -0.9831 -0.8333
  188SAPI   C1621590   3.278   4.389   6.186 -0.1355 -0.3860  0.3731
  188SAPI    H621591   3.356   4.433   6.119  0.3533 -0.7577  0.6982
  188SAPI    O621592   3.165   4.365   6.100 -0.5758  0.1353 -0.4504
  188SAPI   HO621593   3.093   4.423   6.127  0.5614  0.9933  0.8592
  188SAPI   C1121594   3.238   4.488   6.302 -0.5268  0.5297 -0.5812
  188SAPI    H121595   3.162   4.427   6.355  0.1223  1.0062  0.9477
  188SAPI     P21596   3.082   4.699   6.336 -0.2503  0.1314  0.0354
  188SAPI   O1321597   3.017   4.619   6.441 -0.1024 -0.8337  0.7742
  188SAPI   O1421598   3.006   4.790   6.247  0.0465 -0.1403 -0.2632
  188SAPI   O1221599   3.172   4.599   6.245 -0.3973  0.4283 -0.0229
  188SAPI   O1121600   3.184   4.785   6.419  0.8539 -0.1043 -0.5418
  188SAPI    C121601   3.168   4.923   6.458  0.9271  0.1731 -0.8568
  188SAPI    HA21602   3.249   4.981   6.408 -0.1329  0.1059 -2.7653
  188SAPI    HB21603   3.078   4.967   6.410  0.5310 -0.1040 -0.3735
  188SAPI    C221604   3.168   4.952   6.617 -0.0238  0.5955 -0.0451
  188SAPI    HS21605   3.169   5.063   6.630 -2.0836  0.5628  0.7611
  188SAPI   O2121606   3.288   4.899   6.671 -0.3598 -0.2956 -0.0294
  188SAPI   C2121607   3.344   4.967   6.769  0.3029  0.2615  0.1884
  188SAPI   O2221608   3.295   5.061   6.823  0.3108 -0.7215 -0.2172
  188SAPI   C2221609   3.491   4.932   6.795 -0.2618  0.2605 -0.4968
  188SAPI   H2R21610   3.498   4.827   6.831 -1.1384  0.7185  1.1080
  188SAPI   H2S21611   3.536   4.926   6.694  0.1411 -0.2196 -0.2898
  188SAPI    C321612   3.049   4.876   6.690 -0.1480  0.2433 -0.1216
  188SAPI    HX21613   3.042   4.766   6.673 -1.1532  0.2482  0.1505
  188SAPI    HY21614   2.956   4.915   6.641  0.1207 -2.1770 -2.8285
  188SAPI   O3121615   3.055   4.890   6.836 -0.0702 -0.6511  0.5933
  188SAPI   C3121616   3.011   5.003   6.892 -0.3160 -0.2233 -0.0334
  188SAPI   O3221617   2.954   5.096   6.838  0.1121  0.2446  0.2996
  188SAPI   C3221618   3.045   5.002   7.037  0.6097  0.6424  0.1845
  188SAPI   H2X21619   2.980   5.074   7.092  0.9631  0.1445  1.2899
  188SAPI   H2Y21620   3.149   5.036   7.055  1.5361 -1.2472 -1.2278
  188SAPI   C2321621   3.556   5.021   6.905 -0.5682  0.1777 -0.3519
  188SAPI   H3R21622   3.549   5.127   6.873  4.3347  0.5653 -0.8765
  188SAPI   H3S21623   3.664   4.995   6.903 -0.2709  1.4025 -0.8984
  188SAPI   C2421624   3.502   4.980   7.045 -0.4066 -0.0799 -0.2324
  188SAPI   H4R21625   3.576   4.907   7.085 -1.7127 -0.3442  1.8990
  188SAPI   H4S21626   3.411   4.918   7.033  0.0168 -1.1182  1.4917
  188SAPI   C2521627   3.479   5.099   7.133  0.2555  0.0086  0.0110
  188SAPI   H5R21628   3.432   5.186   7.084 -0.3657 -0.9208 -1.1113
  188SAPI   C2621629   3.505   5.101   7.272  0.8526 -0.2723  0.6579
  188SAPI   H6R21630   3.467   5.186   7.331 -3.5557 -1.9088  0.5424
  188SAPI   C2721631   3.550   4.982   7.350 -0.1926  0.0506 -0.0733
  188SAPI   H7R21632   3.650   5.001   7.394 -0.3202 -0.2834  0.3622
  188SAPI   H7S21633   3.569   4.890   7.291 -0.3879  1.8154 -3.1045
  188SAPI   C2821634   3.450   4.940   7.455  0.2207  1.1312  0.4562
  188SAPI   H8R21635   3.361   4.880   7.429  0.4001 -0.8503  3.8086
  188SAPI   C2921636   3.449   4.957   7.589  0.1875  0.3719 -0.0405
  188SAPI   H9R21637   3.358   4.928   7.642 -0.5957  1.3113 -0.8308
  188SAPI  C21021638   3.554   5.030   7.668 -0.2768  0.3045  0.4939
  188SAPI  H10R21639   3.565   5.138   7.645 -2.4499  0.3510 -0.5212
  188SAPI  H10S21640   3.656   4.988   7.656  0.4627  2.2910 -0.8574
  188SAPI  C21121641   3.525   5.027   7.817  0.5401 -0.9582  0.0813
  188SAPI  H11R21642   3.469   4.944   7.863  1.0535 -0.2011  2.2217
  188SAPI  C21221643   3.586   5.106   7.907 -0.1572 -0.1105 -0.2005
  188SAPI  H12R21644   3.544   5.111   8.008  1.8601  2.1938  0.6132
  188SAPI  C21321645   3.688   5.208   7.875 -0.8633 -0.1086 -0.5636
  188SAPI  H13R21646   3.728   5.185   7.775 -1.0818  3.3337 -1.5640
  188SAPI  H13S21647   3.769   5.211   7.951  0.0283 -2.3660 -1.3490
  188SAPI  C21421648   3.622   5.344   7.871 -0.3749 -1.0785  0.4114
  188SAPI  H14R21649   3.561   5.354   7.780 -0.0091 -0.9281  0.1817
  188SAPI  C21521650   3.624   5.444   7.958  0.5142  0.1812 -0.5399
  188SAPI  H15R21651   3.555   5.528   7.939 -1.3512 -0.9902  0.7690
  188SAPI  C21621652   3.705   5.449   8.087 -0.1079  0.5342  0.7381
  188SAPI  H16R21653   3.773   5.537   8.082  0.1557  0.2776 -0.6756
  188SAPI  H16S21654   3.774   5.362   8.090 -0.6674  0.0748  0.4838
  188SAPI  C21721655   3.615   5.461   8.210  0.2026  0.4288 -0.0306
  188SAPI  H17R21656   3.545   5.377   8.191 -0.6467  1.8227 -4.1311
  188SAPI  H17S21657   3.549   5.550   8.203 -1.2657 -0.6774 -0.7772
  188SAPI  C21821658   3.685   5.443   8.346 -0.1266 -0.0716 -0.6316
  188SAPI  H18R21659   3.769   5.512   8.366 -1.0688  0.9928 -0.2664
  188SAPI  H18S21660   3.721   5.338   8.348  1.9907  0.6220  0.0417
  188SAPI  C21921661   3.577   5.465   8.461 -0.4307  0.2444  0.7035
  188SAPI  H19R21662   3.499   5.386   8.462  0.0834 -0.2729  1.4863
  188SAPI  H19S21663   3.532   5.566   8.446 -2.6563 -0.8276 -0.3941
  188SAPI  C22021664   3.643   5.471   8.602 -0.4556 -0.2970  0.2888
  188SAPI  H20R21665   3.677   5.371   8.637  0.0487 -0.5134 -0.7979
  188SAPI  H20S21666   3.566   5.508   8.674 -0.8504 -0.9323  0.2081
  188SAPI  H20T21667   3.731   5.538   8.599  0.2881 -1.2855 -0.5609
  188SAPI   C3321668   3.032   4.873   7.132 -0.1506  0.2998  0.1162
  188SAPI   H3X21669   3.071   4.796   7.063 -1.2470 -0.6831  0.5469
  188SAPI   H3Y21670   2.931   4.830   7.149  0.4605 -1.0839  0.4128
  188SAPI   C3421671   3.107   4.884   7.268 -0.2900  0.3156  0.2152
  188SAPI   H4X21672   3.073   4.979   7.315 -1.8437 -0.1699  0.1028
  188SAPI   H4Y21673   3.217   4.898   7.265 -0.3804  2.3395  2.5792
  188SAPI   C3521674   3.083   4.772   7.370 -0.2520  0.8155 -0.3653
  188SAPI   H5X21675   2.972   4.762   7.374 -0.2569 -1.4338 -3.1140
  188SAPI   H5Y21676   3.113   4.806   7.471 -0.3161  0.7698 -0.3308
  188SAPI   C3621677   3.151   4.638   7.327 -0.3634  0.2073  0.1406
  188SAPI   H6X21678   3.260   4.645   7.304 -0.8192 -2.6605 -3.9387
  188SAPI   H6Y21679   3.096   4.584   7.247 -0.4715 -0.4443  0.6445
  188SAPI   C3721680   3.142   4.532   7.447 -0.4399 -0.1148 -0.8854
  188SAPI   H7X21681   3.135   4.431   7.400  1.3075 -0.6716 -0.0332
  188SAPI   H7Y21682   3.047   4.552   7.502 -0.6966  0.7360 -1.6134
  188SAPI   C3821683   3.255   4.539   7.546 -0.7981 -0.6539 -0.3670
  188SAPI   H8X21684   3.314   4.633   7.544 -1.3590 -0.3032 -1.7110
  188SAPI   H8Y21685   3.331   4.458   7.538  0.5193  0.5105 -0.0662
  188SAPI   C3921686   3.191   4.537   7.684 -1.0048 -0.0409 -0.4675
  188SAPI   H9X21687   3.115   4.456   7.695 -0.5941 -0.2711  0.8224
  188SAPI   H9Y21688   3.123   4.624   7.695 -1.7629 -0.4129 -1.8813
  188SAPI  C31021689   3.292   4.535   7.802  0.2281  0.3261 -0.8780
  188SAPI  H10X21690   3.363   4.620   7.801  1.4793 -0.6868 -1.5240
  188SAPI  H10Y21691   3.363   4.451   7.786 -1.6989 -1.0844 -2.6225
  188SAPI  C31121692   3.221   4.544   7.934 -0.5584  0.0696 -0.1279
  188SAPI  H11X21693   3.159   4.453   7.949 -1.8627  0.9708  0.1118
  188SAPI  H11Y21694   3.150   4.629   7.926 -1.8927 -1.1701 -2.9963
  188SAPI  C31221695   3.308   4.546   8.065  0.0453 -0.1930 -0.1398
  188SAPI  H12X21696   3.339   4.652   8.070  1.6504 -0.6657  0.3378
  188SAPI  H12Y21697   3.402   4.491   8.047 -0.6787 -1.6519  0.3667
  188SAPI  C31321698   3.231   4.517   8.192  0.3565  0.0371 -0.3312
  188SAPI  H13X21699   3.184   4.418   8.169  0.6681  0.1214 -1.3861
  188SAPI  H13Y21700   3.152   4.595   8.192  0.5924  0.2821 -1.3338
  188SAPI  C31421701   3.319   4.522   8.319  0.5733  0.0193  1.4962
  188SAPI  H14X21702   3.389   4.606   8.306  0.2824  0.0054 -0.3966
  188SAPI  H14Y21703   3.371   4.424   8.323 -1.0854 -1.2115 -2.2771
  188SAPI  C31521704   3.238   4.535   8.451  0.7119  0.4350  0.3406
  188SAPI  H15X21705   3.171   4.448   8.467  2.7245 -1.1533  0.5708
  188SAPI  H15Y21706   3.176   4.627   8.443  0.3059  0.1666  0.3770
  188SAPI  C31621707   3.321   4.555   8.580 -0.0585 -0.3417 -0.9855
  188SAPI  H16X21708   3.398   4.476   8.571 -1.1665 -1.5540 -0.1795
  188SAPI  H16Y21709   3.251   4.534   8.664  0.9678  0.4111  0.0941
  188SAPI  C31721710   3.395   4.687   8.588  0.6329  0.0323  0.5874
  188SAPI  H17X21711   3.323   4.769   8.565  0.7810  0.5838  2.0068
  188SAPI  H17Y21712   3.476   4.681   8.512  0.2191 -0.1989  0.1636
  188SAPI  C31821713   3.459   4.703   8.720 -1.2485 -0.0201 -0.1789
  188SAPI  H18X21714   3.505   4.803   8.737  1.4138 -1.5241  2.3631
  188SAPI  H18Y21715   3.539   4.627   8.727 -0.3396  0.9096 -0.1237
  188SAPI  H18Z21716   3.388   4.695   8.804 -0.8663  3.0110  0.5671
  189POPC     N21717   3.947   1.562  11.173  0.6895  0.3288  0.1458
  189POPC   C1221718   3.923   1.592  11.021 -0.6337  0.6458 -0.8620
  189POPC  H12A21719   3.882   1.692  11.013  2.2311  1.9460 -0.6744
  189POPC  H12B21720   3.855   1.519  10.980  0.6124 -0.5431 -0.8754
  189POPC   C1321721   3.820   1.548  11.254 -0.6010 -0.5600  0.2103
  189POPC  H13A21722   3.853   1.528  11.356 -0.1469 -0.3881  0.1021
  189POPC  H13B21723   3.759   1.637  11.260  0.8726  0.5082  0.0974
  189POPC  H13C21724   3.756   1.470  11.218  0.0480 -0.6338 -0.8248
  189POPC   C1421725   4.028   1.438  11.199 -0.7438  0.4746 -0.3208
  189POPC  H14A21726   4.074   1.445  11.297  2.6865 -4.7062 -1.1839
  189POPC  H14B21727   3.975   1.345  11.187 -1.0486  0.8915 -2.6141
  189POPC  H14C21728   4.107   1.435  11.126 -0.5052  0.4479 -0.0613
  189POPC   C1521729   4.012   1.681  11.231 -0.4795 -0.6726 -0.3494
  189POPC  H15A21730   4.106   1.697  11.180  0.2798 -0.3104  1.0988
  189POPC  H15B21731   4.029   1.674  11.338 -0.2667 -0.5165 -0.3717
  189POPC  H15C21732   3.954   1.768  11.206  1.4527  0.1232 -2.3962
  189POPC   C1121733   4.047   1.584  10.922  0.0394 -0.3225 -1.2772
  189POPC  H11A21734   4.119   1.661  10.956 -0.5565  0.4511 -1.7028
  189POPC  H11B21735   4.002   1.612  10.824  0.3552 -0.8028 -1.5647
  189POPC     P21736   4.022   1.347  10.830  0.0316  0.2313  0.0083
  189POPC   O1321737   3.880   1.355  10.859 -0.6052  0.1609  0.8750
  189POPC   O1421738   4.085   1.211  10.847  0.0237  0.0795 -0.5572
  189POPC   O1221739   4.105   1.451  10.916  0.0111 -0.4972 -0.4141
  189POPC   O1121740   4.044   1.389  10.674  0.0286  0.2991  0.5586
  189POPC    C121741   4.178   1.416  10.639 -0.3309 -0.1494  0.0116
  189POPC    HA21742   4.252   1.341  10.673 -1.4645 -0.4424  2.0240
  189POPC    HB21743   4.188   1.522  10.671 -2.0872  0.1425 -0.3019
  189POPC    C221744   4.195   1.429  10.482 -0.6385  0.8238 -0.1492
  189POPC    HS21745   4.296   1.469  10.456 -0.7062  0.5846 -0.8155
  189POPC   O2121746   4.096   1.509  10.424  0.3077  0.3410 -0.3276
  189POPC   C2121747   4.101   1.643  10.429 -0.3208  0.5544  0.3724
  189POPC   O2221748   4.193   1.704  10.481  0.2959  0.2024  0.0396
  189POPC   C2221749   3.987   1.707  10.358  0.3371 -0.1664  0.4894
  189POPC   H2R21750   3.935   1.751  10.446  1.3808  1.4542  0.3322
  189POPC   H2S21751   3.928   1.631  10.302 -1.0642 -0.2053  1.9376
  189POPC    C321752   4.179   1.280  10.418 -0.5624 -0.1664  0.3048
  189POPC    HX21753   4.076   1.256  10.454  0.2815 -1.2355  2.1532
  189POPC    HY21754   4.251   1.226  10.483 -0.0800  1.8274  1.5180
  189POPC   O3121755   4.195   1.270  10.277 -0.0660  0.8012 -0.0092
  189POPC   C3121756   4.078   1.271  10.211  0.3065  1.1221  0.0478
  189POPC   O3221757   3.969   1.274  10.255  0.2040  0.4724 -0.3538
  189POPC   C3221758   4.108   1.249  10.061 -0.0490 -0.1527  0.2273
  189POPC   H2X21759   4.098   1.139  10.047 -1.9552 -0.0274  0.3676
  189POPC   H2Y21760   4.212   1.283  10.038  0.5159 -1.0713  1.3006
  189POPC   C2321761   4.028   1.800  10.243  0.1741  0.3112  0.4119
  189POPC   H3R21762   4.112   1.870  10.265 -0.1933  1.2705 -1.1235
  189POPC   H3S21763   3.937   1.855  10.213 -0.5936 -1.3231 -0.3560
  189POPC   C2421764   4.078   1.719  10.123 -0.6568  0.6630 -0.4302
  189POPC   H4R21765   3.995   1.664  10.075  0.8639 -1.7068 -0.5429
  189POPC   H4S21766   4.153   1.641  10.151 -0.4712  1.2139  0.6485
  189POPC   C2521767   4.154   1.808  10.022 -0.0823 -0.2006  0.1064
  189POPC   H5R21768   4.258   1.825  10.058 -0.3984  0.9982  0.5093
  189POPC   H5S21769   4.128   1.916  10.015  2.4855  0.4788 -0.0037
  189POPC   C2621770   4.143   1.735   9.886  0.3534  0.0002 -0.5148
  189POPC   H6R21771   4.039   1.737   9.846  0.1251 -1.3264 -0.0308
  189POPC   H6S21772   4.165   1.628   9.906  0.3244  0.3753  1.7752
  189POPC   C2721773   4.232   1.783   9.772 -0.1487  0.4323  0.1618
  189POPC   H7R21774   4.336   1.757   9.803 -1.0614 -0.3133  2.8594
  189POPC   H7S21775   4.221   1.892   9.752 -2.1241  0.3682  0.7281
  189POPC   C2821776   4.197   1.713   9.638  0.8490  0.8021  0.6716
  189POPC   H8R21777   4.094   1.740   9.607  1.5499  0.8099 -1.8677
  189POPC   H8S21778   4.201   1.603   9.651 -0.9459  0.3587 -1.8169
  189POPC   C2921779   4.285   1.763   9.529  0.4097  0.0191 -0.5855
  189POPC   H9121780   4.366   1.690   9.512  0.3370  0.0512 -1.0785
  189POPC  C21021781   4.267   1.878   9.451 -0.8741 -0.6695 -0.2505
  189POPC  H10121782   4.350   1.910   9.387  1.2319 -2.6165  1.3397
  189POPC  C21121783   4.157   1.980   9.479  0.2601 -0.4483  0.3688
  189POPC  H11R21784   4.196   2.073   9.524 -0.9433  0.4358 -0.3738
  189POPC  H11S21785   4.082   1.932   9.544  1.8284 -0.5460  2.1961
  189POPC  C21221786   4.099   2.025   9.344  0.2315  0.0050  0.2374
  189POPC  H12R21787   4.014   2.095   9.359  0.9905  0.8396  0.7844
  189POPC  H12S21788   4.065   1.942   9.279 -1.0737  1.0455 -0.4476
  189POPC  C21321789   4.205   2.096   9.262 -0.4294  0.1376 -0.4490
  189POPC  H13R21790   4.254   2.024   9.192 -0.7814 -0.5030 -0.0446
  189POPC  H13S21791   4.282   2.131   9.333 -0.3491 -0.3341 -0.3042
  189POPC  C21421792   4.155   2.218   9.191  0.2208 -0.0194  0.7211
  189POPC  H14R21793   4.110   2.291   9.262 -1.4565  1.3030 -1.5444
  189POPC  H14S21794   4.068   2.178   9.134  0.9039  0.3037 -0.5906
  189POPC  C21521795   4.267   2.284   9.121 -1.0875 -0.6805  0.4253
  189POPC  H15R21796   4.371   2.276   9.159 -0.7107 -1.2977 -0.6692
  189POPC  H15S21797   4.242   2.392   9.114  3.7746  0.5704 -1.1479
  189POPC  C21621798   4.271   2.251   8.966  0.6153  0.1070  0.0271
  189POPC  H16R21799   4.169   2.264   8.924 -0.2633 -0.0977  1.9673
  189POPC  H16S21800   4.302   2.146   8.951  2.5693  0.6652 -0.0885
  189POPC  C21721801   4.356   2.350   8.890  0.1712 -0.2922  0.3888
  189POPC  H17R21802   4.455   2.347   8.940  0.8110  2.1007 -0.6117
  189POPC  H17S21803   4.309   2.451   8.899 -2.1294 -0.9750 -2.5234
  189POPC  C21821804   4.375   2.314   8.741 -0.7246 -0.2006 -0.6153
  189POPC  H18R21805   4.287   2.307   8.675 -1.2849  1.1905 -0.0628
  189POPC  H18S21806   4.440   2.225   8.732  1.1491  0.9629  0.5967
  189POPC  H18T21807   4.426   2.403   8.699 -2.4513  0.8614 -0.5500
  189POPC   C3321808   4.010   1.339   9.984 -0.0246 -0.5196  0.4049
  189POPC   H3X21809   4.006   1.441  10.028 -2.0854  0.0530 -0.9715
  189POPC   H3Y21810   3.904   1.308   9.992 -0.2259 -0.3111 -1.1464
  189POPC   C3421811   4.043   1.346   9.834 -0.2644 -0.5491  0.6838
  189POPC   H4X21812   4.076   1.246   9.798 -2.4793 -1.0388 -0.1120
  189POPC   H4Y21813   4.139   1.402   9.838  0.7084 -2.1904  1.4296
  189POPC   C3521814   3.931   1.393   9.743 -0.7220 -0.5590  0.1040
  189POPC   H5X21815   3.891   1.489   9.781 -2.9950 -1.6309  0.6070
  189POPC   H5Y21816   3.848   1.319   9.738  0.1117 -1.5853  1.0016
  189POPC   C3621817   3.962   1.425   9.596  0.2226  0.0197  0.4008
  189POPC   H6X21818   4.002   1.528   9.591  0.1804  0.0281  0.2428
  189POPC   H6Y21819   3.869   1.422   9.535 -1.1182  0.8153  2.2926
  189POPC   C3721820   4.062   1.323   9.538 -0.5171 -0.7954 -0.4250
  189POPC   H7X21821   4.010   1.226   9.552 -0.6337 -0.7021 -0.1973
  189POPC   H7Y21822   4.158   1.318   9.595 -0.7347 -2.3254 -0.1520
  189POPC   C3821823   4.087   1.340   9.388  0.3080  0.1128 -0.5541
  189POPC   H8X21824   4.004   1.276   9.352  2.5090 -3.5335  0.3388
  189POPC   H8Y21825   4.184   1.286   9.374 -0.3289 -1.0380 -0.6384
  189POPC   C3921826   4.102   1.487   9.334 -0.7214  0.1084  0.3668
  189POPC   H9X21827   4.192   1.532   9.382 -1.6668 -0.7704  3.1854
  189POPC   H9Y21828   4.019   1.549   9.374  0.0103  1.2593  0.1513
  189POPC  C31021829   4.102   1.495   9.182  0.2895 -0.7707 -0.4128
  189POPC  H10X21830   3.996   1.487   9.150 -0.1088 -1.6133  1.0164
  189POPC  H10Y21831   4.159   1.408   9.144 -0.4549 -0.1377 -3.1602
  189POPC  C31121832   4.184   1.607   9.117  0.2407 -0.3225  0.6205
  189POPC  H11X21833   4.292   1.592   9.139  0.4423 -0.3437 -0.3431
  189POPC  H11Y21834   4.137   1.695   9.166 -1.4756  0.8850 -2.8635
  189POPC  C31221835   4.160   1.616   8.966  0.0081 -0.1753  0.8554
  189POPC  H12X21836   4.051   1.621   8.943 -0.2493 -3.3654  1.0140
  189POPC  H12Y21837   4.203   1.526   8.919  1.5574  1.4729 -1.0667
  189POPC  C31321838   4.224   1.745   8.902 -0.5647 -0.5825  0.0883
  189POPC  H13X21839   4.324   1.751   8.950 -0.5200  1.0146 -0.1520
  189POPC  H13Y21840   4.166   1.832   8.939  2.0031  0.9610  0.7280
  189POPC  C31421841   4.213   1.735   8.750  0.5272  0.2164 -0.7846
  189POPC  H14X21842   4.109   1.730   8.711  0.7283  0.9095 -1.4303
  189POPC  H14Y21843   4.244   1.632   8.720 -0.2587 -0.0466 -0.7230
  189POPC  C31521844   4.300   1.830   8.673  0.1981 -0.2792 -0.2846
  189POPC  H15X21845   4.406   1.797   8.683  0.3819  0.5176  0.5482
  189POPC  H15Y21846   4.293   1.931   8.718  0.0359 -0.0857 -0.7367
  189POPC  C31621847   4.252   1.840   8.525 -0.3689 -0.0602  0.1032
  189POPC  H16X21848   4.305   1.919   8.468 -1.9045  0.2188 -0.9883
  189POPC  H16Y21849   4.142   1.852   8.526 -0.2001  3.0634  3.5762
  189POPC  H16Z21850   4.284   1.748   8.472  2.0469  0.0687  1.1785
  190POPC     N21851   5.258   2.281  10.758  0.0410 -0.2189 -0.3202
  190POPC   C1221852   5.279   2.425  10.797 -0.0713 -0.2692  0.4441
  190POPC  H12A21853   5.261   2.492  10.714 -0.5596 -2.2647 -1.1229
  190POPC  H12B21854   5.382   2.437  10.829  0.2353 -0.4647 -0.4310
  190POPC   C1321855   5.368   2.237  10.670 -0.7546 -0.2429 -0.0859
  190POPC  H13A21856   5.457   2.220  10.729 -1.6622 -4.1644  0.4637
  190POPC  H13B21857   5.345   2.135  10.643 -1.7015 -0.4548  1.3864
  190POPC  H13C21858   5.389   2.302  10.587  1.1131 -0.5443  0.0946
  190POPC   C1421859   5.245   2.191  10.881  0.2641 -0.5671  0.0023
  190POPC  H14A21860   5.172   2.223  10.954  2.1211  3.2850  0.4150
  190POPC  H14B21861   5.226   2.092  10.844 -0.3274 -1.3548  2.2553
  190POPC  H14C21862   5.336   2.197  10.939 -1.1231  2.2535  2.1324
  190POPC   C1521863   5.131   2.284  10.682 -0.1101 -0.3944 -0.9575
  190POPC  H15A21864   5.064   2.343  10.742  1.5518 -0.0113  0.6157
  190POPC  H15B21865   5.077   2.191  10.668  1.2344 -1.3182 -0.2383
  190POPC  H15C21866   5.151   2.331  10.586 -0.4710  2.0552  0.0980
  190POPC   C1121867   5.185   2.485  10.905  0.2075 -0.6913  0.2798
  190POPC  H11A21868   5.243   2.574  10.938  1.8972 -0.9892 -1.6733
  190POPC  H11B21869   5.182   2.413  10.989  0.3042 -0.0860  0.8086
  190POPC     P21870   4.960   2.600  10.954 -0.1192 -0.3533  0.2082
  190POPC   O1321871   5.006   2.739  10.981 -0.1766  1.0398 -0.0864
  190POPC   O1421872   4.944   2.519  11.081  0.2923  0.3980 -0.0047
  190POPC   O1221873   5.052   2.514  10.852  0.4909 -0.6327 -0.1209
  190POPC   O1121874   4.820   2.596  10.877 -0.3648  0.1255  0.0155
  190POPC    C121875   4.817   2.648  10.743 -0.1251 -0.2793  0.4954
  190POPC    HA21876   4.909   2.701  10.710 -0.1072 -0.2042  0.6636
  190POPC    HB21877   4.729   2.715  10.734 -0.4695 -1.0406 -2.6213
  190POPC    C221878   4.795   2.533  10.642 -0.4401 -0.2126 -0.2963
  190POPC    HS21879   4.888   2.472  10.644  0.0374  0.5091  1.4993
  190POPC   O2121880   4.784   2.601  10.516  0.7862  0.2771 -0.0306
  190POPC   C2121881   4.836   2.533  10.417 -1.1243  0.0356  0.3224
  190POPC   O2221882   4.911   2.437  10.428  0.2594 -0.2510 -0.2138
  190POPC   C2221883   4.777   2.573  10.278 -0.4696 -0.7310 -0.0954
  190POPC   H2R21884   4.860   2.594  10.207  0.6382  5.5636  2.4189
  190POPC   H2S21885   4.739   2.677  10.282 -1.7590 -1.2010  2.7298
  190POPC    C321886   4.682   2.434  10.670 -0.0268  0.1091 -0.6807
  190POPC    HX21887   4.588   2.493  10.681  0.2724  0.2027  2.3120
  190POPC    HY21888   4.701   2.387  10.769 -3.1179 -0.7715 -0.3918
  190POPC   O3121889   4.662   2.342  10.568  0.2791  0.2297  0.4062
  190POPC   C3121890   4.742   2.235  10.573 -0.4357 -0.6211 -0.2516
  190POPC   O3221891   4.819   2.218  10.670  0.6226 -0.2094  0.2178
  190POPC   C3221892   4.723   2.149  10.446  0.5366  0.5691 -0.0779
  190POPC   H2X21893   4.774   2.052  10.463  0.8490  0.2989 -2.2852
  190POPC   H2Y21894   4.791   2.190  10.369  2.4477  1.3035  1.8951
  190POPC   C2321895   4.666   2.482  10.223  0.2036  0.9428  0.5044
  190POPC   H3R21896   4.577   2.478  10.290  0.8884 -1.0442  1.3931
  190POPC   H3S21897   4.690   2.374  10.211 -1.0164  0.9026 -2.9837
  190POPC   C2421898   4.610   2.518  10.084 -0.3115 -0.9861  0.3456
  190POPC   H4R21899   4.602   2.628  10.069 -1.9880 -1.0740  0.3293
  190POPC   H4S21900   4.508   2.478  10.065 -0.6834  0.0638  0.0443
  190POPC   C2521901   4.686   2.452   9.968 -0.2262 -0.4472  0.3552
  190POPC   H5R21902   4.684   2.341   9.975  1.2850 -0.6779 -1.9160
  190POPC   H5S21903   4.792   2.484   9.980  0.1010 -1.0115 -0.8355
  190POPC   C2621904   4.642   2.497   9.828  0.2406 -0.4689  0.8194
  190POPC   H6R21905   4.671   2.603   9.816  4.2061 -1.4218  0.3357
  190POPC   H6S21906   4.533   2.485   9.810  0.1563  1.0039  0.2962
  190POPC   C2721907   4.705   2.425   9.718 -0.0187  0.5360 -0.2120
  190POPC   H7R21908   4.723   2.319   9.746 -0.6060  0.4076 -0.3131
  190POPC   H7S21909   4.806   2.471   9.708  0.2258  0.8508  2.8134
  190POPC   C2821910   4.613   2.401   9.591  0.0109  0.0257 -0.3504
  190POPC   H8R21911   4.517   2.348   9.611 -0.8215  1.7208  0.3307
  190POPC   H8S21912   4.679   2.338   9.528 -0.7635 -1.3875  0.2031
  190POPC   C2921913   4.574   2.526   9.511 -0.2436  0.3355  0.1217
  190POPC   H9121914   4.538   2.611   9.571  1.3106  1.0452  0.1106
  190POPC  C21021915   4.565   2.534   9.378  0.3142  0.2121 -0.1913
  190POPC  H10121916   4.556   2.638   9.344  0.3281  1.3914  2.9960
  190POPC  C21121917   4.609   2.428   9.287 -0.3597  0.3500  0.1259
  190POPC  H11R21918   4.520   2.370   9.255  1.3239 -1.9370 -0.7075
  190POPC  H11S21919   4.671   2.352   9.339  0.2100  0.9452  0.3288
  190POPC  C21221920   4.689   2.492   9.175 -0.9942  0.6178  0.0493
  190POPC  H12R21921   4.784   2.544   9.199 -0.9310  1.0774 -1.1346
  190POPC  H12S21922   4.631   2.567   9.117  0.7085  2.2908  0.4277
  190POPC  C21321923   4.734   2.379   9.081 -0.2997  0.5303 -0.0260
  190POPC  H13R21924   4.649   2.322   9.037 -0.5568  1.8636 -1.3383
  190POPC  H13S21925   4.803   2.310   9.135  1.9778  1.9880 -0.9470
  190POPC  C21421926   4.815   2.427   8.956 -0.0680  0.2412 -0.0481
  190POPC  H14R21927   4.902   2.481   9.000  1.3271 -3.1523  1.7957
  190POPC  H14S21928   4.746   2.500   8.910  0.4360  0.0882 -1.0979
  190POPC  C21521929   4.864   2.328   8.855  0.2292 -0.4257 -0.2771
  190POPC  H15R21930   4.900   2.245   8.920 -0.0356  0.0206  0.4424
  190POPC  H15S21931   4.948   2.367   8.794  0.4210 -0.5186 -0.0731
  190POPC  C21621932   4.754   2.285   8.754 -0.5237  0.5550 -0.2796
  190POPC  H16R21933   4.701   2.376   8.720  0.5556  1.2689 -0.0804
  190POPC  H16S21934   4.679   2.211   8.789 -1.1842  1.1565 -0.4190
  190POPC  C21721935   4.815   2.219   8.630 -0.1560 -0.8661  0.0734
  190POPC  H17R21936   4.873   2.130   8.663  1.5092  0.9603  2.4166
  190POPC  H17S21937   4.872   2.298   8.576 -1.3490 -0.3128 -0.4107
  190POPC  C21821938   4.698   2.168   8.544  0.3343 -0.2210  0.3804
  190POPC  H18R21939   4.732   2.105   8.459  1.0641  0.3675  0.2280
  190POPC  H18S21940   4.643   2.255   8.502 -0.9947 -0.5583  1.3439
  190POPC  H18T21941   4.627   2.102   8.599 -2.0173  0.2366 -1.8953
  190POPC   C3321942   4.577   2.136  10.399 -0.1603 -0.2954 -0.6759
  190POPC   H3X21943   4.531   2.224  10.350 -2.1715 -0.5727  0.6222
  190POPC   H3Y21944   4.507   2.127  10.484 -0.2816  0.7434 -0.6587
  190POPC   C3421945   4.555   2.007  10.323  0.0793  0.4172 -0.4098
  190POPC   H4X21946   4.448   2.015  10.297  0.1285  0.9589 -0.4552
  190POPC   H4Y21947   4.573   1.921  10.391  0.6675  0.6712 -0.2329
  190POPC   C3521948   4.637   1.996  10.196  0.6022  0.1926 -0.0428
  190POPC   H5X21949   4.672   1.891  10.186 -1.8682 -0.5188 -2.4147
  190POPC   H5Y21950   4.738   2.041  10.198  0.4000  0.6472  0.4457
  190POPC   C3621951   4.556   2.042  10.071  0.7345  0.1751  0.0683
  190POPC   H6X21952   4.535   2.149  10.087 -0.4787 -0.0367  0.0002
  190POPC   H6Y21953   4.468   1.975  10.067  0.5800  0.3829  0.0072
  190POPC   C3721954   4.643   2.033   9.946 -0.5378 -0.0346 -0.3671
  190POPC   H7X21955   4.699   1.937   9.952  2.5520  1.4738 -2.5237
  190POPC   H7Y21956   4.718   2.113   9.957 -2.9345  2.1634  0.9976
  190POPC   C3821957   4.564   2.056   9.817 -0.5188  0.4510 -0.4280
  190POPC   H8X21958   4.556   2.165   9.798 -1.2982  0.7194  1.3186
  190POPC   H8Y21959   4.462   2.011   9.814 -0.7173  0.8142  0.5852
  190POPC   C3921960   4.627   1.984   9.699 -0.1007 -0.0241 -0.2756
  190POPC   H9X21961   4.600   1.877   9.700 -2.0082  0.2865 -3.3210
  190POPC   H9Y21962   4.738   1.984   9.704  0.0944 -2.8845 -2.2046
  190POPC  C31021963   4.596   2.044   9.572  0.2303 -0.4623  0.5230
  190POPC  H10X21964   4.642   2.145   9.564 -0.1791 -0.3909 -1.6342
  190POPC  H10Y21965   4.487   2.056   9.551  0.1198  1.2631  1.8181
  190POPC  C31121966   4.642   1.974   9.445  0.0419  0.0222 -0.5977
  190POPC  H11X21967   4.602   1.871   9.448  2.9846 -1.1909  0.9094
  190POPC  H11Y21968   4.753   1.962   9.450  0.2560  2.0935  1.1455
  190POPC  C31221969   4.617   2.042   9.316  0.4263 -0.7555 -0.0504
  190POPC  H12X21970   4.698   2.117   9.300 -1.6191  1.1342 -2.4792
  190POPC  H12Y21971   4.516   2.088   9.321  0.2570 -0.7085 -2.5522
  190POPC  C31321972   4.620   1.954   9.193 -0.8824  0.0075  1.0157
  190POPC  H13X21973   4.526   1.894   9.195 -1.0343  0.1707 -0.3550
  190POPC  H13Y21974   4.707   1.887   9.207  0.2893  0.5077 -2.8836
  190POPC  C31421975   4.636   2.023   9.048 -0.1981 -0.0064 -0.0361
  190POPC  H14X21976   4.732   2.078   9.055  1.1880 -2.3349  0.5040
  190POPC  H14Y21977   4.550   2.092   9.039 -0.9061 -0.5137  2.2538
  190POPC  C31521978   4.647   1.915   8.938  0.3393 -0.4040 -0.1910
  190POPC  H15X21979   4.656   1.973   8.844  2.0291 -2.9710 -1.6959
  190POPC  H15Y21980   4.554   1.859   8.915  0.6282 -0.4375 -1.2966
  190POPC  C31621981   4.765   1.821   8.960 -0.2849 -0.0559 -0.5597
  190POPC  H16X21982   4.839   1.877   9.021 -2.1058  0.4376  1.3227
  190POPC  H16Y21983   4.810   1.764   8.876  0.0840 -2.4966  1.1978
  190POPC  H16Z21984   4.734   1.740   9.029  0.7751 -0.5417 -0.6305
  191POPC     N21985   4.586   4.284   6.442  0.0171  0.2071  0.3991
  191POPC   C1221986   4.530   4.159   6.512  0.4011 -0.1991  0.0860
  191POPC  H12A21987   4.447   4.194   6.571  1.7821 -0.3567  2.2223
  191POPC  H12B21988   4.608   4.121   6.577 -0.0948 -1.7989 -0.1963
  191POPC   C1321989   4.616   4.386   6.538  0.1515  0.1954  0.5777
  191POPC  H13A21990   4.691   4.344   6.604  2.0629  0.1510 -1.5324
  191POPC  H13B21991   4.645   4.480   6.493  0.3267  0.8526  1.9713
  191POPC  H13C21992   4.540   4.418   6.608 -0.8682 -0.2186 -0.3279
  191POPC   C1421993   4.705   4.248   6.353  0.3601  0.1580  0.0258
  191POPC  H14A21994   4.784   4.200   6.408 -0.3883  0.1950  1.1814
  191POPC  H14B21995   4.679   4.183   6.272  0.8462 -1.3974  1.0778
  191POPC  H14C21996   4.736   4.344   6.315 -0.8634  0.4090 -0.3931
  191POPC   C1521997   4.486   4.331   6.347 -0.1736 -0.4602 -0.0924
  191POPC  H15A21998   4.519   4.424   6.303  1.5288 -0.5687  0.8726
  191POPC  H15B21999   4.394   4.337   6.404 -0.0777 -1.0592  0.1319
  191POPC  H15C22000   4.465   4.258   6.270 -1.7880 -0.7938  0.6278
  191POPC   C1122001   4.479   4.035   6.426  0.9249 -0.1021 -0.0619
  191POPC  H11A22002   4.391   4.066   6.365 -0.6662  0.5993  2.4376
  191POPC  H11B22003   4.430   3.952   6.481 -0.1814  1.3952  1.3084
  191POPC     P22004   4.664   3.845   6.385  0.2526 -0.3256  0.2917
  191POPC   O1322005   4.763   3.827   6.276 -0.7442  0.4367  0.2095
  191POPC   O1422006   4.573   3.734   6.415  0.0750  0.1784  0.2630
  191POPC   O1222007   4.576   3.974   6.338 -0.3252 -0.3866  0.4190
  191POPC   O1122008   4.726   3.894   6.520  0.0650  0.3133 -0.5328
  191POPC    C122009   4.858   3.938   6.535  0.1342 -0.2120  0.6286
  191POPC    HA22010   4.879   4.032   6.479 -0.6285  0.4765  1.4626
  191POPC    HB22011   4.931   3.867   6.490 -1.2978  0.0468 -2.3622
  191POPC    C222012   4.887   3.967   6.680 -0.4349 -0.5224  0.1329
  191POPC    HS22013   4.794   3.977   6.739  0.4233 -0.6354  1.5658
  191POPC   O2122014   4.958   4.089   6.684  0.1155  0.1507  0.1641
  191POPC   C2122015   4.888   4.189   6.733  0.3745 -1.3846 -0.3791
  191POPC   O2222016   4.764   4.201   6.736 -1.6384  0.8094 -0.2847
  191POPC   C2222017   4.983   4.305   6.762  0.0010 -0.7978 -0.2370
  191POPC   H2R22018   5.009   4.359   6.669  2.7481  1.6082  1.7509
  191POPC   H2S22019   5.081   4.262   6.794  0.3300  0.0167 -0.1333
  191POPC    C322020   4.970   3.852   6.738 -0.4601 -0.0157 -1.3043
  191POPC    HX22021   5.074   3.843   6.699  1.5179  0.3383  3.2295
  191POPC    HY22022   4.932   3.755   6.701 -3.8864  0.5978  0.2118
  191POPC   O3122023   4.960   3.852   6.885 -0.7150  0.3415  0.3681
  191POPC   C3122024   5.042   3.933   6.948 -0.5883 -0.3821  0.5286
  191POPC   O3222025   5.139   3.985   6.894  0.2313  0.0949 -0.0154
  191POPC   C3222026   5.005   3.948   7.092 -0.0661 -0.0756  0.2579
  191POPC   H2X22027   4.973   3.849   7.131  0.4309 -1.2455 -2.1102
  191POPC   H2Y22028   4.921   4.020   7.100  0.1958  0.4849 -1.5014
  191POPC   C2322029   4.911   4.391   6.866  0.3634 -0.2460 -0.0274
  191POPC   H3R22030   4.807   4.410   6.832  0.2594  4.1192  1.9678
  191POPC   H3S22031   4.961   4.490   6.859  0.0591 -0.1336 -0.6367
  191POPC   C2422032   4.903   4.354   7.009 -0.4160 -0.2481  0.3529
  191POPC   H4R22033   5.002   4.345   7.057 -0.0701 -3.7550 -0.7404
  191POPC   H4S22034   4.871   4.248   7.008  0.1412 -0.4178  0.4249
  191POPC   C2522035   4.811   4.444   7.089 -0.3014 -0.0248 -0.4980
  191POPC   H5R22036   4.714   4.426   7.037  0.0371 -1.2759 -0.7406
  191POPC   H5S22037   4.854   4.546   7.075 -3.1403  0.9992 -2.7243
  191POPC   C2622038   4.798   4.407   7.241  0.4391 -0.0631 -0.2187
  191POPC   H6R22039   4.904   4.419   7.275  0.4958  1.1541 -0.7804
  191POPC   H6S22040   4.748   4.309   7.257 -1.9942  0.9486 -1.3269
  191POPC   C2722041   4.707   4.496   7.317 -0.1233 -0.1245 -0.1478
  191POPC   H7R22042   4.601   4.488   7.285 -0.0023  3.5995 -2.0689
  191POPC   H7S22043   4.735   4.601   7.294  0.7685 -0.6573 -1.5880
  191POPC   C2822044   4.713   4.467   7.466 -0.1338  0.2702 -0.5252
  191POPC   H8R22045   4.818   4.440   7.489 -0.9447 -0.3949  2.9446
  191POPC   H8S22046   4.649   4.380   7.492 -1.6764  1.1499 -1.2135
  191POPC   C2922047   4.664   4.576   7.556 -0.0892  0.0363 -0.4667
  191POPC   H9122048   4.587   4.641   7.510  0.5707  1.2978  0.1592
  191POPC  C21022049   4.721   4.609   7.670  0.0880  0.2712  0.3655
  191POPC  H10122050   4.669   4.690   7.723  0.2567  0.2302  0.5993
  191POPC  C21122051   4.845   4.545   7.736  0.4928  0.4539  0.2682
  191POPC  H11R22052   4.938   4.605   7.733  2.3199 -2.1618  0.9522
  191POPC  H11S22053   4.879   4.459   7.675  1.0847  1.2859 -0.5989
  191POPC  C21222054   4.812   4.502   7.881  0.2121 -0.4307 -0.0864
  191POPC  H12R22055   4.885   4.422   7.905 -0.2811 -0.8239  0.1438
  191POPC  H12S22056   4.707   4.468   7.894 -0.6946  2.0840 -0.2856
  191POPC  C21322057   4.843   4.610   7.989  1.1994 -0.2922 -0.3618
  191POPC  H13R22058   4.764   4.687   7.978  1.2959 -0.3300 -1.3514
  191POPC  H13S22059   4.936   4.664   7.961  0.2657  1.4444 -0.2400
  191POPC  C21422060   4.849   4.561   8.132  0.6203  0.3001 -0.3900
  191POPC  H14R22061   4.927   4.482   8.125 -0.3061 -0.7232  0.5131
  191POPC  H14S22062   4.759   4.509   8.173  0.6023  0.5414 -0.1204
  191POPC  C21522063   4.892   4.676   8.225 -0.3383  0.8541 -0.4143
  191POPC  H15R22064   4.819   4.758   8.211  0.2228  1.2363 -1.1590
  191POPC  H15S22065   4.989   4.715   8.187 -0.7196 -0.5850 -3.0542
  191POPC  C21622066   4.889   4.636   8.374  0.2078 -0.1709  0.3156
  191POPC  H16R22067   4.798   4.573   8.386  0.2439 -0.1801  0.5597
  191POPC  H16S22068   4.869   4.718   8.446 -1.0478 -1.4357  1.4783
  191POPC  C21722069   5.007   4.549   8.411 -0.3947  1.0071 -0.0003
  191POPC  H17R22070   5.092   4.596   8.357 -0.1525  0.9753  0.3451
  191POPC  H17S22071   4.987   4.448   8.370  0.2851  1.8388 -2.5764
  191POPC  C21822072   5.040   4.537   8.566  0.6729 -0.2476  0.3455
  191POPC  H18R22073   5.045   4.638   8.612  1.5279 -0.5710  0.9626
  191POPC  H18S22074   5.138   4.489   8.583 -0.0922 -1.6095  1.0511
  191POPC  H18T22075   4.961   4.470   8.605  3.0152 -2.5814  1.3037
  191POPC   C3322076   5.116   4.008   7.180 -0.1205  0.9816 -0.3729
  191POPC   H3X22077   5.147   4.112   7.159 -2.1372  1.0787 -3.6011
  191POPC   H3Y22078   5.202   3.941   7.158 -0.5915 -0.7056  2.3087
  191POPC   C3422079   5.088   4.004   7.328  0.5900  0.4103 -0.4216
  191POPC   H4X22080   5.184   4.036   7.373  0.1001  0.6223  0.4975
  191POPC   H4Y22081   5.077   3.896   7.353  0.0580 -0.0274 -2.3712
  191POPC   C3522082   4.975   4.091   7.383  0.2308  0.4337  0.5889
  191POPC   H5X22083   4.878   4.084   7.331  0.2372 -0.2767  0.6603
  191POPC   H5Y22084   5.003   4.196   7.359 -0.0592  0.2474 -0.6412
  191POPC   C3622085   4.947   4.076   7.535  0.3178 -0.4868  0.2661
  191POPC   H6X22086   5.034   4.118   7.590 -0.5617  2.2319 -0.2739
  191POPC   H6Y22087   4.937   3.971   7.568 -1.4986  0.1478  1.9529
  191POPC   C3722088   4.818   4.146   7.580 -0.0776 -0.6792 -0.3009
  191POPC   H7X22089   4.727   4.106   7.532 -2.0500  2.9530  0.0654
  191POPC   H7Y22090   4.836   4.255   7.567  1.4081 -0.4957  2.3973
  191POPC   C3822091   4.799   4.135   7.732  0.9089 -0.0571 -0.6698
  191POPC   H8X22092   4.868   4.211   7.776  0.5507  0.0606 -0.3101
  191POPC   H8Y22093   4.822   4.032   7.766 -1.7754 -0.0453  1.5037
  191POPC   C3922094   4.656   4.152   7.791  0.2644  0.5091 -0.0465
  191POPC   H9X22095   4.589   4.079   7.739 -0.9979 -0.0981  2.2862
  191POPC   H9Y22096   4.622   4.257   7.778 -1.6814  0.4359  3.3665
  191POPC  C31022097   4.657   4.118   7.943  0.3209 -1.0168  0.7852
  191POPC  H10X22098   4.727   4.184   8.000  0.3461  0.9842 -1.4111
  191POPC  H10Y22099   4.700   4.016   7.939  0.1201 -1.0918  0.5128
  191POPC  C31122100   4.519   4.102   8.004 -0.3281 -0.5364  0.7194
  191POPC  H11X22101   4.445   4.072   7.926  1.0041 -1.3448 -0.2820
  191POPC  H11Y22102   4.485   4.201   8.040  0.9464  0.3859 -0.5133
  191POPC  C31222103   4.519   4.014   8.131  0.4720 -0.2882 -0.4015
  191POPC  H12X22104   4.415   4.025   8.168  1.2804 -1.4940  2.4772
  191POPC  H12Y22105   4.581   4.044   8.218 -0.5784 -0.5659  0.4676
  191POPC  C31322106   4.561   3.868   8.119 -0.0562 -0.0359 -0.3880
  191POPC  H13X22107   4.555   3.829   8.223  0.0503  2.0964  0.4648
  191POPC  H13Y22108   4.670   3.861   8.099  0.0922  0.2245  0.2879
  191POPC  C31422109   4.478   3.774   8.031  0.1828 -0.1764 -0.1003
  191POPC  H14X22110   4.525   3.674   8.024  0.9611  0.0813  1.2293
  191POPC  H14Y22111   4.486   3.816   7.928 -0.2426 -0.6922 -0.3499
  191POPC  C31522112   4.334   3.751   8.083 -0.0548  0.1871 -0.3214
  191POPC  H15X22113   4.287   3.683   8.008  1.2353  1.2867 -2.2003
  191POPC  H15Y22114   4.281   3.849   8.088 -1.0711 -0.3533 -0.2319
  191POPC  C31622115   4.321   3.702   8.223  0.3153  0.4181 -0.2114
  191POPC  H16X22116   4.217   3.692   8.259  0.1912 -2.2415 -1.0142
  191POPC  H16Y22117   4.373   3.764   8.298 -0.6096 -0.1853  0.9543
  191POPC  H16Z22118   4.362   3.601   8.244 -1.9912 -0.8330 -1.3099
  192POPC     N22119   4.782   6.587   5.788  0.1555  0.3168  0.2826
  192POPC   C1222120   4.782   6.573   5.941 -0.0311  0.6389 -0.1727
  192POPC  H12A22121   4.687   6.532   5.970  1.0123  0.1632  2.8820
  192POPC  H12B22122   4.801   6.667   5.991  2.5990  0.0035  0.1530
  192POPC   C1322123   4.905   6.662   5.740 -0.4338  0.3043 -0.0387
  192POPC  H13A22124   4.994   6.605   5.760 -0.1618  0.9415  0.6192
  192POPC  H13B22125   4.882   6.689   5.638  1.3138  1.0728 -0.2579
  192POPC  H13C22126   4.916   6.754   5.795 -1.1804 -0.8840  2.2141
  192POPC   C1422127   4.771   6.452   5.717 -0.1682 -0.2566  0.1038
  192POPC  H14A22128   4.750   6.463   5.611  0.3947 -0.3769 -0.0278
  192POPC  H14B22129   4.858   6.390   5.733  1.0089  1.7845  2.2303
  192POPC  H14C22130   4.679   6.405   5.746 -1.3351  1.9813  0.2008
  192POPC   C1522131   4.665   6.674   5.741  0.3441  0.7078 -0.1387
  192POPC  H15A22132   4.569   6.632   5.767 -0.1950  0.2874 -2.5778
  192POPC  H15B22133   4.669   6.700   5.636 -3.4756  0.9709 -0.3352
  192POPC  H15C22134   4.676   6.771   5.787  1.0835  0.0717  1.0915
  192POPC   C1122135   4.885   6.466   5.995 -0.6163 -0.5350 -0.5451
  192POPC  H11A22136   4.863   6.366   5.952 -3.2560 -0.0865 -0.3730
  192POPC  H11B22137   4.858   6.467   6.102 -0.5391 -3.7041 -0.4091
  192POPC     P22138   5.084   6.642   6.040 -0.0784 -0.3424 -0.1440
  192POPC   O1322139   4.979   6.746   6.045 -0.3561  0.0891  0.0419
  192POPC   O1422140   5.203   6.697   5.955  0.6219 -0.1517  0.4039
  192POPC   O1222141   5.025   6.507   5.970 -0.1829  1.1068  0.6438
  192POPC   O1122142   5.143   6.617   6.184 -0.1942 -0.0990 -0.2479
  192POPC    C122143   5.249   6.525   6.218  0.5635 -0.6416  0.0223
  192POPC    HA22144   5.345   6.574   6.191  0.7973  0.2103  2.1487
  192POPC    HB22145   5.245   6.423   6.175  1.0933 -1.3014  1.4568
  192POPC    C222146   5.245   6.505   6.371 -0.6196  0.3196  0.2563
  192POPC    HS22147   5.339   6.449   6.394 -0.3395  0.5596 -0.2841
  192POPC   O2122148   5.125   6.440   6.407 -0.1279 -0.3899  0.3641
  192POPC   C2122149   5.137   6.357   6.500  0.0215 -0.2810  0.1766
  192POPC   O2222150   5.244   6.323   6.554  0.6749  0.4953  0.3588
  192POPC   C2222151   4.993   6.298   6.542 -0.9280 -0.8604  0.4573
  192POPC   H2R22152   4.968   6.219   6.468 -2.1370  0.4775 -0.6065
  192POPC   H2S22153   4.923   6.384   6.540 -0.8227 -0.7790  0.1881
  192POPC    C322154   5.273   6.633   6.448 -0.3519  0.2598  0.7945
  192POPC    HX22155   5.195   6.709   6.423  0.4534  0.9347  0.2907
  192POPC    HY22156   5.367   6.667   6.399 -0.7495 -1.5425 -1.3925
  192POPC   O3122157   5.279   6.618   6.586  0.6299 -0.4138  0.3569
  192POPC   C3122158   5.383   6.568   6.648 -1.0853  0.3025 -0.4867
  192POPC   O3222159   5.484   6.517   6.598  0.4086  0.1086  0.1576
  192POPC   C3222160   5.363   6.577   6.806 -0.2435  0.4944 -0.4275
  192POPC   H2X22161   5.257   6.550   6.825  0.0253  0.0528  0.5052
  192POPC   H2Y22162   5.367   6.687   6.825 -0.0688  0.1282  1.9915
  192POPC   C2322163   4.982   6.236   6.681 -0.2415  0.8959  0.1540
  192POPC   H3R22164   5.068   6.168   6.698 -0.3338 -0.1720 -3.0575
  192POPC   H3S22165   4.895   6.167   6.681  0.8053 -0.5417 -2.0464
  192POPC   C2422166   4.981   6.333   6.800  0.8362 -0.4521  0.2623
  192POPC   H4R22167   4.889   6.395   6.792  1.1077  0.1441  1.4085
  192POPC   H4S22168   5.067   6.403   6.794 -0.3001  1.0035  0.2980
  192POPC   C2522169   4.986   6.274   6.941 -0.5406 -0.7330  0.2443
  192POPC   H5R22170   5.049   6.182   6.935  1.2175  0.4650 -0.5902
  192POPC   H5S22171   4.879   6.254   6.965 -0.5378 -0.9984  0.0478
  192POPC   C2622172   5.053   6.364   7.044  0.1817  0.1872 -0.1479
  192POPC   H6R22173   4.991   6.454   7.059  0.5476  0.3272  0.5981
  192POPC   H6S22174   5.146   6.402   6.995 -0.0419  0.0888 -0.6485
  192POPC   C2722175   5.075   6.298   7.184  0.8102  0.1528  0.0118
  192POPC   H7R22176   5.183   6.275   7.195  0.8573 -1.1492 -2.4458
  192POPC   H7S22177   5.023   6.200   7.182  1.4082 -0.1643 -1.8381
  192POPC   C2822178   5.025   6.381   7.304  0.0342  0.1746 -0.4246
  192POPC   H8R22179   4.927   6.429   7.284  1.2565  3.2535  0.4750
  192POPC   H8S22180   5.089   6.471   7.310 -1.6024  1.4445 -1.2580
  192POPC   C2922181   5.024   6.302   7.431  0.1428  0.1198 -0.4275
  192POPC   H9122182   4.974   6.204   7.426 -1.7380  0.9745  0.6474
  192POPC  C21022183   5.076   6.342   7.548  0.0039 -0.2291 -0.4327
  192POPC  H10122184   5.077   6.270   7.631 -1.0441  0.8146  0.5285
  192POPC  C21122185   5.153   6.468   7.575 -0.5841 -0.3114 -0.8156
  192POPC  H11R22186   5.161   6.530   7.483 -1.8414  1.8725  0.4751
  192POPC  H11S22187   5.258   6.441   7.598 -0.1630 -1.1354 -3.3617
  192POPC  C21222188   5.088   6.569   7.671  1.3556  0.0480 -0.6072
  192POPC  H12R22189   4.987   6.602   7.637  1.3589 -0.6450 -1.3157
  192POPC  H12S22190   5.149   6.661   7.659 -0.9936  2.0238  1.3688
  192POPC  C21322191   5.093   6.528   7.827  0.8490 -0.1735 -0.4910
  192POPC  H13R22192   5.202   6.519   7.849  0.8292 -3.2529 -1.2872
  192POPC  H13S22193   5.054   6.430   7.861  1.0980  0.1561  0.7709
  192POPC  C21422194   5.050   6.636   7.929  0.0137  0.5397 -0.2375
  192POPC  H14R22195   5.111   6.729   7.929 -1.7362  1.7630  1.8602
  192POPC  H14S22196   5.051   6.601   8.034  3.0572  3.2260  0.7984
  192POPC  C21522197   4.907   6.698   7.914  0.3737 -0.6250  0.1063
  192POPC  H15R22198   4.841   6.610   7.899  0.1418 -0.3723 -0.3731
  192POPC  H15S22199   4.898   6.754   7.818 -0.0789  3.9495  2.5251
  192POPC  C21622200   4.867   6.793   8.028  0.8731  0.6863  0.1126
  192POPC  H16R22201   4.757   6.808   8.014  1.2353  1.8228 -1.9596
  192POPC  H16S22202   4.915   6.893   8.027  0.4224  0.9231  0.7269
  192POPC  C21722203   4.880   6.732   8.172  0.2163  0.2641  0.3317
  192POPC  H17R22204   4.830   6.801   8.244 -2.0368 -0.2279 -0.6704
  192POPC  H17S22205   4.985   6.716   8.205  1.4857  0.4697 -3.2826
  192POPC  C21822206   4.798   6.601   8.191  0.3100  0.5662  0.1597
  192POPC  H18R22207   4.865   6.515   8.216  0.4452  0.6379  0.0455
  192POPC  H18S22208   4.747   6.572   8.097  2.9314 -0.5777 -1.0380
  192POPC  H18T22209   4.725   6.618   8.273 -0.9137  2.6752 -1.2750
  192POPC   C3322210   5.456   6.506   6.906 -0.3459 -0.3391 -0.3195
  192POPC   H3X22211   5.561   6.537   6.884  1.5299 -3.6280  2.9820
  192POPC   H3Y22212   5.449   6.399   6.879  0.6964 -0.8759  1.3991
  192POPC   C3422213   5.419   6.533   7.054 -0.2649  0.1868 -0.4120
  192POPC   H4X22214   5.321   6.493   7.090 -0.4601 -0.7008 -1.8597
  192POPC   H4Y22215   5.408   6.643   7.063  1.1931  0.3269 -0.0836
  192POPC   C3522216   5.518   6.475   7.152  0.6045 -0.1914 -0.3221
  192POPC   H5X22217   5.615   6.530   7.154  2.4468 -3.2430  1.2281
  192POPC   H5Y22218   5.544   6.374   7.114  0.8440 -0.4083  0.4060
  192POPC   C3622219   5.471   6.463   7.294  0.7332  0.1987 -0.1607
  192POPC   H6X22220   5.377   6.404   7.290  1.1773 -0.4245 -2.5147
  192POPC   H6Y22221   5.463   6.564   7.340  2.0112  0.0893  0.3736
  192POPC   C3722222   5.567   6.371   7.378  0.1962 -0.4458  0.5798
  192POPC   H7X22223   5.662   6.424   7.400  1.8472 -2.2284 -1.7124
  192POPC   H7Y22224   5.585   6.286   7.309  2.3576  0.0394  0.4704
  192POPC   C3822225   5.512   6.326   7.517 -0.2796  0.1414  0.2589
  192POPC   H8X22226   5.418   6.271   7.496 -0.7037  1.1518 -0.6415
  192POPC   H8Y22227   5.484   6.414   7.580  0.3887 -0.0652  0.8518
  192POPC   C3922228   5.621   6.254   7.592  0.3175 -0.7230 -0.3428
  192POPC   H9X22229   5.700   6.330   7.608  0.7391 -1.4232  1.0527
  192POPC   H9Y22230   5.674   6.171   7.539  4.8356  2.5208 -1.5091
  192POPC  C31022231   5.580   6.216   7.735 -0.5477 -0.2936  0.5960
  192POPC  H10X22232   5.541   6.301   7.794 -0.1028  1.5861 -1.6408
  192POPC  H10Y22233   5.666   6.165   7.784 -1.3230 -0.8282  1.4007
  192POPC  C31122234   5.469   6.119   7.735 -0.8856 -0.0183 -0.5736
  192POPC  H11X22235   5.497   6.053   7.651  0.1984 -0.8652  0.4251
  192POPC  H11Y22236   5.372   6.170   7.717 -0.7507  0.6534  0.4858
  192POPC  C31222237   5.445   6.048   7.875 -0.6026 -0.4567  0.3138
  192POPC  H12X22238   5.382   6.113   7.940 -0.6654 -0.2655  0.0654
  192POPC  H12Y22239   5.546   6.044   7.922 -0.1573  2.3405 -0.2121
  192POPC  C31322240   5.390   5.908   7.846  0.4728  0.1060  0.2034
  192POPC  H13X22241   5.459   5.851   7.780  0.5130  0.0180  0.3209
  192POPC  H13Y22242   5.304   5.906   7.776 -0.0189  1.1561  0.7388
  192POPC  C31422243   5.384   5.826   7.973 -0.3050  0.4313  0.3232
  192POPC  H14X22244   5.486   5.846   8.011  0.4946  0.9098 -1.9371
  192POPC  H14Y22245   5.374   5.717   7.951  0.0219  0.3527  0.5649
  192POPC  C31522246   5.281   5.864   8.087 -0.0028 -0.1144  0.2208
  192POPC  H15X22247   5.184   5.814   8.063  0.6707 -0.4180 -2.0385
  192POPC  H15Y22248   5.269   5.975   8.086  0.8149 -0.0155 -1.7635
  192POPC  C31622249   5.320   5.826   8.230  0.5973  0.0032  0.2675
  192POPC  H16X22250   5.423   5.852   8.263  0.4919 -0.5880  1.0941
  192POPC  H16Y22251   5.305   5.717   8.247 -0.5791 -0.0082 -0.7519
  192POPC  H16Z22252   5.247   5.874   8.298 -1.3080 -4.2737  1.6081
  193SOD    SOD22253   6.504   6.320   1.014 -0.0649 -0.0893 -0.0486
  194SOD    SOD22254   0.613   4.809  16.344  0.1854 -0.2563 -0.5516
  195SOD    SOD22255   0.623   6.143  11.297 -0.0663  0.1544 -0.4356
  196SOD    SOD22256   3.767   2.751  15.947  0.1091  0.5576 -0.0487
  197SOD    SOD22257   0.631   5.648   5.925  0.1423 -0.0932  0.4883
  198SOD    SOD22258   5.314   2.295   2.418  0.2265 -0.4332 -0.3842
  199SOD    SOD22259   2.093   6.221   1.113  0.5486 -0.2428 -0.1383
  200SOD    SOD22260   3.888   2.973   3.171 -0.3817  0.3093  0.4733
  201SOD    SOD22261   4.393   3.671   4.373 -0.2027  0.5695 -0.4399
  202SOD    SOD22262   5.745   3.354   0.112  0.0163 -0.3171 -0.0550
  203SOD    SOD22263   0.018   6.577  16.804 -0.1924  0.0664 -0.1431
  204SOD    SOD22264   1.868   1.592  13.648  0.0913  0.3059  0.3273
  205SOD    SOD22265   3.718   5.636  11.881  0.4870  0.0785 -0.1020
  206SOD    SOD22266   6.539   3.857   4.575 -0.1861 -0.4420 -0.1254
  207SOD    SOD22267   1.447   2.819   0.976  0.5049 -0.1797 -0.1598
  208SOD    SOD22268   3.991   1.585  12.291  0.1956 -0.0061  0.5266
  209SOD    SOD22269   3.056   5.172   3.929  0.1086  0.2253 -0.6457
  210SOD    SOD22270   3.844   2.543   1.905  0.1091 -0.1165  0.0657
  211SOD    SOD22271   4.428   1.776  11.510 -0.2956  0.6867  0.3842
  212SOD    SOD22272   2.601   6.648   1.697 -0.6688  0.5448 -0.0430
  213SOD    SOD22273   2.082   2.572  11.203  0.4964  0.2495 -0.4616
  214SOD    SOD22274   0.026   5.428   4.420 -0.1485 -0.3914  0.7574
  215SOD    SOD22275   1.631   3.458  13.954 -0.3473  0.2804 -0.1808
  216SOD    SOD22276   2.301   2.329  10.367  0.1228  0.2214  0.1833
  217SOD    SOD22277   0.129   4.138   4.810 -0.1899  0.1119 -0.0258
  218SOD    SOD22278   6.097   4.142  12.488  0.3992  0.4304  0.0553
  219SOD    SOD22279   3.774   3.795  10.632 -0.0515 -0.1633 -0.0365
  220SOD    SOD22280   0.356   1.913   2.960  0.1087  0.3915 -0.5972
  221SOD    SOD22281   1.092   5.611  11.524  0.2935 -0.5427  0.3611
  222SOD    SOD22282   5.471   6.111  12.994 -0.2832  0.4642 -0.8578
  223SOD    SOD22283   1.345   1.824   2.591 -0.4749  0.4957  0.3965
  224SOD    SOD22284   4.221   5.455  14.467 -0.2197 -0.1176  0.2193
  225SOD    SOD22285   0.438   2.293   5.995  0.0624 -0.6283  0.2483
  226SOD    SOD22286   2.815   3.624  14.442  0.0234  0.0555  0.1951
  227SOD    SOD22287   0.693   6.286   1.916 -0.4368 -0.1628 -0.2612
  228SOD    SOD22288   5.294   3.477   0.930 -0.4691  0.3096  0.0299
  229SOD    SOD22289   0.437   3.670  10.809 -0.2555  0.0797  0.5937
  230SOD    SOD22290   1.324   3.448  15.768  0.3744 -0.1090  0.1734
  231SOD    SOD22291   2.898   0.784   2.582  0.2748  0.0372 -0.1344
  232SOD    SOD22292   4.099   6.178  10.970 -0.1158 -0.2705  0.0665
  233SOD    SOD22293   4.040   3.613  13.772 -0.4699 -0.2170 -0.3699
  234SOD    SOD22294   2.997   5.995   5.129  0.0335  0.2113 -0.0684
  235SOD    SOD22295   0.354   1.718   6.490 -0.2092 -0.1655 -0.1140
  236SOD    SOD22296   2.445   2.272   2.179 -0.4268 -0.5912 -0.1287
  237SOD    SOD22297   2.453   3.285   6.359 -0.2246  0.1959  0.5691
  238SOD    SOD22298   2.578   6.741   4.642 -0.1784 -0.0436 -0.2525
  239SOD    SOD22299   3.235   0.723   4.447  0.1374 -0.7485  0.0661
  240SOD    SOD22300   2.727   5.448   6.255  0.3130  0.0924 -0.0006
  241SOD    SOD22301   6.017   2.971   5.654  0.4515 -0.3540  0.2644
  242SOD    SOD22302   1.699   4.374  16.633  0.2102 -0.1576 -0.1126
  243SOD    SOD22303   1.760   4.451  12.566  0.3638 -0.2454  0.0512
  244SOD    SOD22304   3.597   1.673   1.895  0.5436  0.3520 -0.3780
  245SOD    SOD22305   0.463   4.561  14.791  0.3498 -0.0450  0.4101
  246SOD    SOD22306   6.738   0.026  14.436 -0.3864  0.3532  0.2170
  247SOD    SOD22307   2.167   1.804   3.761 -0.0886 -0.2962  0.1447
  248SOD    SOD22308   6.456   3.887  10.637  0.2060  0.1424 -0.0235
  249SOD    SOD22309   3.343   5.462   6.672  0.0934 -0.0671 -0.2554
  250SOD    SOD22310   2.326   1.201   6.540 -0.0311 -0.8969 -0.1988
  251SOD    SOD22311   0.894   2.066  11.680 -0.1978 -0.4411 -0.2798
  252SOD    SOD22312   1.261   5.460   0.700 -0.4199 -0.0597  0.5608
  253SOD    SOD22313   5.330   4.462   3.843 -0.2414 -0.2447  0.1250
  254SOD    SOD22314   6.575   6.233   2.805 -0.5849 -0.4485  0.8073
  255SOD    SOD22315   5.264   3.223  12.367  0.0158  0.5658  0.6897
  256SOD    SOD22316   3.300   5.689  14.378  0.4901 -0.0185 -0.2077
  257SOD    SOD22317   5.855   0.681   3.417  0.1491 -0.1730  0.5483
  258SOD    SOD22318   3.349   6.077  11.249 -0.0578  0.3825  0.0183
  259SOD    SOD22319   0.994   4.866  14.862  0.4469 -0.3189  0.4678
  260SOD    SOD22320   3.136   1.844  15.860  0.5226  0.6568  0.1872
  261SOD    SOD22321   5.366   0.988  10.561 -0.5156  0.1381  0.4620
  262SOD    SOD22322   5.564   0.479   1.656  0.7123 -0.0275 -0.1556
  263SOD    SOD22323   3.675   0.457  14.145  0.7795 -0.0157 -0.0703
  264SOD    SOD22324   2.601   6.491  16.042 -0.0298 -0.4332  0.2205
  265SOD    SOD22325   4.261   6.184   3.465  0.1593 -0.3331  0.2347
  266SOD    SOD22326   6.347   0.687   6.426 -0.4484  0.0281  0.1940
  267SOD    SOD22327   4.189   1.514  13.455 -0.4750 -0.6820 -0.1655
  268SOD    SOD22328   1.982   5.110  14.536 -0.8388  0.1274 -0.3159
  269SOD    SOD22329   1.998   2.909   0.089  0.1027  0.4551  0.0580
  270CLA    CLA22330   1.677   5.199  16.720  0.1716  0.2126 -0.1745
  271CLA    CLA22331   5.055   0.689   0.807  0.0064  0.2215 -0.1837
  272CLA    CLA22332   5.669   3.485   4.302 -0.0746  0.2017 -0.2825
  273CLA    CLA22333   2.331   4.917  14.112  0.1871  0.1083 -0.4361
  274CLA    CLA22334   5.265   2.965  13.982  0.5209  0.1367 -0.1411
  275CLA    CLA22335   2.816   6.592   3.234  0.1758 -0.1937 -0.1088
  276CLA    CLA22336   4.106   0.470  15.800  0.4926  0.3165  0.0408
  277CLA    CLA22337   5.241   0.814   2.549  0.2358  0.3297 -0.1666
  278CLA    CLA22338   4.174   1.442  15.102 -0.3066  0.1856  0.0607
  279CLA    CLA22339   4.474   3.943   1.527 -0.2468  0.1386  0.1698
  280CLA    CLA22340   1.952   0.622   4.290  0.2388  0.2180 -0.1820
  281CLA    CLA22341   1.063   4.130  12.618 -0.0734 -0.1499  0.0714
  282CLA    CLA22342   6.095   0.340  13.472  0.1624 -0.3470  0.0425
  283CLA    CLA22343   1.464   4.591   0.693  0.3858 -0.1524 -0.1780
  284CLA    CLA22344   6.806   2.078   3.574 -0.0864  0.0126  0.3988
  285CLA    CLA22345   2.241   2.635   1.248 -0.1223  0.2077  0.1279
  286CLA    CLA22346   1.739   1.094   0.859  0.1978  0.2275  0.0707
  287CLA    CLA22347   6.175   6.670   4.983 -0.3291  0.0223  0.2439
  288CLA    CLA22348   5.248   0.376  15.507  0.0424 -0.3222  0.1196
  289CLA    CLA22349   1.093   0.973  11.770  0.4082 -0.4611  0.2745
  290CLA    CLA22350   3.085   1.753  14.101 -0.1081 -0.0553 -0.3290
  291CLA    CLA22351   0.767   4.798  14.452 -0.1207 -0.1142  0.1499
  292CLA    CLA22352   3.507   3.093   5.694 -0.0229 -0.0719 -0.1830
  293CLA    CLA22353   0.260   3.431  11.897  0.3160  0.1564  0.1831
  294CLA    CLA22354   1.559   4.501   5.261 -0.0636  0.4391 -0.1458
  295CLA    CLA22355   3.528   2.098  16.764  0.2101 -0.5430 -0.0156
  296CLA    CLA22356   3.578   5.692   5.045  0.1290  0.1913 -0.2852
  297CLA    CLA22357   0.211   3.639  16.400 -0.0603  1.0294 -0.5984
  298CLA    CLA22358   0.053   5.029  11.422 -0.1902 -0.1547 -0.1178
  299CLA    CLA22359   0.482   6.714   0.710 -0.1526  0.0396  0.5220
  300CLA    CLA22360   6.330   1.140   5.428 -0.2071  0.1859  0.0828
  301CLA    CLA22361   3.467   6.563  13.217 -0.1619  0.1423  0.2585
  302CLA    CLA22362   1.435   6.071   1.868  0.0032  0.3463 -0.3047
  303CLA    CLA22363   4.238   6.521   0.357  0.2302 -0.2166 -0.0410
  304CLA    CLA22364   1.672   5.942   1.273  0.0450 -0.0721  0.1155
  305CLA    CLA22365   4.035   2.756   3.800  0.4411  0.3305 -0.1629
  306CLA    CLA22366   6.015   6.800   1.400  0.2098  0.0189  0.2165
  307CLA    CLA22367   6.801   5.838   4.203 -0.0387 -0.0419  0.1253
  308CLA    CLA22368   1.504   2.620   4.188  0.1346 -0.2255  0.1896
  309CLA    CLA22369   3.117   5.597  12.459  0.2110 -0.0415  0.1859
  310CLA    CLA22370   3.937   0.071   4.282  0.1483 -0.1114  0.0752
  311CLA    CLA22371   1.356   1.382  14.859 -0.0895 -0.4130  0.2840
  312CLA    CLA22372   0.537   5.059  11.252  0.3019  0.0653  0.5174
  313CLA    CLA22373   1.967   2.183   1.889  0.0254 -0.1922  0.3149
  314CLA    CLA22374   2.363   4.352  14.954  0.4534 -0.1687  0.0001
  315CLA    CLA22375   6.666   4.800  16.623 -0.1612  0.0468  0.2863
  316CLA    CLA22376   0.058   6.231   0.155  0.1156  0.0310 -0.0124
  317CLA    CLA22377   5.651   5.650   3.043  0.0156 -0.0214  0.2661
  318CLA    CLA22378   2.202   3.469  15.852  0.0219  0.3827 -0.4040
  319CLA    CLA22379   4.630   2.993   1.093 -0.0946  0.0824  0.4597
  320CLA    CLA22380   0.139   2.186   1.966 -0.1967 -0.2099  0.0383
  321CLA    CLA22381   0.722   4.474  14.798 -0.1525  0.2941  0.0093
  322CLA    CLA22382   3.405   5.019  16.732 -0.0791 -0.5845 -0.3535
  323TIP3   OH222383   6.714   2.926  16.456 -0.3485 -0.0136  0.3893
  323TIP3    H122384   6.769   2.939  16.533 -0.2586  0.6725  0.2147
  323TIP3    H222385   6.718   2.832  16.439  1.7969  0.1665 -0.3566
  324TIP3   OH222386   5.597   2.045  14.598  0.7937  0.3903  0.3779
  324TIP3    H122387   5.501   2.043  14.600  0.7194 -0.5260 -1.6683
  324TIP3    H222388   5.621   2.121  14.650 -0.9971  0.0601  1.7564
  325TIP3   OH222389   0.089   4.723   2.305  0.5873 -0.2851 -0.0674
  325TIP3    H122390   0.184   4.716   2.315  0.6753 -0.6567 -1.0940
  325TIP3    H222391   0.076   4.758   2.218 -0.2044  1.0108  0.5420
  326TIP3   OH222392   3.038   5.882  14.866 -0.2637  0.2697 -0.7338
  326TIP3    H122393   3.125   5.843  14.858 -0.4217  0.0045 -1.1969
  326TIP3    H222394   3.010   5.898  14.776 -0.8613 -0.0282 -0.6110
  327TIP3   OH222395   5.798   0.400   0.503 -0.3156  0.1593  0.3609
  327TIP3    H122396   5.770   0.316   0.540  0.7128  0.3151  1.5279
  327TIP3    H222397   5.723   0.429   0.451  0.0296 -2.4993 -1.9005
  328TIP3   OH222398   4.531   5.698   3.315 -0.1973 -0.3425  0.3149
  328TIP3    H122399   4.603   5.635   3.319 -0.3481 -0.4535  1.8343
  328TIP3    H222400   4.574   5.782   3.298  0.1164 -0.6420 -0.4451
  329TIP3   OH222401   1.402   5.070   0.051  0.0507 -0.1521  0.4383
  329TIP3    H122402   1.450   5.017  -0.013  0.1006  2.0608 -1.4969
  329TIP3    H222403   1.328   5.015   0.078  0.3292 -1.3511 -1.1365
  330TIP3   OH222404   4.769   6.654   4.586 -0.2150 -0.4734  0.0733
  330TIP3    H122405   4.795   6.731   4.534 -0.7704 -0.6406 -0.4721
  330TIP3    H222406   4.684   6.629   4.550  0.3185 -1.8389 -0.2928
  331TIP3   OH222407   5.441   3.132   3.052  0.1760  0.2564  0.1822
  331TIP3    H122408   5.460   3.200   3.117  0.6842  0.7391 -0.4487
  331TIP3    H222409   5.490   3.159   2.974 -1.3804  0.3470 -0.8094
  332TIP3   OH222410   2.476   6.170  12.783 -0.3157 -0.5313 -0.7556
  332TIP3    H122411   2.504   6.199  12.697  2.3485 -0.2658  0.1147
  332TIP3    H222412   2.515   6.083  12.794  2.2175  0.7286  1.3440
  333TIP3   OH222413   1.369   2.915  10.297 -0.3944  0.0704 -0.1958
  333TIP3    H122414   1.311   2.972  10.348  0.0215 -0.3430  0.7634
  333TIP3    H222415   1.411   2.973  10.234 -0.1299  0.7891  0.6313
  334TIP3   OH222416   3.484   1.683   4.375  0.0969 -0.0212 -0.4031
  334TIP3    H122417   3.515   1.663   4.464  1.7259  2.6073 -0.2555
  334TIP3    H222418   3.398   1.722   4.388 -0.5613 -1.4588 -0.2172
  335TIP3   OH222419   2.647   0.755  16.771  0.7152  0.4465 -0.5190
  335TIP3    H122420   2.720   0.698  16.795  1.3059  0.8788 -1.2519
  335TIP3    H222421   2.648   0.757  16.676 -2.2169 -2.0677 -0.7779
  336TIP3   OH222422   4.733   3.086   0.015  0.1433  0.2298 -0.5536
  336TIP3    H122423   4.668   3.057   0.080 -1.4605 -0.8469 -2.5371
  336TIP3    H222424   4.695   3.165  -0.023  1.1063  0.8846 -0.1903
  337TIP3   OH222425   6.691   4.932  13.751 -0.3923  0.4406  0.3220
  337TIP3    H122426   6.672   5.023  13.726  1.1278  0.8242  0.4468
  337TIP3    H222427   6.786   4.929  13.759 -0.2456 -1.6166 -1.3592
  338TIP3   OH222428   1.727   4.910   1.328 -0.8491 -0.1562 -0.0516
  338TIP3    H122429   1.750   5.003   1.323 -0.0171 -0.3381  0.3184
  338TIP3    H222430   1.772   4.878   1.406 -1.6456 -0.7341  0.1868
  339TIP3   OH222431   4.379   0.298   4.690  0.1769 -0.1922 -0.3087
  339TIP3    H122432   4.452   0.299   4.751  1.1989 -0.4390 -1.4843
  339TIP3    H222433   4.392   0.219   4.637 -1.8132 -1.1041  0.4422
  340TIP3   OH222434   3.700   2.568  17.021 -0.2375  0.1985  0.2551
  340TIP3    H122435   3.640   2.509  16.977  0.7855  0.2206 -1.2626
  340TIP3    H222436   3.772   2.512  17.050 -0.3955  0.3534  0.9731
  341TIP3   OH222437   5.910   2.276  15.480 -0.0137  0.3503 -0.1411
  341TIP3    H122438   5.829   2.281  15.430  0.9007 -0.0088 -1.7632
  341TIP3    H222439   5.940   2.186  15.467  0.6946  0.5084  0.3315
  342TIP3   OH222440   3.486   6.337   1.553 -0.6036 -0.7691  0.6119
  342TIP3    H122441   3.487   6.343   1.649 -1.1692 -3.2813  0.8503
  342TIP3    H222442   3.579   6.341   1.529 -0.3906 -1.0021  1.3473
  343TIP3   OH222443   5.767   1.592  13.040 -0.2832  0.5222 -0.1853
  343TIP3    H122444   5.807   1.570  12.956 -1.2390  2.0437 -1.0958
  343TIP3    H222445   5.680   1.554  13.036  0.5128 -1.6440  1.2486
  344TIP3   OH222446   1.340   5.495  13.004 -0.4788 -0.5730  0.4338
  344TIP3    H122447   1.303   5.508  12.917  1.6997 -0.2848 -0.5114
  344TIP3    H222448   1.392   5.574  13.021 -0.7665 -0.6674  1.9758
  345TIP3   OH222449   4.948   0.362  12.335 -0.3685 -0.3566 -0.5251
  345TIP3    H122450   4.873   0.360  12.275 -0.1360 -0.4694 -0.8201
  345TIP3    H222451   4.918   0.316  12.413 -0.7423 -0.0360 -0.4781
  346TIP3   OH222452   6.130   5.707   3.891  0.3750 -0.7884  0.4451
  346TIP3    H122453   6.176   5.750   3.819  0.5977  0.9420  1.5667
  346TIP3    H222454   6.147   5.614   3.878  0.7899 -0.4904 -1.4609
  347TIP3   OH222455   5.943   0.313  13.198  0.3188 -0.2390  0.5960
  347TIP3    H122456   5.983   0.335  13.282  0.7078 -1.0404  0.6237
  347TIP3    H222457   6.009   0.262  13.152  0.9357  1.8873 -1.0738
  348TIP3   OH222458   4.910   6.505  16.824 -0.3557 -0.2412  0.8482
  348TIP3    H122459   4.880   6.545  16.743  0.1246 -0.4167  0.5763
  348TIP3    H222460   4.942   6.418  16.797  0.9254  0.1574  1.0156
  349TIP3   OH222461   0.517   1.135  15.406 -0.1515 -0.2534 -0.7495
  349TIP3    H122462   0.518   1.219  15.359  0.8141 -1.1976 -2.5493
  349TIP3    H222463   0.504   1.070  15.337  0.3870 -1.6638  0.4365
  350TIP3   OH222464   1.622   0.284  11.748  0.0647 -0.3847 -0.3923
  350TIP3    H122465   1.530   0.309  11.744  0.4027  1.8618  2.5382
  350TIP3    H222466   1.628   0.226  11.824  1.4272  2.1819  1.6333
  351TIP3   OH222467   2.367   6.352   1.512  0.1707  0.4078  0.3171
  351TIP3    H122468   2.396   6.273   1.558 -0.3484 -0.0868 -0.1930
  351TIP3    H222469   2.300   6.390   1.569  0.9054  0.8727  0.8968
  352TIP3   OH222470   3.084   4.064  14.529 -0.6752 -0.1932  0.1271
  352TIP3    H122471   3.011   4.071  14.590 -0.7460  2.1499 -0.1320
  352TIP3    H222472   3.047   4.089  14.444  0.3328  0.8262 -0.0418
  353TIP3   OH222473   2.115   6.721   2.911  0.0056  0.0499  0.6349
  353TIP3    H122474   2.074   6.799   2.874  0.1894  1.2272  2.7799
  353TIP3    H222475   2.060   6.699   2.986  1.1078 -0.6770  1.2496
  354TIP3   OH222476   3.409   0.701   0.616  0.0980 -0.1821 -0.1174
  354TIP3    H122477   3.486   0.726   0.666  0.7981 -0.2702 -1.1200
  354TIP3    H222478   3.443   0.677   0.529 -1.1708  0.8500 -0.9393
  355TIP3   OH222479   5.867   1.258   3.027 -0.0049 -0.0004 -0.2155
  355TIP3    H122480   5.806   1.324   3.062  0.5700 -0.1207  1.0580
  355TIP3    H222481   5.896   1.295   2.944 -0.8594  0.6451 -0.2448
  356TIP3   OH222482   6.580   6.022   1.699  0.1796  0.0842  0.0998
  356TIP3    H122483   6.622   5.981   1.624  1.0912 -0.1093  0.6934
  356TIP3    H222484   6.520   6.086   1.662 -0.3442 -0.9010 -0.8161
  357TIP3   OH222485   3.126   3.397  14.203  0.1299 -0.1111 -0.3342
  357TIP3    H122486   3.100   3.321  14.255 -1.7612  1.0969  0.5935
  357TIP3    H222487   3.220   3.404  14.215  0.0356 -1.1081  1.2048
  358TIP3   OH222488   6.184   1.698   1.441  0.2321  0.0904 -0.0048
  358TIP3    H122489   6.227   1.670   1.361  0.4747 -1.0286  0.4948
  358TIP3    H222490   6.195   1.793   1.443  1.3587 -0.0170 -0.6333
  359TIP3   OH222491   3.939   2.013   0.053 -0.3270 -0.0050  0.2172
  359TIP3    H122492   3.897   1.941   0.099  0.4228 -0.0452  0.8692
  359TIP3    H222493   3.867   2.068   0.023 -0.8299  0.5527  2.3067
  360TIP3   OH222494   2.292   1.382  11.997  0.4220 -0.0124 -0.0308
  360TIP3    H122495   2.271   1.376  11.903 -0.0263 -1.4523  0.1394
  360TIP3    H222496   2.331   1.297  12.018 -0.8067 -0.2539  1.3992
  361TIP3   OH222497   3.717   4.961  15.249  0.4791 -0.1883  0.7136
  361TIP3    H122498   3.701   5.006  15.166 -1.7719  0.9104  1.6794
  361TIP3    H222499   3.805   4.989  15.274  2.0406 -1.9837 -2.0840
  362TIP3   OH222500   4.584   0.170   6.131  0.2841  0.2956  0.1381
  362TIP3    H122501   4.658   0.220   6.166  0.0651  0.3040  0.5982
  362TIP3    H222502   4.510   0.232   6.135  0.8701  1.4325 -3.3397
  363TIP3   OH222503   5.431   6.677  16.429 -0.1641 -0.2871 -0.1747
  363TIP3    H122504   5.429   6.761  16.383  0.5353 -0.2927 -0.2243
  363TIP3    H222505   5.499   6.627  16.385  0.2111 -0.4562  0.5791
  364TIP3   OH222506   5.932   2.484   0.308 -0.1297 -0.0606 -0.3292
  364TIP3    H122507   5.932   2.397   0.350  0.5962  0.2870  0.4337
  364TIP3    H222508   5.911   2.545   0.379 -0.5475  0.3985 -0.8432
  365TIP3   OH222509   0.648   4.546  12.615  0.9482 -0.3098 -0.9882
  365TIP3    H122510   0.563   4.564  12.575  0.6992 -0.8256 -0.7050
  365TIP3    H222511   0.709   4.542  12.541  0.8349  0.6450 -1.1409
  366TIP3   OH222512   6.364   5.193  13.012 -0.0271 -0.3828  0.1598
  366TIP3    H122513   6.310   5.214  12.936 -0.3702  0.7179  0.6689
  366TIP3    H222514   6.305   5.144  13.070  0.8398 -3.1172 -1.1254
  367TIP3   OH222515   5.915   4.055  15.031  0.4908 -0.1572  0.4334
  367TIP3    H122516   6.003   4.037  15.065  0.8689  0.8441  0.0117
  367TIP3    H222517   5.874   3.968  15.023  0.9448 -0.5294  1.9163
  368TIP3   OH222518   0.423   5.907  11.675  0.4792 -0.9271 -0.4458
  368TIP3    H122519   0.388   5.818  11.670 -0.6821 -0.5801  0.8028
  368TIP3    H222520   0.362   5.953  11.732  1.1375  0.6470 -0.9576
  369TIP3   OH222521   2.049   2.540   5.671 -0.0006 -0.3828  0.0061
  369TIP3    H122522   2.039   2.463   5.727  0.1978 -1.7532 -1.7671
  369TIP3    H222523   2.139   2.570   5.687 -0.3587  0.0420  1.3443
  370TIP3   OH222524   4.778   5.531   3.300 -0.0278 -0.2115  0.0461
  370TIP3    H122525   4.831   5.579   3.363  0.0167 -1.6255  1.1278
  370TIP3    H222526   4.838   5.469   3.260 -0.2314  0.1637 -0.8685
  371TIP3   OH222527   1.383   0.389  13.434  0.2916  0.4310 -0.2162
  371TIP3    H122528   1.393   0.419  13.343 -0.8774  0.9035 -0.2044
  371TIP3    H222529   1.409   0.464  13.487 -2.5755  1.5231 -0.1867
  372TIP3   OH222530   4.382   3.045  13.801  0.2580  0.0497 -0.0844
  372TIP3    H122531   4.412   3.130  13.768  2.2978  0.5570  2.7016
  372TIP3    H222532   4.436   2.981  13.755  0.6434  0.4859 -0.2475
  373TIP3   OH222533   2.889   4.518   5.833  0.0172  0.0340 -0.3419
  373TIP3    H122534   2.891   4.503   5.927  0.9149 -0.3517 -0.4135
  373TIP3    H222535   2.892   4.613   5.824  0.2999  0.0624  0.0165
  374TIP3   OH222536   1.138   2.538   0.038 -0.2491  0.0537  0.1196
  374TIP3    H122537   1.103   2.450   0.056 -0.2437  0.2864  1.3452
  374TIP3    H222538   1.153   2.538  -0.056 -0.3676 -1.2217  0.0753
  375TIP3   OH222539   1.876   5.979  15.485 -0.0511 -0.5686  0.3689
  375TIP3    H122540   1.879   6.013  15.575  1.9911  0.2841  0.0173
  375TIP3    H222541   1.796   6.017  15.448 -0.5809 -0.4190  1.6152
  376TIP3   OH222542   4.303   0.762   2.848  0.2821 -0.4235  0.3838
  376TIP3    H122543   4.293   0.686   2.791  0.4056  1.4630 -2.3243
  376TIP3    H222544   4.386   0.802   2.822  0.9660 -0.0901  2.7602
  377TIP3   OH222545   6.231   6.159  14.053 -0.2147  0.4143  0.1404
  377TIP3    H122546   6.198   6.249  14.051  0.6045  0.7937  1.8536
  377TIP3    H222547   6.226   6.130  13.962 -4.5927  0.6388  0.0818
  378TIP3   OH222548   4.969   1.878  11.117  0.0582  0.0275 -0.0778
  378TIP3    H122549   4.967   1.942  11.046 -1.1916  2.0066  1.6124
  378TIP3    H222550   5.056   1.889  11.157 -0.2981  1.0311  0.4611
  379TIP3   OH222551   0.432   2.795   2.828  0.0846 -0.0034  0.6302
  379TIP3    H122552   0.405   2.864   2.768 -0.7132 -0.4627  0.4450
  379TIP3    H222553   0.485   2.840   2.893  1.8726  0.3363 -0.9829
  380TIP3   OH222554   5.144   2.163   0.456  0.0372 -0.4884 -0.0347
  380TIP3    H122555   5.088   2.215   0.513 -0.2392 -1.3436  0.5022
  380TIP3    H222556   5.202   2.227   0.414 -3.2626  0.8700 -2.9705
  381TIP3   OH222557   5.041   0.802  15.977  0.2940  0.1416  0.2608
  381TIP3    H122558   5.112   0.836  16.032 -1.0581  1.1019  1.4902
  381TIP3    H222559   5.022   0.715  16.013  0.8779 -0.1512 -0.1212
  382TIP3   OH222560   2.794   5.475  16.346  0.7511  0.5432  0.1698
  382TIP3    H122561   2.870   5.433  16.305 -0.1210 -0.1955 -0.7141
  382TIP3    H222562   2.781   5.425  16.427 -0.0318 -0.6867 -0.6790
  383TIP3   OH222563   4.095   1.700   3.130  0.5158 -0.5159  0.2345
  383TIP3    H122564   4.013   1.704   3.180  0.6415  3.0077  0.3825
  383TIP3    H222565   4.070   1.659   3.047 -0.7760 -1.9135  1.2514
  384TIP3   OH222566   3.197   2.813  14.487  0.0338  0.4923  0.0262
  384TIP3    H122567   3.240   2.748  14.432  0.7448 -1.2547  2.4839
  384TIP3    H222568   3.111   2.827  14.446 -0.4975 -2.6685 -0.1660
  385TIP3   OH222569   3.210   0.093  11.005 -0.1273  0.0314 -0.4642
  385TIP3    H122570   3.144   0.163  11.012 -0.9217 -0.6691 -0.7557
  385TIP3    H222571   3.181   0.040  10.930  0.9013 -0.1617 -0.7356
  386TIP3   OH222572   5.050   2.994   0.314  0.7075 -0.5914  0.0136
  386TIP3    H122573   4.996   2.930   0.360 -0.2246 -0.1351 -0.4162
  386TIP3    H222574   5.008   3.079   0.333  2.9006  0.1535  2.0111
  387TIP3   OH222575   3.456   5.136  15.272 -0.5190  0.0715 -0.0925
  387TIP3    H122576   3.447   5.041  15.271 -0.2906  0.0082 -2.3548
  387TIP3    H222577   3.473   5.158  15.363 -1.7982 -1.9173  0.7009
  388TIP3   OH222578   0.441   4.769   3.088  0.1279  0.2265  0.1816
  388TIP3    H122579   0.478   4.846   3.131 -1.2072  0.9600  0.1048
  388TIP3    H222580   0.471   4.776   2.997 -1.1507  1.5019 -0.1841
  389TIP3   OH222581   4.498   6.042   5.055  0.5673 -0.5453 -0.5867
  389TIP3    H122582   4.526   6.111   4.995  0.6832  0.5195  0.6730
  389TIP3    H222583   4.571   6.032   5.116 -1.0180  1.0851  1.7069
  390TIP3   OH222584   1.183   6.374  16.864 -0.3031  0.3049 -0.5379
  390TIP3    H122585   1.217   6.287  16.883  1.6843  1.4528  1.7502
  390TIP3    H222586   1.120   6.391  16.934  0.0070  1.0353 -0.4287
  391TIP3   OH222587   1.144   2.981   0.788 -0.3739  0.0096  0.1084
  391TIP3    H122588   1.171   2.889   0.795 -0.1941 -0.1133 -1.8692
  391TIP3    H222589   1.176   3.020   0.870 -0.4285 -1.6548  0.9826
  392TIP3   OH222590   1.064   5.252   3.172  0.4461  0.0567 -0.0018
  392TIP3    H122591   1.156   5.240   3.148  0.4239 -0.9354  0.3655
  392TIP3    H222592   1.032   5.164   3.190 -0.3846  0.4642  0.6049
  393TIP3   OH222593   4.467   6.029  13.523  0.2751 -0.1816 -0.0959
  393TIP3    H122594   4.480   6.109  13.574  0.6818  1.0199 -1.9556
  393TIP3    H222595   4.549   5.981  13.533  0.0183 -0.3910  1.0625
  394TIP3   OH222596   4.449   0.841  11.627  0.8643 -0.4121 -0.3986
  394TIP3    H122597   4.468   0.888  11.546  0.9444  0.2086 -0.0248
  394TIP3    H222598   4.489   0.755  11.615  2.2892  0.2273 -0.3794
  395TIP3   OH222599   2.118   4.133   5.695  0.0702 -0.1643 -0.2869
  395TIP3    H122600   2.119   4.227   5.678  1.0679  0.0751  0.9654
  395TIP3    H222601   2.174   4.096   5.626  1.3666  0.4078  0.4288
  396TIP3   OH222602   2.960   5.679  11.594 -0.8859  0.1287 -0.3131
  396TIP3    H122603   3.004   5.742  11.651 -1.2435  0.7374 -0.7044
  396TIP3    H222604   3.029   5.649  11.534 -0.4261 -0.7573  0.6166
  397TIP3   OH222605   5.097   4.546  10.902 -0.3000  0.0831  0.0051
  397TIP3    H122606   5.062   4.480  10.842 -0.1221  0.0617 -0.0751
  397TIP3    H222607   5.049   4.626  10.880 -0.9870 -0.1681  0.5437
  398TIP3   OH222608   6.393   6.540   1.049  0.0432  0.2418  0.0423
  398TIP3    H122609   6.358   6.589   0.975  0.3475 -0.2163 -0.4112
  398TIP3    H222610   6.365   6.590   1.126 -2.5901 -0.7160 -0.1949
  399TIP3   OH222611   6.521   0.388  12.413 -0.1571 -0.0087  0.6851
  399TIP3    H122612   6.501   0.467  12.363 -1.6712  1.7348  3.7905
  399TIP3    H222613   6.439   0.338  12.412  0.1815 -0.5716  0.4524
  400TIP3   OH222614   5.403   4.449   2.226 -0.2105  0.3131  0.5507
  400TIP3    H122615   5.493   4.419   2.214 -0.8697 -1.9056  0.7575
  400TIP3    H222616   5.365   4.447   2.137 -0.4862 -0.2661  0.6781
  401TIP3   OH222617   6.793   6.617  11.749 -0.3978 -0.2752 -0.3290
  401TIP3    H122618   6.848   6.539  11.754 -0.0699 -0.0070  0.3835
  401TIP3    H222619   6.706   6.587  11.777 -0.0089 -0.1506  1.0675
  402TIP3   OH222620   5.851   4.262  15.545 -0.1863 -0.8633 -0.1742
  402TIP3    H122621   5.774   4.314  15.565  0.9711 -0.1086  2.9059
  402TIP3    H222622   5.921   4.300  15.598  2.4948 -1.2372 -3.1030
  403TIP3   OH222623   6.209   3.730  14.674  0.4327  0.2119 -0.3990
  403TIP3    H122624   6.235   3.652  14.625  0.3297 -0.5770  0.7529
  403TIP3    H222625   6.252   3.802  14.629 -0.3351 -0.3644 -2.1517
  404TIP3   OH222626   4.542   5.512  11.139  0.0972  0.0378  0.1212
  404TIP3    H122627   4.528   5.458  11.216 -1.2665 -1.3445 -1.0201
  404TIP3    H222628   4.453   5.533  11.109  0.6088  1.0584 -0.7107
  405TIP3   OH222629   4.271   5.048   1.437 -0.2252 -0.2139 -0.0789
  405TIP3    H122630   4.263   5.107   1.512  1.0108 -1.6131  1.2154
  405TIP3    H222631   4.266   4.960   1.475  1.6802 -0.9880 -1.4511
  406TIP3   OH222632   2.574   2.231   2.374  0.0707  0.0068  0.1858
  406TIP3    H122633   2.527   2.226   2.456  0.0250  0.0820  0.1635
  406TIP3    H222634   2.664   2.204   2.396  0.2057  0.5968  0.3763
  407TIP3   OH222635   5.275   2.769   0.605 -0.5197  0.9242 -0.1121
  407TIP3    H122636   5.268   2.737   0.515 -0.0933  1.3250 -0.2940
  407TIP3    H222637   5.346   2.833   0.602 -0.6430  1.0947  0.4678
  408TIP3   OH222638   2.122   4.712   4.632 -0.3146  0.0558 -0.3568
  408TIP3    H122639   2.057   4.650   4.665 -0.6920 -0.7454 -2.4427
  408TIP3    H222640   2.075   4.796   4.628 -0.7786 -0.2080 -0.5020
  409TIP3   OH222641   5.220   1.989  13.979  0.3459 -0.7831  0.0712
  409TIP3    H122642   5.293   2.002  13.919  1.1545  0.9229  1.3371
  409TIP3    H222643   5.169   2.069  13.974 -1.9156 -2.1934 -1.2936
  410TIP3   OH222644   4.800   0.359  16.147  0.0814 -0.1664 -0.8279
  410TIP3    H122645   4.886   0.317  16.158 -0.1265 -0.6828 -1.1549
  410TIP3    H222646   4.741   0.309  16.203  0.5085  1.9309  1.7042
  411TIP3   OH222647   0.198   3.300  16.481  0.2377  0.7800 -0.5045
  411TIP3    H122648   0.246   3.348  16.413  1.9927 -1.4357 -0.9385
  411TIP3    H222649   0.225   3.341  16.563  2.1856  0.2285 -0.8204
  412TIP3   OH222650   6.294   2.128   2.999  0.8455  0.2841  0.1679
  412TIP3    H122651   6.330   2.061   2.941  2.7843  1.7082 -0.3912
  412TIP3    H222652   6.258   2.194   2.939  0.3317  0.4695  0.6713
  413TIP3   OH222653   1.744   0.565  16.140  0.3214  0.2342  0.2777
  413TIP3    H122654   1.675   0.609  16.191 -0.3199 -0.0324 -0.3560
  413TIP3    H222655   1.701   0.491  16.099  1.0374 -0.0554  0.0299
  414TIP3   OH222656   2.976   0.050  16.435  0.7622 -0.3833 -0.2492
  414TIP3    H122657   2.958   0.068  16.527  3.0137  0.7895  0.0344
  414TIP3    H222658   3.032  -0.028  16.436  0.2637 -0.7500 -0.6715
  415TIP3   OH222659   1.349   0.224  15.235  0.0574  0.2253  0.5935
  415TIP3    H122660   1.374   0.288  15.169  0.2482  0.5382  0.9610
  415TIP3    H222661   1.320   0.277  15.310  1.8804 -0.0565  1.5558
  416TIP3   OH222662   5.275   3.234  11.722 -0.1946  0.3911 -0.0946
  416TIP3    H122663   5.256   3.241  11.628  2.5987  1.9246 -0.6556
  416TIP3    H222664   5.259   3.141  11.742 -1.1223  0.0785 -1.9818
  417TIP3   OH222665   4.693   3.765   4.017 -0.5715  0.2580  0.3956
  417TIP3    H122666   4.667   3.853   3.990  3.3789  1.1165 -1.3263
  417TIP3    H222667   4.753   3.779   4.091 -0.4656 -1.0499  0.5882
  418TIP3   OH222668   2.527   4.860  11.317  0.0161 -0.4953 -0.0043
  418TIP3    H122669   2.485   4.774  11.322 -1.1381  0.0172 -0.4255
  418TIP3    H222670   2.543   4.873  11.224 -0.3345 -0.0267 -0.0035
  419TIP3   OH222671   3.800   2.278   3.037  0.0581 -0.2521  0.5500
  419TIP3    H122672   3.893   2.255   3.036  0.3023  0.7020  0.4696
  419TIP3    H222673   3.781   2.297   3.129  0.5204  1.7407  0.2735
  420TIP3   OH222674   5.541   4.503   3.160  0.1611 -0.2682 -0.8122
  420TIP3    H122675   5.477   4.500   3.089 -1.6038  4.0073  0.2803
  420TIP3    H222676   5.619   4.543   3.120 -0.6152  1.5649 -0.5665
  421TIP3   OH222677   3.654   4.853  13.060  0.1475 -0.1626  0.0177
  421TIP3    H122678   3.739   4.896  13.044  0.3100 -0.1995  0.7418
  421TIP3    H222679   3.599   4.922  13.096 -0.1494 -0.1265 -0.5041
  422TIP3   OH222680   3.731   0.151   1.770 -0.3901 -0.1749  0.5571
  422TIP3    H122681   3.813   0.105   1.789  1.0330  2.0050  0.0275
  422TIP3    H222682   3.757   0.226   1.717 -2.9545 -0.2964 -1.0708
  423TIP3   OH222683   1.550   6.201   2.482  0.3448  0.0745 -0.6484
  423TIP3    H122684   1.513   6.139   2.544 -1.0820  0.3430 -1.1998
  423TIP3    H222685   1.476   6.232   2.430  1.1018  1.8213 -0.7788
  424TIP3   OH222686   4.287   4.434  16.486  0.0297 -0.1389 -0.2098
  424TIP3    H122687   4.356   4.369  16.475  0.6079  0.7487 -2.1061
  424TIP3    H222688   4.231   4.398  16.556  0.9586 -2.0865 -0.4166
  425TIP3   OH222689   6.107   3.656   0.185 -0.3829 -0.1759 -0.5074
  425TIP3    H122690   6.133   3.735   0.137 -0.0319 -1.0051 -1.7149
  425TIP3    H222691   6.136   3.583   0.130  1.5961 -1.2214  1.7509
  426TIP3   OH222692   5.459   2.276  11.189  0.2858  0.2855 -0.3642
  426TIP3    H122693   5.477   2.355  11.240 -0.0199  0.3119 -0.2979
  426TIP3    H222694   5.527   2.276  11.121  0.4315  0.4771 -0.2186
  427TIP3   OH222695   1.427   6.669   3.470  0.2559  0.2936  0.0810
  427TIP3    H122696   1.417   6.577   3.445 -0.6816  0.0520  1.2357
  427TIP3    H222697   1.451   6.666   3.562  0.6407  1.2120  0.0184
  428TIP3   OH222698   5.978   0.831   1.184 -0.6421  0.5357  0.1673
  428TIP3    H122699   5.991   0.834   1.089  1.3461 -0.7552  0.3473
  428TIP3    H222700   6.043   0.892   1.218 -0.0973 -0.3844  0.7842
  429TIP3   OH222701   5.385   5.652  15.736  0.9040 -0.5666 -0.1381
  429TIP3    H122702   5.387   5.558  15.757  1.7605 -0.6699 -0.6217
  429TIP3    H222703   5.374   5.695  15.821 -3.2392 -1.1473 -0.1821
  430TIP3   OH222704   4.143   2.520  15.677 -0.5819  0.3758 -0.1384
  430TIP3    H122705   4.159   2.429  15.652 -0.1369  0.1221  1.0373
  430TIP3    H222706   4.180   2.528  15.765 -0.8364  1.6292 -0.1318
  431TIP3   OH222707   3.353   1.505  12.127  0.1197  0.5817  0.0095
  431TIP3    H122708   3.432   1.555  12.148 -0.0983  0.7836  0.3693
  431TIP3    H222709   3.377   1.414  12.143 -0.6084  0.8165  3.2140
  432TIP3   OH222710   3.331   5.863   0.899 -0.0328  0.7156  0.0474
  432TIP3    H122711   3.309   5.850   0.807  2.1241  2.2645 -0.7619
  432TIP3    H222712   3.344   5.958   0.908  2.9728  0.3305  1.0759
  433TIP3   OH222713   5.044   0.225  15.303  0.2010 -0.0518  0.3111
  433TIP3    H122714   5.090   0.276  15.370  0.9187 -0.4401  0.1151
  433TIP3    H222715   5.112   0.176  15.258 -0.4642 -1.1349  0.4373
  434TIP3   OH222716   2.139   5.602  15.555  0.3217  0.4695 -0.2219
  434TIP3    H122717   2.122   5.533  15.491  1.8572 -1.7204  1.5854
  434TIP3    H222718   2.053   5.622  15.592 -0.0153 -1.5386  0.2118
  435TIP3   OH222719   1.518   4.599  14.372  0.0619 -0.0985 -0.2813
  435TIP3    H122720   1.520   4.586  14.467  1.4273  1.9123  0.0233
  435TIP3    H222721   1.591   4.658  14.354 -0.2602 -0.3081 -2.5841
  436TIP3   OH222722   5.802   3.661   3.501 -0.1509  0.2293 -0.4614
  436TIP3    H122723   5.773   3.570   3.505  0.8705 -0.0716  0.7554
  436TIP3    H222724   5.841   3.677   3.587  2.8448  0.7306 -1.8030
  437TIP3   OH222725   5.742   2.932  14.506  0.2153  0.1145 -0.3127
  437TIP3    H122726   5.666   2.982  14.475  0.0010 -0.8479 -1.3781
  437TIP3    H222727   5.809   2.999  14.520  0.7743  0.5729 -4.1044
  438TIP3   OH222728   3.938   3.555  13.980  0.1073  0.4808  0.3358
  438TIP3    H122729   3.905   3.482  14.033  0.1529 -1.6256 -2.3182
  438TIP3    H222730   3.870   3.622  13.986 -0.7119 -0.4158  1.5594
  439TIP3   OH222731   0.280   2.791   3.626 -0.4552  0.0571 -0.1195
  439TIP3    H122732   0.295   2.732   3.701 -0.0999  0.1666 -0.0991
  439TIP3    H222733   0.355   2.775   3.568  0.7747  1.9461  0.8411
  440TIP3   OH222734   5.997   6.117  15.335 -0.6093 -0.1025 -0.0289
  440TIP3    H122735   6.072   6.174  15.354 -1.6082  1.0496  0.5950
  440TIP3    H222736   6.023   6.031  15.369  0.4583  0.2554  0.0840
  441TIP3   OH222737   6.443   4.238  15.849  0.2775 -0.3958  0.2198
  441TIP3    H122738   6.371   4.202  15.900 -0.6905  1.3058  0.1392
  441TIP3    H222739   6.511   4.259  15.913  0.0947 -0.6115  0.4853
  442TIP3   OH222740   1.043   0.814   2.806  0.3697  0.1990  0.0721
  442TIP3    H122741   1.093   0.811   2.725 -0.6356  0.8240 -0.5945
  442TIP3    H222742   1.080   0.888   2.854 -0.6862  1.4564 -0.9713
  443TIP3   OH222743   0.678   5.233   6.238 -0.1558  0.3149 -0.4902
  443TIP3    H122744   0.634   5.213   6.321 -1.0510  0.7135 -0.8545
  443TIP3    H222745   0.755   5.175   6.237 -0.3172  0.0636  0.4573
  444TIP3   OH222746   4.042   5.984   1.672  0.0550  0.4588  0.0419
  444TIP3    H122747   4.017   5.971   1.581  0.9765  1.2472 -0.3363
  444TIP3    H222748   4.137   5.992   1.670 -0.0899  3.0611  0.7413
  445TIP3   OH222749   2.741   0.205   0.530  0.2700 -0.1431  0.2476
  445TIP3    H122750   2.697   0.290   0.517 -0.1768 -0.4683 -0.4373
  445TIP3    H222751   2.749   0.196   0.625 -0.2514  0.3815  0.3458
  446TIP3   OH222752   2.990   5.896   4.028  0.5117  0.1945 -0.8759
  446TIP3    H122753   3.006   5.986   3.996  1.9026  0.7999  1.3013
  446TIP3    H222754   3.000   5.842   3.950 -0.1918  1.9024 -2.2342
  447TIP3   OH222755   3.717   3.631   4.111  0.4205 -0.1295  0.2930
  447TIP3    H122756   3.740   3.599   4.024  0.1630  0.1490  0.1203
  447TIP3    H222757   3.688   3.721   4.096  1.2774  0.2492  0.7809
  448TIP3   OH222758   2.549   3.945   2.046 -0.1724 -0.0021  0.2457
  448TIP3    H122759   2.604   3.990   1.981 -1.7305  0.4824 -0.8026
  448TIP3    H222760   2.575   3.984   2.130  1.5582 -0.3040 -0.1035
  449TIP3   OH222761   0.789   5.535   4.903 -0.5025 -0.4577  0.1139
  449TIP3    H122762   0.816   5.582   4.824  0.3568 -0.5273  0.3486
  449TIP3    H222763   0.732   5.465   4.872  0.9386 -1.3680 -0.6198
  450TIP3   OH222764   0.957   5.022  13.977  0.4070 -0.0985  0.1750
  450TIP3    H122765   0.957   4.928  13.961 -0.1641  0.3621 -3.1362
  450TIP3    H222766   0.874   5.039  14.023 -0.2088 -1.0225 -0.5801
  451TIP3   OH222767   6.416   0.107   0.619  0.2448  0.5080 -0.5253
  451TIP3    H122768   6.372   0.024   0.604  1.1357  0.4341 -3.3970
  451TIP3    H222769   6.345   0.171   0.628 -0.4362 -0.3993  0.8090
  452TIP3   OH222770   0.528   4.414  12.833 -0.4297  0.1323  0.4474
  452TIP3    H122771   0.554   4.322  12.844 -1.1508 -0.0836  0.4288
  452TIP3    H222772   0.574   4.443  12.754  0.2845 -0.0256  0.8006
  453TIP3   OH222773   0.764   4.296  14.421 -0.2659 -0.5545 -0.4405
  453TIP3    H122774   0.817   4.303  14.342  0.7822 -2.4462  0.0456
  453TIP3    H222775   0.782   4.377  14.469  0.9151 -0.4370 -1.0512
  454TIP3   OH222776   5.587   0.188   1.353  0.3675  0.2294  0.3418
  454TIP3    H122777   5.643   0.112   1.334  0.6834  0.4965  0.1961
  454TIP3    H222778   5.640   0.264   1.328 -0.5911  0.4457 -1.1154
  455TIP3   OH222779   3.374   0.513   5.030 -0.1467  0.6081  0.0051
  455TIP3    H122780   3.384   0.505   4.935 -1.6557  2.5806 -0.3907
  455TIP3    H222781   3.282   0.535   5.042 -0.3157 -0.9886  2.0689
  456TIP3   OH222782   2.085   1.765   0.929  0.3556 -0.7682 -0.4287
  456TIP3    H122783   2.071   1.848   0.976 -2.5084 -1.5967  0.4276
  456TIP3    H222784   1.999   1.744   0.893  1.7685 -1.7669 -3.4934
  457TIP3   OH222785   2.968   3.637   5.104 -0.0713 -0.2048 -0.5261
  457TIP3    H122786   3.052   3.632   5.059  1.1494 -0.6959  1.6581
  457TIP3    H222787   2.977   3.710   5.165 -0.1217 -1.9431  1.7139
  458TIP3   OH222788   5.310   5.693  16.992 -0.0890 -0.4226  0.3509
  458TIP3    H122789   5.370   5.627  17.027 -1.0248 -0.9526  1.0031
  458TIP3    H222790   5.356   5.776  17.004  0.0760 -0.7001  1.8968
  459TIP3   OH222791   1.902   6.473   5.703  0.0512 -0.0752  0.7228
  459TIP3    H122792   1.857   6.404   5.752 -0.5652 -0.1051  0.1300
  459TIP3    H222793   1.930   6.535   5.770 -1.3924  0.2385  1.0737
  460TIP3   OH222794   3.332   3.147  13.705 -0.0057  0.1684 -0.0062
  460TIP3    H122795   3.266   3.079  13.721 -2.7449  2.9901  1.6906
  460TIP3    H222796   3.393   3.138  13.778 -0.9956  0.1985  0.8512
  461TIP3   OH222797   4.020   5.125  14.247  0.4870 -0.7934  0.0177
  461TIP3    H122798   3.955   5.189  14.219  1.7472  1.2231  1.4386
  461TIP3    H222799   3.970   5.045  14.264 -1.2855  0.0820 -0.8349
  462TIP3   OH222800   6.120   0.671   0.925  0.0193 -0.4647  0.1261
  462TIP3    H122801   6.138   0.723   0.847 -0.0116  2.6072  2.0055
  462TIP3    H222802   6.024   0.663   0.927  0.0611 -1.2960 -0.5386
  463TIP3   OH222803   3.072   4.717   1.442 -0.1325 -0.0840 -0.1255
  463TIP3    H122804   3.038   4.679   1.523 -1.3461 -0.5145 -0.8118
  463TIP3    H222805   3.033   4.804   1.438 -0.1400 -0.0941 -0.2884
  464TIP3   OH222806   1.349   3.917  11.900 -0.3045  0.2380 -0.1848
  464TIP3    H122807   1.343   3.851  11.831 -1.9178 -0.2094  0.3259
  464TIP3    H222808   1.266   3.965  11.894 -0.2577  0.5213  1.0814
  465TIP3   OH222809   2.450   2.298   4.476  0.1881 -0.0126 -0.1352
  465TIP3    H122810   2.465   2.369   4.538  1.0148 -0.5980  0.3746
  465TIP3    H222811   2.361   2.268   4.494  0.5730 -0.4771  1.1146
  466TIP3   OH222812   4.646   1.848  16.057  0.2109 -0.5230  0.0480
  466TIP3    H122813   4.598   1.816  15.981 -2.4204 -0.6386  1.6197
  466TIP3    H222814   4.683   1.770  16.098  1.5757 -0.4657 -1.0211
  467TIP3   OH222815   3.372   0.183  13.916  0.0575  0.1099 -0.0848
  467TIP3    H122816   3.400   0.267  13.880 -0.5931  0.1587 -0.4958
  467TIP3    H222817   3.277   0.188  13.918  0.0044 -0.6531 -0.2077
  468TIP3   OH222818   0.860   1.281   4.765  0.0474 -0.1347  0.3274
  468TIP3    H122819   0.920   1.210   4.789  0.4921  0.2500  0.3554
  468TIP3    H222820   0.916   1.355   4.743 -0.4048  0.0858 -0.1185
  469TIP3   OH222821   1.687   3.135   6.232 -0.6260  0.0606 -0.4941
  469TIP3    H122822   1.734   3.209   6.271 -1.1555  0.3111 -0.3210
  469TIP3    H222823   1.598   3.142   6.267 -0.8910 -0.1931 -1.1007
  470TIP3   OH222824   6.006   5.542  16.685 -0.2956 -0.4134  0.0458
  470TIP3    H122825   5.953   5.612  16.723 -1.9146 -1.8400  0.5332
  470TIP3    H222826   6.044   5.581  16.606 -0.1523  1.3620  0.9417
  471TIP3   OH222827   3.729   5.815  15.667 -0.6393  0.3323 -0.2417
  471TIP3    H122828   3.664   5.795  15.600 -0.3890 -3.0538  0.3208
  471TIP3    H222829   3.813   5.799  15.624 -0.4604 -1.2181  0.6021
  472TIP3   OH222830   6.410   3.412   1.008  0.4451  0.2915 -0.4120
  472TIP3    H122831   6.362   3.413   0.925 -0.5100  1.5613  0.1284
  472TIP3    H222832   6.388   3.328   1.048 -1.3461  0.8322 -0.1828
  473TIP3   OH222833   5.690   0.699  12.359  0.2355  0.7035 -0.4193
  473TIP3    H122834   5.700   0.706  12.264 -0.2855 -0.8708 -0.6201
  473TIP3    H222835   5.700   0.789  12.391 -1.0281  1.5075 -2.1038
  474TIP3   OH222836   4.205   1.456  12.689  0.1198  0.3644  0.4836
  474TIP3    H122837   4.131   1.402  12.719 -0.6059  0.2656 -1.3566
  474TIP3    H222838   4.278   1.395  12.684 -1.0327 -0.9857 -3.0398
  475TIP3   OH222839   5.815   0.648   0.970 -0.1180  0.2742  0.2184
  475TIP3    H122840   5.733   0.630   1.015  1.0755  1.3947  3.0602
  475TIP3    H222841   5.799   0.730   0.923 -1.6612 -1.3751 -2.3749
  476TIP3   OH222842   0.347   4.029   5.451  0.7402 -0.6262 -0.6680
  476TIP3    H122843   0.376   3.938   5.444  1.0694 -0.5216 -0.6386
  476TIP3    H222844   0.304   4.047   5.367 -0.7143 -1.2979 -0.1059
  477TIP3   OH222845   3.232   4.803  14.219 -0.2565  0.0703  0.4971
  477TIP3    H122846   3.164   4.861  14.185 -0.0023 -0.4975 -1.0557
  477TIP3    H222847   3.232   4.818  14.314 -2.0736  0.5728  0.4424
  478TIP3   OH222848   1.290   4.715  13.938  0.1362  0.5939 -0.3289
  478TIP3    H122849   1.202   4.752  13.946 -0.1839 -0.3534  0.9125
  478TIP3    H222850   1.317   4.735  13.849 -1.7583  0.0283 -1.0701
  479TIP3   OH222851   4.182   1.670   4.140  0.7976 -0.5789  0.4226
  479TIP3    H122852   4.139   1.730   4.078  0.1256 -0.0846  1.3453
  479TIP3    H222853   4.198   1.723   4.218  1.1983 -1.3224  0.8560
  480TIP3   OH222854   1.316   5.587  13.448 -0.0285  0.0088 -0.6441
  480TIP3    H122855   1.411   5.590  13.440  0.1432 -1.0997  0.5446
  480TIP3    H222856   1.289   5.522  13.383  0.2587 -1.1306  0.3339
  481TIP3   OH222857   2.848   3.701   3.056 -0.1055  0.2396  0.1538
  481TIP3    H122858   2.807   3.752   3.126 -0.7581 -1.6350  1.1900
  481TIP3    H222859   2.918   3.652   3.100  0.9581  0.7198 -0.9495
  482TIP3   OH222860   0.688   3.171   5.324  0.3403 -0.1702  0.3797
  482TIP3    H122861   0.723   3.260   5.334 -0.3979  0.5644 -2.4235
  482TIP3    H222862   0.640   3.154   5.405  0.5145  1.9868  0.9932
  483TIP3   OH222863   2.976   5.182  12.368 -0.0316  0.0682 -0.8952
  483TIP3    H122864   3.008   5.151  12.283  0.4465  0.1731 -0.7539
  483TIP3    H222865   2.960   5.102  12.418  2.3125  0.0410 -0.1178
  484TIP3   OH222866   2.631   0.172   4.242 -0.3936  0.2983 -0.0257
  484TIP3    H122867   2.676   0.254   4.260 -0.6815  0.4669 -0.0744
  484TIP3    H222868   2.542   0.186   4.274 -0.8118  0.4629 -1.2248
  485TIP3   OH222869   0.434   0.841   4.904 -0.2268 -0.5367 -0.3228
  485TIP3    H122870   0.411   0.933   4.915 -0.8871 -0.6545 -0.6865
  485TIP3    H222871   0.498   0.840   4.833  1.0547 -0.1926  0.7808
  486TIP3   OH222872   3.825   1.794  10.688 -0.3934  0.2097 -0.7759
  486TIP3    H122873   3.787   1.833  10.609 -1.6537 -0.2197 -0.4084
  486TIP3    H222874   3.785   1.707  10.694 -0.9759  0.5453  0.7664
  487TIP3   OH222875   3.929   0.519   1.427 -0.1832  0.2221  0.4367
  487TIP3    H122876   3.872   0.553   1.359  1.6996  0.5103 -1.1063
  487TIP3    H222877   4.005   0.485   1.379  0.9182 -0.1689  2.3638
  488TIP3   OH222878   5.811   5.993   0.879 -0.1429 -0.1429 -0.2762
  488TIP3    H122879   5.721   6.027   0.884 -0.0072  0.2498 -0.5167
  488TIP3    H222880   5.800   5.898   0.879 -0.5707 -0.0955 -0.5183
  489TIP3   OH222881   6.307   0.777   2.082 -0.1270 -0.5019  0.6993
  489TIP3    H122882   6.342   0.816   2.002 -0.1971  1.1493  1.4367
  489TIP3    H222883   6.292   0.851   2.140 -1.8493 -1.4690  1.5731
  490TIP3   OH222884   5.164   1.129  16.770 -0.7589  0.4200  0.1852
  490TIP3    H122885   5.219   1.059  16.805 -1.7595  1.0545  3.3108
  490TIP3    H222886   5.225   1.202  16.756 -0.4933  0.6255  2.1669
  491TIP3   OH222887   0.946   1.289   2.823  0.3770  0.2009 -0.2062
  491TIP3    H122888   0.942   1.355   2.893  0.6323 -0.8354  0.8135
  491TIP3    H222889   0.857   1.255   2.817  0.2237  0.6814 -0.7985
  492TIP3   OH222890   3.175   0.231   5.490 -0.2366  0.0554  0.1876
  492TIP3    H122891   3.246   0.222   5.552  0.2951  1.8769 -0.0919
  492TIP3    H222892   3.095   0.223   5.543  0.1204 -2.0407  0.4898
  493TIP3   OH222893   1.156   3.085   2.616 -0.5203  0.2866  0.2233
  493TIP3    H122894   1.096   3.146   2.574  0.2247  2.0212  1.5380
  493TIP3    H222895   1.159   3.113   2.707  0.4543 -1.2632  0.7092
  494TIP3   OH222896   2.975   5.643   1.265 -0.5289  0.1254 -0.3479
  494TIP3    H122897   2.913   5.698   1.216 -1.9305  0.5401  1.7092
  494TIP3    H222898   3.020   5.705   1.323  1.6032 -0.2407 -1.5370
  495TIP3   OH222899   5.680   0.342   2.300 -0.0270  0.7106  0.3860
  495TIP3    H122900   5.757   0.303   2.341  0.0614 -0.1197 -0.5272
  495TIP3    H222901   5.608   0.324   2.361  0.2807  0.4055  0.6623
  496TIP3   OH222902   2.303   3.230  16.052 -0.2871 -0.3536 -0.2242
  496TIP3    H122903   2.339   3.261  16.136 -0.6901 -2.7322  0.8949
  496TIP3    H222904   2.232   3.291  16.033  0.9255  1.2766  0.2255
  497TIP3   OH222905   5.995   5.922   1.080 -0.3094  0.3308  0.4736
  497TIP3    H122906   5.925   5.968   1.033 -1.7693  0.8199  2.9256
  497TIP3    H222907   6.020   5.983   1.150  0.6338 -0.9686  1.3025
  498TIP3   OH222908   2.619   5.422   4.401  0.2402 -0.2930  0.4733
  498TIP3    H122909   2.539   5.449   4.446  0.0952 -0.3156  0.2319
  498TIP3    H222910   2.590   5.402   4.312  0.6449  0.4271  0.1718
  499TIP3   OH222911   2.851   1.835   5.635 -0.3084  0.4298 -0.4318
  499TIP3    H122912   2.873   1.798   5.549 -1.1516  0.3411 -0.6230
  499TIP3    H222913   2.815   1.761   5.684  2.8390 -0.2400  1.0585
  500TIP3   OH222914   3.454   1.975  10.324  0.1243 -0.1625 -0.0760
  500TIP3    H122915   3.544   2.007  10.330  0.0003  0.2633 -0.4911
  500TIP3    H222916   3.416   1.994  10.410  0.8471 -1.6541  0.6213
  501TIP3   OH222917   1.243   0.717   4.571 -0.4188  0.1168  1.2036
  501TIP3    H122918   1.304   0.686   4.638 -0.9018  0.3403  1.7607
  501TIP3    H222919   1.164   0.665   4.585  0.0025 -0.9848 -0.2575
  502TIP3   OH222920   5.658   0.631   4.225  0.2518  0.1986  0.4439
  502TIP3    H122921   5.753   0.644   4.219  0.6420 -1.8372  1.3538
  502TIP3    H222922   5.627   0.705   4.276  1.1100  1.6769 -1.0856
  503TIP3   OH222923   6.634   0.733   1.499 -0.6237  0.0237 -0.0536
  503TIP3    H122924   6.678   0.784   1.567  0.3232 -0.2272 -0.4546
  503TIP3    H222925   6.620   0.647   1.539 -1.0471  0.2045  0.1873
  504TIP3   OH222926   2.482   4.870   0.886  0.1514 -0.1081 -0.5997
  504TIP3    H122927   2.543   4.834   0.822  0.6703 -1.1028  0.4016
  504TIP3    H222928   2.437   4.940   0.840  0.7410 -0.5670 -1.9347
  505TIP3   OH222929   1.392   2.855   2.038  0.0868 -0.2402  0.3956
  505TIP3    H122930   1.377   2.781   1.978  0.3733 -0.9936  1.2257
  505TIP3    H222931   1.305   2.883   2.063 -0.0213 -0.4860  0.3017
  506TIP3   OH222932   5.103   1.731   1.951 -0.6312 -0.3071 -0.4009
  506TIP3    H122933   5.041   1.691   1.890 -1.0428  0.2668 -0.3671
  506TIP3    H222934   5.049   1.786   2.008 -0.2496 -0.8293  0.4837
  507TIP3   OH222935   6.281   5.986  15.163  0.6394 -0.8120 -0.0001
  507TIP3    H122936   6.205   5.929  15.176 -1.2332  1.8134  1.5797
  507TIP3    H222937   6.264   6.029  15.080  0.3191 -0.1578  0.3974
  508TIP3   OH222938   3.583   3.939   5.642 -0.2045  0.0448 -0.0031
  508TIP3    H122939   3.523   3.985   5.701  0.7190  0.2731  0.7612
  508TIP3    H222940   3.637   4.007   5.604 -0.2197 -0.1984 -0.4753
  509TIP3   OH222941   1.928   4.122  13.583 -0.1833 -0.2471  0.0550
  509TIP3    H122942   1.914   4.128  13.489 -0.1334 -0.6734  0.0190
  509TIP3    H222943   1.924   4.213  13.614  0.5438 -0.0343 -0.4612
  510TIP3   OH222944   5.076   0.528  15.202  0.5913  0.0466 -0.5146
  510TIP3    H122945   5.127   0.482  15.269  0.2168 -0.1434 -0.3552
  510TIP3    H222946   5.095   0.621  15.216 -1.9932  0.3199  2.0261
  511TIP3   OH222947   6.011   6.153   5.845  0.7798 -0.4072  0.2401
  511TIP3    H122948   5.962   6.189   5.919  1.4067 -0.2439  0.5913
  511TIP3    H222949   6.047   6.071   5.878  2.6573  0.5760  0.7925
  512TIP3   OH222950   4.329   6.540  10.870  0.2822  0.5898 -0.3049
  512TIP3    H122951   4.415   6.547  10.827  0.2534  1.5331 -0.2071
  512TIP3    H222952   4.288   6.625  10.858  0.7381  1.3130  2.6139
  513TIP3   OH222953   2.793   4.304   1.679  0.1633  0.2326  0.1825
  513TIP3    H122954   2.713   4.260   1.707 -1.1850  2.7209  0.5401
  513TIP3    H222955   2.768   4.351   1.599  1.4632  0.4981 -0.0947
  514TIP3   OH222956   4.398   3.931   5.728 -0.5161 -0.2095  0.4561
  514TIP3    H122957   4.325   3.965   5.780 -1.0427  1.4729 -1.2355
  514TIP3    H222958   4.363   3.852   5.687 -0.4022 -1.0124  1.8532
  515TIP3   OH222959   1.362   3.154   5.237  0.3633 -0.9950  0.1026
  515TIP3    H122960   1.393   3.123   5.152 -2.4610 -1.0384 -1.0337
  515TIP3    H222961   1.345   3.075   5.287  1.3811 -0.9863  0.4806
  516TIP3   OH222962   6.432   5.168   2.493  0.4964  0.0740 -0.4643
  516TIP3    H122963   6.442   5.165   2.588  0.0152  0.3271 -0.4037
  516TIP3    H222964   6.492   5.100   2.461  0.1355 -0.5042  0.0570
  517TIP3   OH222965   1.737   4.165  11.690  0.1027  0.3337  0.3595
  517TIP3    H122966   1.670   4.100  11.670  0.3708 -0.7965  2.6818
  517TIP3    H222967   1.802   4.116  11.742  1.6681  1.8739 -0.0453
  518TIP3   OH222968   2.371   3.185   5.311 -0.6853 -0.1297  0.2754
  518TIP3    H122969   2.297   3.221   5.262  0.6483  2.1319 -0.2248
  518TIP3    H222970   2.371   3.233   5.394 -1.2588 -1.9553  1.3936
  519TIP3   OH222971   4.495   6.655   3.035 -0.2943 -0.3779  0.0415
  519TIP3    H122972   4.427   6.588   3.030  1.4257 -2.2581  0.4177
  519TIP3    H222973   4.575   6.610   3.007  0.9884  1.4684  0.5336
  520TIP3   OH222974   3.373   3.683   3.234  0.1131 -0.1599  0.3370
  520TIP3    H122975   3.374   3.588   3.219 -1.7521 -0.4050  1.4913
  520TIP3    H222976   3.347   3.720   3.149 -1.8630 -0.9082  0.5640
  521TIP3   OH222977   1.474   0.103   6.437 -0.9578 -0.2537 -0.4706
  521TIP3    H122978   1.539   0.113   6.506  2.0180  0.1282 -3.1148
  521TIP3    H222979   1.448   0.193   6.414  1.4664  0.0019 -2.6820
  522TIP3   OH222980   5.892   1.584   0.078 -0.6459  0.2502  0.6400
  522TIP3    H122981   5.870   1.535  -0.001 -0.3389 -1.9963  1.8694
  522TIP3    H222982   5.948   1.655   0.047  1.2678 -1.8182 -0.9984
  523TIP3   OH222983   5.744   4.492  14.863  0.3921  0.0611 -0.2777
  523TIP3    H122984   5.761   4.574  14.817 -1.3722  0.6983  0.1091
  523TIP3    H222985   5.812   4.487  14.930 -0.2351  1.9074  0.5619
  524TIP3   OH222986   5.795   0.782   1.378  0.3396 -0.2451  0.3190
  524TIP3    H122987   5.854   0.781   1.302  0.2542 -0.7719  0.2578
  524TIP3    H222988   5.729   0.848   1.357 -0.4220 -1.2802 -0.6351
  525TIP3   OH222989   2.328   3.457  10.954  0.0926  0.3912  0.3205
  525TIP3    H122990   2.366   3.458  10.867 -0.1622  2.6867  0.1646
  525TIP3    H222991   2.239   3.424  10.942 -0.1569  1.3014 -0.4135
  526TIP3   OH222992   3.442   1.092  14.010 -0.3423  0.0006  0.0873
  526TIP3    H122993   3.390   1.115  14.087  1.1523  0.8358  0.9190
  526TIP3    H222994   3.478   1.176  13.980 -0.8085 -0.3323 -1.4656
  527TIP3   OH222995   0.429   3.210   0.043 -0.1167  0.1720 -0.4807
  527TIP3    H122996   0.484   3.192  -0.033 -1.5982  0.0388 -1.5742
  527TIP3    H222997   0.424   3.305   0.048  0.7775  0.1974  0.0651
  528TIP3   OH222998   2.197   6.191   3.202 -0.6984 -0.0461  0.3375
  528TIP3    H122999   2.266   6.166   3.140  0.0252 -0.0017  1.1042
  528TIP3    H223000   2.221   6.280   3.228  0.6191 -1.0273  2.7817
  529TIP3   OH223001   5.805   4.645  16.677  0.5600  0.2125  0.2192
  529TIP3    H123002   5.881   4.671  16.625  0.0088 -0.1306 -0.7840
  529TIP3    H223003   5.745   4.605  16.614 -0.6042  0.7785  0.9204
  530TIP3   OH223004   5.357   2.674  12.749 -0.5873  0.1700 -0.0552
  530TIP3    H123005   5.270   2.663  12.708 -0.1611 -1.8038 -0.5375
  530TIP3    H223006   5.419   2.660  12.677  0.1518  0.3076  0.5472
  531TIP3   OH223007   4.628   1.481   4.100 -0.0060 -0.2269 -0.3899
  531TIP3    H123008   4.584   1.555   4.056  0.6008 -0.8985 -2.1833
  531TIP3    H223009   4.558   1.440   4.151 -0.2675  1.8158  1.0101
  532TIP3   OH223010   1.063   5.650  11.769  0.4000 -0.2992  0.1999
  532TIP3    H123011   1.050   5.555  11.766  0.7590 -0.3257 -1.0162
  532TIP3    H223012   1.144   5.662  11.818 -1.3641 -0.4004  3.3816
  533TIP3   OH223013   2.239   6.656  16.182  0.4175  0.5375 -0.5036
  533TIP3    H123014   2.258   6.705  16.101  2.0262 -0.4277 -0.7498
  533TIP3    H223015   2.193   6.578  16.152  0.0717  0.6793 -0.3543
  534TIP3   OH223016   6.478   3.275  14.846  0.2598  0.0489 -0.6869
  534TIP3    H123017   6.412   3.206  14.851 -1.2160  1.5155  1.6951
  534TIP3    H223018   6.488   3.293  14.752 -3.1460  0.1508 -1.1284
  535TIP3   OH223019   4.088   2.386  16.174 -0.4282  0.0415 -0.1747
  535TIP3    H123020   4.052   2.451  16.234 -1.0984  0.7305 -1.3002
  535TIP3    H223021   4.123   2.317  16.232 -3.8457 -0.8899  1.0232
  536TIP3   OH223022   3.629   3.643  10.705 -0.4860  0.4704  0.4541
  536TIP3    H123023   3.594   3.558  10.678  2.3902 -1.5034  2.4528
  536TIP3    H223024   3.551   3.693  10.732 -2.1929 -1.7923  0.0153
  537TIP3   OH223025   3.270   1.957   5.831  0.4310  0.3797 -0.3599
  537TIP3    H123026   3.197   1.894   5.833  1.0906 -0.4069 -0.2480
  537TIP3    H223027   3.253   2.015   5.905  0.2047 -0.1513  0.0156
  538TIP3   OH223028   5.975   0.371   1.994  0.3418 -0.2292  0.3851
  538TIP3    H123029   6.069   0.385   2.011  0.3790  0.5088 -0.3720
  538TIP3    H223030   5.966   0.276   1.989  0.8953 -0.3469  1.2824
  539TIP3   OH223031   3.215   3.137  11.484  0.3232  0.4505  0.5871
  539TIP3    H123032   3.152   3.065  11.484  0.4173  0.2773 -1.9291
  539TIP3    H223033   3.166   3.212  11.450  0.5465  1.3009  2.0585
  540TIP3   OH223034   6.643   3.273   5.407 -0.7339 -0.3875  0.2378
  540TIP3    H123035   6.705   3.345   5.416 -0.8950 -0.0954 -0.8631
  540TIP3    H223036   6.650   3.225   5.489 -0.7182  0.9522  1.0558
  541TIP3   OH223037   0.458   3.070   1.338  0.0527  0.8258  0.7595
  541TIP3    H123038   0.551   3.077   1.313 -0.1064  0.7409  0.1290
  541TIP3    H223039   0.458   3.013   1.414  0.4048 -0.2031  0.0140
  542TIP3   OH223040   3.354   0.728   5.552 -0.5355 -0.1328 -0.1099
  542TIP3    H123041   3.336   0.822   5.557 -1.7931 -0.4050  0.9335
  542TIP3    H223042   3.433   0.716   5.605  0.4537  0.4977 -1.3737
  543TIP3   OH223043   0.358   1.014   0.151 -0.6130 -0.5863 -0.6563
  543TIP3    H123044   0.424   1.075   0.119 -0.7469 -0.2882 -0.3697
  543TIP3    H223045   0.338   0.958   0.076 -2.4878  1.4380 -1.7892
  544TIP3   OH223046   4.657   0.513   2.960 -0.1873  0.3415 -0.3601
  544TIP3    H123047   4.726   0.529   3.024  0.4161 -1.1771 -0.5953
  544TIP3    H223048   4.587   0.470   3.010 -0.1798  0.1662 -0.4991
  545TIP3   OH223049   5.031   1.017  11.985 -0.5190 -0.0577  0.3971
  545TIP3    H123050   5.087   0.969  11.924 -0.7437  0.9969 -0.6850
  545TIP3    H223051   5.016   0.956  12.057  1.3805 -0.6523  0.3623
  546TIP3   OH223052   1.266   0.398   0.424 -0.1545 -0.7159 -0.3381
  546TIP3    H123053   1.302   0.328   0.369  0.0874 -0.1965 -0.8496
  546TIP3    H223054   1.300   0.479   0.385 -0.9210 -0.2802 -0.1204
  547TIP3   OH223055   3.711   1.719  13.578  0.0827 -0.2370  0.2898
  547TIP3    H123056   3.781   1.770  13.619  0.6728 -1.3489  0.6905
  547TIP3    H223057   3.630   1.757  13.613  0.5553 -0.7083  1.9788
  548TIP3   OH223058   2.735   0.587   5.428 -0.1473 -0.0091  0.2903
  548TIP3    H123059   2.733   0.672   5.470 -1.8915  0.6115 -0.8953
  548TIP3    H223060   2.746   0.524   5.500 -1.8716  1.0638  1.5748
  549TIP3   OH223061   1.936   0.201   0.713 -0.3706  0.4255 -0.2468
  549TIP3    H123062   1.912   0.234   0.800 -0.0702  1.5312 -0.5714
  549TIP3    H223063   1.861   0.148   0.686  1.2175 -3.8609  2.5580
  550TIP3   OH223064   6.384   3.823   6.343  0.1171  0.0086 -0.3516
  550TIP3    H123065   6.418   3.845   6.257  0.1589  0.1664 -0.2951
  550TIP3    H223066   6.443   3.867   6.404  1.1476 -1.5340 -0.1782
  551TIP3   OH223067   1.353   1.490   5.382 -0.0814  0.2031  0.2468
  551TIP3    H123068   1.420   1.489   5.314  0.0179 -0.2848  0.3478
  551TIP3    H223069   1.323   1.399   5.387 -0.5246  0.3582  0.4219
  552TIP3   OH223070   6.377   3.528   3.925  0.2026  0.6648  0.3089
  552TIP3    H123071   6.373   3.616   3.889  1.6959  1.1355  1.2122
  552TIP3    H223072   6.290   3.491   3.907 -0.1352  1.9591 -0.9259
  553TIP3   OH223073   2.760   6.141  11.851  0.3915 -0.3760  0.4432
  553TIP3    H123074   2.738   6.063  11.801 -1.0076 -0.8173  1.6774
  553TIP3    H223075   2.685   6.200  11.838  0.5725 -0.0053  1.0190
  554TIP3   OH223076   4.628   6.175   3.591 -0.1328  0.5320 -0.7570
  554TIP3    H123077   4.709   6.196   3.636 -0.3098  0.7429 -0.5311
  554TIP3    H223078   4.612   6.249   3.533  0.1780  0.1880 -1.2920
  555TIP3   OH223079   2.730   1.917   3.348  0.1074  0.7730  0.0925
  555TIP3    H123080   2.733   1.831   3.392  0.7647  0.6964 -0.0845
  555TIP3    H223081   2.724   1.980   3.420 -1.2816  0.5484  0.1911
  556TIP3   OH223082   1.528   3.138   4.391 -0.4219  0.2393 -0.0133
  556TIP3    H123083   1.468   3.178   4.328 -0.8207  1.1999  0.9368
  556TIP3    H223084   1.523   3.044   4.374 -1.8006  0.3493 -0.2998
  557TIP3   OH223085   6.275   3.599   1.594  0.5913 -0.0298  0.5248
  557TIP3    H123086   6.307   3.618   1.506 -3.4598  1.6256 -0.8161
  557TIP3    H223087   6.279   3.504   1.601  1.9519 -0.1341 -0.9829
  558TIP3   OH223088   6.537   1.759  15.168 -0.4576 -0.0358 -0.0512
  558TIP3    H123089   6.588   1.839  15.161 -1.3551  0.4786 -0.9830
  558TIP3    H223090   6.456   1.786  15.212 -1.3497 -0.1146 -1.5764
  559TIP3   OH223091   6.251   2.854   2.893 -0.4514 -0.1479  0.1676
  559TIP3    H123092   6.280   2.762   2.897 -1.7589 -0.5726  0.2373
  559TIP3    H223093   6.208   2.862   2.808 -0.9888  0.1968  0.4664
  560TIP3   OH223094   5.916   5.833   3.987 -0.5087  0.3567 -0.1273
  560TIP3    H123095   5.899   5.926   3.972  2.8150  1.3757  1.4946
  560TIP3    H223096   5.999   5.816   3.942  0.2685 -1.1219  1.7277
  561TIP3   OH223097   1.029   6.326   0.486 -0.8855 -0.1876 -0.2317
  561TIP3    H123098   1.074   6.356   0.565 -1.6358  0.1590  0.0715
  561TIP3    H223099   1.059   6.385   0.417  2.6468 -2.6591 -1.1010
  562TIP3   OH223100   5.305   2.947   3.208  0.6147  0.0636  0.2642
  562TIP3    H123101   5.340   3.019   3.155  0.5747  0.0998  0.2869
  562TIP3    H223102   5.320   2.975   3.298  1.1824 -0.2451  0.2687
  563TIP3   OH223103   1.470   0.082   1.903 -0.6570 -0.0117  0.1875
  563TIP3    H123104   1.377   0.105   1.894 -0.5396  0.1658 -0.5537
  563TIP3    H223105   1.471   0.017   1.974 -0.9639  2.3650  2.5537
  564TIP3   OH223106   1.647   4.213   1.002 -0.2191 -0.2175 -0.3317
  564TIP3    H123107   1.641   4.307   1.021 -0.3346 -0.3504  0.3052
  564TIP3    H223108   1.685   4.209   0.914 -1.6241  0.4583 -0.9963
  565TIP3   OH223109   6.706   4.288   0.489  0.5101 -0.2219 -0.0496
  565TIP3    H123110   6.682   4.216   0.431  1.1705  0.4794 -1.2310
  565TIP3    H223111   6.788   4.261   0.530  0.7121 -0.1727 -0.4248
  566TIP3   OH223112   6.456   3.629  15.688  0.1730  0.1813  0.2145
  566TIP3    H123113   6.475   3.697  15.623  1.9470  0.8194  1.2869
  566TIP3    H223114   6.437   3.551  15.637  1.8799  0.5541 -1.1169
  567TIP3   OH223115   6.080   0.753  14.469  0.5858  0.1628 -0.1340
  567TIP3    H123116   6.120   0.840  14.464 -0.1852  0.4821 -1.0548
  567TIP3    H223117   6.147   0.694  14.435  1.2392  0.3358  0.7967
  568TIP3   OH223118   1.528   4.941  15.220  0.2474  0.4840  0.1749
  568TIP3    H123119   1.513   4.870  15.282 -0.0223  0.9517  0.6496
  568TIP3    H223120   1.506   4.903  15.135 -0.3447  0.1427  0.4775
  569TIP3   OH223121   5.548   5.549  15.307 -0.0295 -0.6399  0.2585
  569TIP3    H123122   5.620   5.542  15.369  2.0365  0.1067 -1.8694
  569TIP3    H223123   5.575   5.493  15.234 -0.8031  0.8888 -1.2681
  570TIP3   OH223124   1.849   3.604   5.024  0.0428  0.4947  0.0771
  570TIP3    H123125   1.797   3.672   4.981 -0.0851  2.9200  3.6752
  570TIP3    H223126   1.928   3.596   4.970 -1.0665  1.6249 -1.8157
  571TIP3   OH223127   4.952   1.819  14.635 -0.3784 -0.7154 -0.4964
  571TIP3    H123128   5.045   1.835  14.650 -0.5397  0.6030 -0.8076
  571TIP3    H223129   4.907   1.885  14.687 -1.1000 -0.3218 -1.5814
  572TIP3   OH223130   0.811   4.948   5.557 -0.1066 -0.7364 -0.3971
  572TIP3    H123131   0.787   4.860   5.586 -1.1797 -0.5291 -0.6246
  572TIP3    H223132   0.890   4.969   5.607 -0.5921 -1.3072  0.6295
  573TIP3   OH223133   4.866   5.101  16.088  0.4097 -0.0146 -0.1866
  573TIP3    H123134   4.805   5.107  16.014  2.2163 -0.7171 -1.8266
  573TIP3    H223135   4.813   5.064  16.159 -0.7496 -2.1960 -2.0221
  574TIP3   OH223136   5.281   4.059   6.640 -0.3751 -0.7018  0.1509
  574TIP3    H123137   5.232   4.023   6.714  0.5549 -0.9022  0.6959
  574TIP3    H223138   5.277   3.991   6.573 -1.5661 -0.3543 -0.1567
  575TIP3   OH223139   1.113   1.375  14.422  0.2094  0.2154  0.1069
  575TIP3    H123140   1.141   1.314  14.354 -1.5301 -1.2525  0.6300
  575TIP3    H223141   1.049   1.432  14.379  1.2990  1.2589 -0.1957
  576TIP3   OH223142   6.139   6.370   5.058  0.1233 -0.9163  0.0863
  576TIP3    H123143   6.165   6.456   5.025  1.2392 -0.8096  1.1678
  576TIP3    H223144   6.078   6.336   4.993 -0.5270  0.7910 -0.2401
  577TIP3   OH223145   6.639   4.995  15.873 -0.1326  0.0673  0.3655
  577TIP3    H123146   6.544   4.988  15.873 -0.1094 -0.2449  0.7152
  577TIP3    H223147   6.660   5.037  15.789 -0.3240 -3.0353 -1.3875
  578TIP3   OH223148   0.861   4.680  15.659  0.0467  0.0428  0.1816
  578TIP3    H123149   0.948   4.717  15.646  0.7679 -1.1898  1.2980
  578TIP3    H223150   0.805   4.730  15.600  1.1820  2.0249  0.6826
  579TIP3   OH223151   6.165   5.564   2.353 -0.1937 -0.2082  0.1039
  579TIP3    H123152   6.161   5.470   2.373 -0.7012 -0.1692  0.2044
  579TIP3    H223153   6.101   5.576   2.283 -0.2226  0.0848  0.1814
  580TIP3   OH223154   5.559   5.698  11.264 -0.0827  0.4527 -0.2716
  580TIP3    H123155   5.654   5.700  11.274 -0.1841  2.6659  0.9077
  580TIP3    H223156   5.533   5.791  11.261 -2.2178 -0.0913 -0.3890
  581TIP3   OH223157   3.335   5.234  16.140  0.5500  0.3647  0.2834
  581TIP3    H123158   3.251   5.233  16.185  0.5468  1.0414  0.3062
  581TIP3    H223159   3.357   5.142  16.127 -0.7009  0.1671 -0.6815
  582TIP3   OH223160   6.175   5.347  14.539  0.1185 -0.5671  0.5156
  582TIP3    H123161   6.175   5.292  14.617  0.8402 -0.4798  0.5857
  582TIP3    H223162   6.181   5.286  14.466  2.6116 -0.5793  0.6393
  583TIP3   OH223163   2.414   5.484  15.873  0.0986  0.0071  0.0050
  583TIP3    H123164   2.489   5.544  15.875 -0.3877  0.6164  0.6230
  583TIP3    H223165   2.380   5.485  15.962 -1.1852  0.4440 -0.4608
  584TIP3   OH223166   1.017   4.627  14.825 -1.0499  0.3925 -0.1136
  584TIP3    H123167   0.932   4.583  14.818 -1.1150  0.1042  1.8120
  584TIP3    H223168   1.072   4.582  14.761 -1.0651 -2.7674  1.8511
  585TIP3   OH223169   6.107   5.555  16.291 -0.0161  0.2407  0.1172
  585TIP3    H123170   6.116   5.632  16.348 -2.5129  0.7563 -0.0745
  585TIP3    H223171   6.128   5.481  16.349 -0.5799  0.8759  1.1744
  586TIP3   OH223172   1.558   4.513   3.223  0.6801  0.3269  0.1134
  586TIP3    H123173   1.474   4.531   3.181  0.8964 -1.2521 -1.0655
  586TIP3    H223174   1.534   4.469   3.305  0.3425  0.3775  0.0452
  587TIP3   OH223175   6.699   2.843  12.289  0.3482 -0.0171 -0.3679
  587TIP3    H123176   6.678   2.774  12.226 -0.5996 -0.6594  0.6323
  587TIP3    H223177   6.648   2.822  12.367  2.5717 -0.0662  1.1790
  588TIP3   OH223178   1.404   0.903  11.871  0.3432 -0.1188 -0.5682
  588TIP3    H123179   1.315   0.876  11.847  0.4497  0.2021 -1.3354
  588TIP3    H223180   1.397   0.997  11.885  0.8506  0.1429 -1.9937
  589TIP3   OH223181   3.593   0.548  15.509  0.2105  0.1314 -0.1616
  589TIP3    H123182   3.645   0.549  15.429 -1.7476 -0.7564 -1.5310
  589TIP3    H223183   3.502   0.552  15.478 -0.5706  2.3439  2.1398
  590TIP3   OH223184   3.738   2.039   5.566 -0.4677 -0.3066 -0.7369
  590TIP3    H123185   3.747   1.947   5.591  1.3651  0.7302  3.2889
  590TIP3    H223186   3.646   2.049   5.541 -1.7242 -2.5149  2.4207
  591TIP3   OH223187   3.484   5.767  14.488 -0.0001  0.1846 -0.0375
  591TIP3    H123188   3.465   5.835  14.552 -1.2585 -0.0053 -0.1811
  591TIP3    H223189   3.554   5.715  14.527  0.7850  1.3804  0.1963
  592TIP3   OH223190   2.227   4.587   4.903  0.2341  0.1863  0.6241
  592TIP3    H123191   2.308   4.636   4.889 -0.4612  1.3370  0.4262
  592TIP3    H223192   2.228   4.519   4.836  0.7132  0.6244  0.1768
  593TIP3   OH223193   6.780   5.029  12.899 -0.3191  0.8738 -0.0781
  593TIP3    H123194   6.860   4.977  12.898  0.0510  1.4380 -1.3427
  593TIP3    H223195   6.728   4.991  12.969  1.6196  1.3610  1.7384
  594TIP3   OH223196   5.650   2.744   3.983  0.3377 -0.1933 -0.1665
  594TIP3    H123197   5.709   2.708   3.917 -0.4743 -0.0868 -0.9591
  594TIP3    H223198   5.696   2.822   4.015  2.1224 -1.8464  1.5849
  595TIP3   OH223199   0.464   6.171   3.200  0.3751  0.2199 -0.0650
  595TIP3    H123200   0.496   6.214   3.121 -0.5928  0.5259 -0.2902
  595TIP3    H223201   0.401   6.232   3.238 -0.0817 -0.4526  0.2847
  596TIP3   OH223202   6.349   0.144   1.455  0.2832 -0.2977 -0.5910
  596TIP3    H123203   6.288   0.182   1.393 -1.7202 -0.4643  1.1722
  596TIP3    H223204   6.305   0.066   1.488  1.6274 -0.6550  0.4611
  597TIP3   OH223205   5.597   4.669  14.521  0.2780  0.1883  0.2492
  597TIP3    H123206   5.507   4.695  14.539 -0.1923 -1.0880 -0.1264
  597TIP3    H223207   5.651   4.740  14.556 -0.7276 -0.4498  3.3680
  598TIP3   OH223208   3.331   6.187  13.922  0.4815  0.1547 -0.5161
  598TIP3    H123209   3.304   6.122  13.987 -1.5039 -0.9428 -2.3230
  598TIP3    H223210   3.362   6.135  13.848  2.1188  1.3727 -0.7457
  599TIP3   OH223211   2.600   2.951   0.242  0.4253 -0.3634 -0.0083
  599TIP3    H123212   2.595   2.860   0.274 -0.4135 -0.1395  0.5384
  599TIP3    H223213   2.526   2.959   0.182 -1.6296  0.8710  2.4561
  600TIP3   OH223214   5.395   0.840   1.744 -0.2883  0.4552  0.0488
  600TIP3    H123215   5.443   0.757   1.747 -0.2459  0.4952  0.6731
  600TIP3    H223216   5.436   0.894   1.812 -1.1729  0.5073  0.5613
  601TIP3   OH223217   4.407   2.607   3.472  0.1990  0.1056  0.1533
  601TIP3    H123218   4.460   2.529   3.454 -0.1310 -0.1614  0.3444
  601TIP3    H223219   4.352   2.583   3.546  1.3921  1.1369  1.4288
  602TIP3   OH223220   3.618   6.820  13.371 -0.3945 -0.3613  0.3198
  602TIP3    H123221   3.536   6.771  13.361 -1.2300  1.0267 -0.0060
  602TIP3    H223222   3.672   6.792  13.297 -0.7366 -0.9877  0.3032
  603TIP3   OH223223   3.389   5.949   3.335  0.7675  0.3700 -0.1411
  603TIP3    H123224   3.314   5.930   3.278  0.5695  1.1507 -0.1523
  603TIP3    H223225   3.350   5.961   3.421  0.9888 -0.1132  0.0275
  604TIP3   OH223226   0.340   6.743  11.068  0.1244  0.2774  0.2976
  604TIP3    H123227   0.373   6.670  11.120  0.6826 -0.2573 -0.7787
  604TIP3    H223228   0.244   6.735  11.074  0.1363 -1.3488 -0.8261
  605TIP3   OH223229   2.872   5.489   1.985  0.1086 -0.5757 -0.3977
  605TIP3    H123230   2.963   5.513   1.964  0.3724 -1.3995 -0.2066
  605TIP3    H223231   2.820   5.538   1.921  0.6507  0.2788 -0.2062
  606TIP3   OH223232   1.404   2.284  14.588 -0.3287 -0.4932  0.1355
  606TIP3    H123233   1.325   2.338  14.596 -0.6464 -1.0154  0.5947
  606TIP3    H223234   1.451   2.300  14.670  0.1264 -0.0608 -0.2048
  607TIP3   OH223235   5.293   5.772  14.767 -0.4805  0.1606 -0.5265
  607TIP3    H123236   5.295   5.794  14.860  0.7627 -0.1074 -0.4721
  607TIP3    H223237   5.212   5.721  14.756 -1.0362  0.8677  0.2373
  608TIP3   OH223238   4.563   6.749   1.421 -0.1388 -0.0078 -0.3341
  608TIP3    H123239   4.590   6.668   1.377 -2.0162 -0.5034 -0.6701
  608TIP3    H223240   4.610   6.748   1.505  0.4438 -1.0519 -0.6565
  609TIP3   OH223241   4.759   4.385  12.134 -0.1116  0.1020 -0.0490
  609TIP3    H123242   4.835   4.351  12.086 -0.2283  1.0455 -0.9439
  609TIP3    H223243   4.707   4.431  12.067 -2.0109 -1.3778  0.3236
  610TIP3   OH223244   1.371   0.001  13.228 -0.5100  0.0937  0.2085
  610TIP3    H123245   1.368  -0.068  13.294  2.0853 -0.5086 -0.2068
  610TIP3    H223246   1.329  -0.037  13.151  1.9463 -1.5846 -0.4049
  611TIP3   OH223247   4.793   5.857  14.678  0.2352 -0.0344 -0.6787
  611TIP3    H123248   4.787   5.841  14.772 -2.5942  1.1533 -0.5719
  611TIP3    H223249   4.793   5.952  14.670  2.7848 -0.0470 -1.8543
  612TIP3   OH223250   0.838   1.099  12.711 -0.8542  0.3081 -0.3738
  612TIP3    H123251   0.875   1.031  12.654  3.3539  1.8958  0.0551
  612TIP3    H223252   0.822   1.054  12.794 -0.3819 -0.6513 -0.7763
  613TIP3   OH223253   6.132   1.781   0.029  0.6775  0.3543 -0.2806
  613TIP3    H123254   6.183   1.772  -0.052 -0.2206 -0.3845 -0.7813
  613TIP3    H223255   6.198   1.786   0.098  1.4548  0.5819 -1.0107
  614TIP3   OH223256   1.060   4.747  13.421 -0.3155  0.1368  0.5923
  614TIP3    H123257   1.077   4.790  13.505 -0.9157 -0.3434  0.9676
  614TIP3    H223258   0.987   4.797  13.384 -0.6169 -0.1834  0.7528
  615TIP3   OH223259   0.468   3.190   2.174  0.4358 -0.7040  0.0578
  615TIP3    H123260   0.392   3.224   2.222  1.2896 -0.0920  1.0312
  615TIP3    H223261   0.469   3.097   2.194  0.0536 -0.6781  0.2060
  616TIP3   OH223262   2.955   6.227  11.207 -0.3130 -0.1421 -0.3264
  616TIP3    H123263   3.000   6.297  11.256 -0.2599 -0.1743 -0.3297
  616TIP3    H223264   2.883   6.272  11.162 -0.5587 -0.1639  0.0374
  617TIP3   OH223265   5.432   2.685   1.199  0.3335 -0.2615 -0.0279
  617TIP3    H123266   5.426   2.590   1.209 -0.2883  0.0095  3.2950
  617TIP3    H223267   5.342   2.713   1.182  0.2682 -0.1766  0.4382
  618TIP3   OH223268   4.144   5.319  12.613 -0.2400  0.3176 -0.2897
  618TIP3    H123269   4.192   5.336  12.694 -2.2167  1.5764  0.6715
  618TIP3    H223270   4.156   5.225  12.597  2.2809  0.5174  0.0138
  619TIP3   OH223271   5.734   2.686   5.619 -0.4482 -0.3950 -0.6452
  619TIP3    H123272   5.824   2.718   5.615 -0.5423  0.1835  0.9199
  619TIP3    H223273   5.736   2.601   5.574  1.1588 -0.9393  0.3556
  620TIP3   OH223274   3.075   5.485   1.507  0.0276  0.0024  0.0460
  620TIP3    H123275   3.008   5.542   1.470 -0.4800  0.6546  1.8580
  620TIP3    H223276   3.132   5.463   1.433 -1.3334  0.6320 -1.2321
  621TIP3   OH223277   2.569   5.156  11.912  0.1319 -0.5313  0.0264
  621TIP3    H123278   2.564   5.245  11.876 -3.0160 -0.7945 -0.4480
  621TIP3    H223279   2.598   5.169  12.003 -0.3677  1.0106 -0.0063
  622TIP3   OH223280   1.284   1.531   0.340  0.0570 -0.1610  0.0804
  622TIP3    H123281   1.227   1.605   0.321 -1.4881 -0.8629  1.7843
  622TIP3    H223282   1.235   1.477   0.401  1.7454 -1.8563  0.0396
  623TIP3   OH223283   6.557   0.432  15.195 -0.4276 -0.1206  0.8093
  623TIP3    H123284   6.507   0.393  15.124  1.6276 -1.1904 -0.1644
  623TIP3    H223285   6.559   0.525  15.175 -0.5342 -0.3088 -0.1446
  624TIP3   OH223286   1.526   6.446  14.834 -0.0209 -0.1895  0.5539
  624TIP3    H123287   1.451   6.499  14.861  1.8156  2.7340  0.3490
  624TIP3    H223288   1.516   6.439  14.739 -0.7494 -1.0843  0.6776
  625TIP3   OH223289   2.532   0.243  16.394  0.7268  0.2015  0.4093
  625TIP3    H123290   2.531   0.333  16.364  1.9428 -0.1809 -0.9384
  625TIP3    H223291   2.533   0.191  16.313  0.4090 -0.9979  1.1516
  626TIP3   OH223292   6.291   2.910  12.627 -0.0014 -0.0425 -0.0957
  626TIP3    H123293   6.243   2.828  12.619 -1.1555  0.6115 -0.1146
  626TIP3    H223294   6.340   2.902  12.709  0.5242 -1.0512 -0.4989
  627TIP3   OH223295   4.211   4.807  13.061 -0.2231  0.1390 -0.5530
  627TIP3    H123296   4.222   4.744  13.132  1.0116  0.9533  0.0105
  627TIP3    H223297   4.191   4.890  13.105 -1.7637  0.2016 -1.2792
  628TIP3   OH223298   0.962   3.799   5.058 -0.2838 -0.0895 -0.1467
  628TIP3    H123299   0.982   3.725   5.002  0.8881  0.8914 -1.0778
  628TIP3    H223300   0.946   3.871   4.998 -1.8754  0.3381  0.7249
  629TIP3   OH223301   1.942   1.436   1.775 -0.5426 -0.0791  0.3567
  629TIP3    H123302   2.027   1.462   1.741 -0.3865  0.8332  1.3691
  629TIP3    H223303   1.881   1.451   1.703 -0.0647  0.7042  0.1051
  630TIP3   OH223304   6.727   5.863   0.551 -0.1107 -0.3467 -0.1366
  630TIP3    H123305   6.801   5.876   0.610 -0.5819 -0.2635  0.4393
  630TIP3    H223306   6.704   5.951   0.522 -0.2196 -0.3384 -0.0256
  631TIP3   OH223307   1.638   1.128   4.142  0.0109 -0.2890  0.8294
  631TIP3    H123308   1.716   1.158   4.190  1.4107 -0.6340 -1.1012
  631TIP3    H223309   1.655   1.035   4.126 -1.0027 -0.4664  0.7255
  632TIP3   OH223310   1.426   6.110   6.146 -0.3012  0.5070 -0.4704
  632TIP3    H123311   1.441   6.041   6.082 -1.1414  2.2262 -2.6398
  632TIP3    H223312   1.508   6.115   6.195  0.0990 -1.3576 -0.8606
  633TIP3   OH223313   2.969   2.483  14.296 -0.5472  0.3063 -0.0953
  633TIP3    H123314   3.024   2.469  14.373 -0.8704 -0.2766  0.0352
  633TIP3    H223315   2.973   2.400  14.248 -1.9226 -0.0089  0.3090
  634TIP3   OH223316   2.331   0.473   2.941  0.6305 -0.3600 -0.9600
  634TIP3    H123317   2.241   0.505   2.936  0.9330  0.7776  0.0733
  634TIP3    H223318   2.344   0.454   3.034  1.2657 -1.1219 -1.1937
  635TIP3   OH223319   1.320   4.984  14.074  1.1717 -0.2201  0.7546
  635TIP3    H123320   1.238   5.000  14.119  0.1430  0.5175 -1.2497
  635TIP3    H223321   1.338   4.891  14.090 -0.6207 -0.6758  0.3711
  636TIP3   OH223322   6.662   4.326   3.427 -0.9574  0.0889  0.1612
  636TIP3    H123323   6.611   4.377   3.365  0.6659  1.1339 -0.3793
  636TIP3    H223324   6.684   4.246   3.379 -1.4602 -0.0479  0.1502
  637TIP3   OH223325   6.813   6.207  14.051  0.3822 -0.0428  0.8523
  637TIP3    H123326   6.827   6.195  13.957 -1.5085  1.0549  0.3891
  637TIP3    H223327   6.837   6.123  14.089  1.1954 -0.5079 -0.6018
  638TIP3   OH223328   3.646   6.381  13.040 -0.1470 -0.1633 -0.1189
  638TIP3    H123329   3.716   6.429  12.995  1.9455 -1.4255  1.6070
  638TIP3    H223330   3.600   6.448  13.090  0.8046  0.4931 -0.0962
  639TIP3   OH223331   5.507   4.526   5.157 -0.2674  0.1290 -0.7845
  639TIP3    H123332   5.514   4.617   5.183 -2.2116 -0.0064  0.4177
  639TIP3    H223333   5.545   4.477   5.230 -1.0868 -0.0768 -0.4851
  640TIP3   OH223334   0.682   4.640  14.176 -0.5244  0.5708 -0.1136
  640TIP3    H123335   0.594   4.625  14.142 -0.2239 -0.7269 -0.3704
  640TIP3    H223336   0.669   4.691  14.256 -1.3660  2.1528 -1.2061
  641TIP3   OH223337   5.012   0.171   2.508  0.3715  0.2046 -0.2292
  641TIP3    H123338   4.977   0.084   2.526 -2.5354  1.2180 -0.4698
  641TIP3    H223339   4.992   0.186   2.415 -0.8326  1.7591  0.2314
  642TIP3   OH223340   1.104   1.544   3.098 -0.6753  0.3022  0.6011
  642TIP3    H123341   1.112   1.624   3.047 -0.0099 -0.3422 -0.3458
  642TIP3    H223342   1.193   1.527   3.130 -1.1208  0.8312  2.2310
  643TIP3   OH223343   0.401   5.383  10.965  0.3122 -0.3958  0.2807
  643TIP3    H123344   0.319   5.388  11.015  0.8475 -1.0691  1.2588
  643TIP3    H223345   0.379   5.331  10.888  0.0172 -1.3170  0.9676
  644TIP3   OH223346   0.551   4.521  11.632 -0.3096 -0.2766 -0.0045
  644TIP3    H123347   0.493   4.536  11.706  1.7401  0.1770  1.5983
  644TIP3    H223348   0.553   4.426  11.621  0.6283 -0.4892  1.6599
  645TIP3   OH223349   5.887   1.212   5.434  0.2344  0.1938  0.2944
  645TIP3    H123350   5.827   1.246   5.500  0.5061  0.5074  0.3804
  645TIP3    H223351   5.947   1.155   5.484  0.4047  0.3862  0.3101
  646TIP3   OH223352   2.863   2.127   3.182  0.1155  0.0929 -0.2427
  646TIP3    H123353   2.833   2.055   3.237 -0.2654  1.8231  1.9574
  646TIP3    H223354   2.946   2.095   3.145 -1.0579 -2.2203 -1.0848
  647TIP3   OH223355   1.288   4.715  11.116  0.0879 -0.8637  0.4133
  647TIP3    H123356   1.275   4.653  11.044  2.0527  0.7793 -1.4755
  647TIP3    H223357   1.245   4.795  11.086 -0.3377 -0.5800  1.7447
  648TIP3   OH223358   6.061   6.544   6.067 -0.0534  0.1874  0.5854
  648TIP3    H123359   6.124   6.573   6.134 -1.3478  1.6447  1.2265
  648TIP3    H223360   6.055   6.619   6.007 -0.3880 -0.3517 -0.0605
  649TIP3   OH223361   6.382   4.803  16.877  0.2768  0.5562 -0.4436
  649TIP3    H123362   6.447   4.854  16.924 -0.0336  0.6023 -0.0566
  649TIP3    H223363   6.340   4.866  16.818 -1.2280  1.1704  1.1823
  650TIP3   OH223364   4.619   0.866   2.004 -0.7540 -0.1340 -0.2138
  650TIP3    H123365   4.687   0.880   2.070 -1.2947 -2.9478  1.0933
  650TIP3    H223366   4.579   0.952   1.993  2.6765  1.5743 -0.7585
  651TIP3   OH223367   1.808   5.596   3.953 -0.2134 -0.2081  0.5829
  651TIP3    H123368   1.802   5.570   4.045 -0.4298  0.7970  0.8637
  651TIP3    H223369   1.856   5.524   3.912 -0.0660 -0.6526  1.4853
  652TIP3   OH223370   0.453   4.253   0.900 -0.3770  0.6372 -0.2595
  652TIP3    H123371   0.405   4.295   0.829 -0.1054  0.7395 -0.3836
  652TIP3    H223372   0.488   4.172   0.863 -1.2365  0.0949  0.0924
  653TIP3   OH223373   1.482   3.209  14.520 -0.7496 -0.0885 -0.7541
  653TIP3    H123374   1.523   3.187  14.436 -0.8356  1.9714 -1.3794
  653TIP3    H223375   1.511   3.140  14.580  0.9990 -0.4502 -1.9673
  654TIP3   OH223376   5.065   3.080  12.107 -0.4682 -0.1851  0.2767
  654TIP3    H123377   4.998   3.080  12.039 -1.7608 -1.7285  1.4874
  654TIP3    H223378   5.114   2.999  12.093  2.0949  1.4866 -1.3711
  655TIP3   OH223379   0.776   2.273  11.466 -0.5065  0.0174  0.3539
  655TIP3    H123380   0.783   2.368  11.456  0.5990  0.0625  1.3954
  655TIP3    H223381   0.860   2.238  11.435 -1.1282 -0.6852 -0.6016
  656TIP3   OH223382   5.259   0.882  11.515 -0.0887  0.0087  0.3213
  656TIP3    H123383   5.251   0.957  11.455 -2.1863 -0.4435 -0.0511
  656TIP3    H223384   5.269   0.806  11.458  2.1293 -0.0639  0.7006
  657TIP3   OH223385   6.696   6.586   5.548  0.3281 -1.0474  0.3993
  657TIP3    H123386   6.634   6.625   5.610  0.6755 -1.0700  0.7701
  657TIP3    H223387   6.782   6.609   5.584  0.5620  0.4681 -1.0368
  658TIP3   OH223388   6.669   1.321   2.711 -0.4753 -0.4874 -0.2541
  658TIP3    H123389   6.696   1.394   2.655  0.3618  0.9663  1.8898
  658TIP3    H223390   6.598   1.279   2.664 -0.7981  1.5642 -1.7157
  659TIP3   OH223391   3.102   2.758  10.783 -0.0382  0.2282  0.4727
  659TIP3    H123392   3.042   2.831  10.764 -0.7218  0.0806  1.9693
  659TIP3    H223393   3.064   2.715  10.859  3.4083  1.8112  3.3566
  660TIP3   OH223394   2.112   0.414   0.736  0.1354  0.5141 -0.1326
  660TIP3    H123395   2.170   0.401   0.811 -0.9350 -1.0707  0.4681
  660TIP3    H223396   2.063   0.333   0.729 -0.8232  1.1825 -1.6669
  661TIP3   OH223397   2.904   6.184   2.161  0.2475 -0.1757 -0.6027
  661TIP3    H123398   2.903   6.088   2.153 -0.2709 -0.2993  0.8319
  661TIP3    H223399   2.918   6.200   2.254  5.0224  1.1614 -1.2792
  662TIP3   OH223400   1.496   0.740   5.017 -0.3537 -0.5669  0.7832
  662TIP3    H123401   1.452   0.822   5.036 -1.8251 -1.1235 -0.0774
  662TIP3    H223402   1.532   0.712   5.101  1.8320  1.8365  0.7755
  663TIP3   OH223403   3.590   2.910   4.776 -0.2486  0.0023 -0.3661
  663TIP3    H123404   3.586   2.997   4.735 -1.1798  0.6744  1.0551
  663TIP3    H223405   3.590   2.928   4.870 -1.4837 -1.5522 -0.0283
  664TIP3   OH223406   6.102   3.903   4.693  0.4160 -0.0922  0.0478
  664TIP3    H123407   6.067   3.819   4.720 -1.3896  0.0822 -1.5313
  664TIP3    H223408   6.056   3.967   4.747  0.7868 -0.0188  0.2868
  665TIP3   OH223409   0.403   4.620  14.344  0.5365 -0.0576 -0.5607
  665TIP3    H123410   0.382   4.543  14.398  2.0240 -0.9205 -1.1505
  665TIP3    H223411   0.363   4.601  14.259 -0.9449  0.8463 -0.1059
  666TIP3   OH223412   3.147   6.807  13.703  0.0749 -0.6227 -0.3158
  666TIP3    H123413   3.141   6.721  13.745  1.8189 -0.0260  1.2618
  666TIP3    H223414   3.237   6.812  13.671  0.2726  0.9455  0.4115
  667TIP3   OH223415   0.512   1.186   1.505  0.4240 -0.1813 -0.3064
  667TIP3    H123416   0.494   1.190   1.411 -0.2318 -1.0976 -0.2336
  667TIP3    H223417   0.486   1.272   1.538 -0.6316 -0.3106 -0.7597
  668TIP3   OH223418   5.882   1.869   2.718  0.4060 -0.0722  0.1835
  668TIP3    H123419   5.911   1.922   2.644 -1.1764 -0.1857 -0.5703
  668TIP3    H223420   5.836   1.931   2.775  0.6031 -0.2047  0.4893
  669TIP3   OH223421   2.248   1.635  16.902 -0.0258  0.8549  0.4669
  669TIP3    H123422   2.208   1.554  16.934 -1.6883  0.2007 -2.8106
  669TIP3    H223423   2.331   1.607  16.863 -0.3964  0.7876 -0.2786
  670TIP3   OH223424   2.503   4.590   4.359 -0.0372  0.1574 -0.2883
  670TIP3    H123425   2.550   4.672   4.375  0.8774 -0.2887 -0.6275
  670TIP3    H223426   2.486   4.591   4.265  0.4278 -0.2673 -0.3818
  671TIP3   OH223427   3.952   4.034   0.291 -0.2382 -0.0024 -0.7830
  671TIP3    H123428   3.975   4.102   0.355 -0.0261  0.4740 -1.3511
  671TIP3    H223429   3.963   4.077   0.206  0.3665 -0.8974 -1.1688
  672TIP3   OH223430   5.099   5.327  11.455 -0.0674  0.0725 -0.1874
  672TIP3    H123431   5.067   5.271  11.526  2.7729 -1.5740 -0.0487
  672TIP3    H223432   5.078   5.279  11.375  0.4136 -0.1073 -0.2052
  673TIP3   OH223433   5.598   3.778  13.057  0.3464 -0.1298 -0.4900
  673TIP3    H123434   5.687   3.757  13.028  1.0113 -0.5611  1.6808
  673TIP3    H223435   5.548   3.698  13.044  0.5512 -0.2225 -0.7092
  674TIP3   OH223436   2.190   0.564  15.239  0.4814  0.0613 -0.8839
  674TIP3    H123437   2.258   0.537  15.301 -1.0189 -0.4349  0.6235
  674TIP3    H223438   2.236   0.619  15.176  2.0289  0.9036  0.8857
  675TIP3   OH223439   5.259   3.334   3.573 -0.2774  0.1917  0.1034
  675TIP3    H123440   5.342   3.333   3.524 -0.9433 -0.3004 -1.0391
  675TIP3    H223441   5.286   3.323   3.664  0.8644 -1.2973 -0.3557
  676TIP3   OH223442   2.460   5.064   6.467 -0.1950 -0.2892  0.5158
  676TIP3    H123443   2.442   5.114   6.387  0.6159 -0.9449 -0.0946
  676TIP3    H223444   2.467   4.974   6.437  0.5794 -0.4843  1.2550
  677TIP3   OH223445   1.857   6.132  15.719 -0.3344  0.6174 -0.4338
  677TIP3    H123446   1.819   6.100  15.801 -0.9017 -0.3201 -1.0358
  677TIP3    H223447   1.937   6.176  15.745  0.3904 -1.1309  0.4862
  678TIP3   OH223448   3.643   6.543   4.654  0.5247 -0.1286  0.3935
  678TIP3    H123449   3.702   6.594   4.598  0.7711  0.1708  0.9255
  678TIP3    H223450   3.615   6.603   4.723 -0.7786 -0.1277 -0.1008
  679TIP3   OH223451   4.335   5.406   4.350 -0.1693 -0.4238 -0.2011
  679TIP3    H123452   4.258   5.430   4.299 -2.3568  1.7358  3.5993
  679TIP3    H223453   4.308   5.328   4.399  1.0897 -1.2052 -0.7067
  680TIP3   OH223454   0.515   0.980  12.697 -0.1272 -0.0765  0.1617
  680TIP3    H123455   0.504   1.016  12.785 -0.9777 -1.8966  0.8364
  680TIP3    H223456   0.560   1.050  12.648  0.7888  0.7750  2.1361
  681TIP3   OH223457   4.169   6.628   1.815 -0.0362  0.1043 -0.8587
  681TIP3    H123458   4.202   6.538   1.819 -0.0194  0.1483  0.2828
  681TIP3    H223459   4.240   6.681   1.851 -0.5914  0.4157 -0.2139
  682TIP3   OH223460   0.797   4.855  10.817 -0.0876  0.8142 -0.2693
  682TIP3    H123461   0.813   4.811  10.900  0.4554  1.8877  0.2065
  682TIP3    H223462   0.735   4.798  10.771 -0.6589  0.3897  1.0051
  683TIP3   OH223463   4.254   4.840   6.163 -0.7171 -0.0604 -0.5807
  683TIP3    H123464   4.328   4.778   6.163 -0.4038  0.3013 -1.3932
  683TIP3    H223465   4.218   4.833   6.251 -0.7241 -1.4407 -0.6667
  684TIP3   OH223466   3.019   1.667  15.761 -0.3410 -0.2419  0.4722
  684TIP3    H123467   3.049   1.626  15.680 -0.3691  1.7669 -0.6180
  684TIP3    H223468   2.936   1.625  15.780  0.4939 -1.9933  0.4752
  685TIP3   OH223469   3.310   5.449  13.182 -0.5646  0.0008  0.1437
  685TIP3    H123470   3.290   5.363  13.145  1.3610 -0.7305  0.6764
  685TIP3    H223471   3.277   5.511  13.117 -1.2424 -1.1468 -0.6537
  686TIP3   OH223472   5.249   3.556   2.489 -0.5605  0.3122  0.4758
  686TIP3    H123473   5.199   3.474   2.492 -0.1829  0.0858  3.1549
  686TIP3    H223474   5.189   3.619   2.450 -1.3574 -0.9138 -0.3667
  687TIP3   OH223475   3.034   3.065   4.573  0.1414  0.1679  0.1699
  687TIP3    H123476   2.978   3.143   4.574 -0.2834 -0.1358  0.9243
  687TIP3    H223477   3.119   3.097   4.603  0.3079  0.5688 -0.6784
  688TIP3   OH223478   4.348   3.463   4.030 -0.5763 -0.1396 -0.3321
  688TIP3    H123479   4.280   3.414   3.984 -0.5318  0.8108 -1.4641
  688TIP3    H223480   4.319   3.465   4.121 -1.1532 -1.2713 -0.4770
  689TIP3   OH223481   3.082   4.276  11.593 -0.6503  0.8306  0.2155
  689TIP3    H123482   3.040   4.222  11.660 -1.5929 -2.2589 -2.6283
  689TIP3    H223483   3.156   4.317  11.639  0.0315 -2.7479  2.7125
  690TIP3   OH223484   3.071   1.962  13.039 -0.2648 -0.1232 -0.3176
  690TIP3    H123485   3.092   1.937  13.129 -0.3497  1.0981  0.0670
  690TIP3    H223486   3.129   2.036  13.021 -1.4674  0.7749 -0.6285
  691TIP3   OH223487   5.110   0.427   4.097 -0.6816  0.1531  0.3581
  691TIP3    H123488   5.192   0.449   4.141 -0.1756  1.7525 -1.2685
  691TIP3    H223489   5.047   0.490   4.131 -0.4334  0.9967 -0.6766
  692TIP3   OH223490   5.956   1.291  10.391  0.0337  0.3234  0.3555
  692TIP3    H123491   5.980   1.218  10.334 -3.2452  0.3291 -1.2902
  692TIP3    H223492   6.006   1.365  10.357  0.5615 -0.3653 -0.4243
  693TIP3   OH223493   6.050   1.977  15.158  0.7894  0.0388  0.0164
  693TIP3    H123494   5.986   1.963  15.089  2.4708 -1.0663 -1.3989
  693TIP3    H223495   6.095   2.057  15.133  0.9318  0.0210  0.2112
  694TIP3   OH223496   3.949   6.218   5.543 -0.4724 -0.2473  0.1332
  694TIP3    H123497   3.876   6.205   5.604 -1.6772  2.4121 -0.5960
  694TIP3    H223498   3.914   6.190   5.458 -1.6744  3.2265 -0.6854
  695TIP3   OH223499   6.152   3.949   0.734  0.4278 -0.6572 -0.0773
  695TIP3    H123500   6.127   3.911   0.650  1.3954 -0.9539 -0.2387
  695TIP3    H223501   6.070   3.950   0.785 -0.3509  0.2450 -1.2718
  696TIP3   OH223502   1.389   1.513   3.046  0.0033  0.2770 -0.4581
  696TIP3    H123503   1.371   1.502   2.953  1.1823  0.1191 -0.6839
  696TIP3    H223504   1.404   1.424   3.078 -4.0516 -0.2028  0.7552
  697TIP3   OH223505   1.515   2.362  14.841  0.3179 -0.1181  0.0075
  697TIP3    H123506   1.610   2.370  14.854  0.0216  0.6668  2.1161
  697TIP3    H223507   1.489   2.291  14.900 -0.2602 -1.3282 -1.6264
  698TIP3   OH223508   6.479   1.000   5.820  0.3917  0.3072 -0.0011
  698TIP3    H123509   6.568   0.979   5.848  1.7399  3.7932 -1.0732
  698TIP3    H223510   6.463   0.942   5.745  2.1954  0.3214 -0.4369
  699TIP3   OH223511   0.403   5.296   1.860 -0.0300  0.7751 -0.4976
  699TIP3    H123512   0.413   5.386   1.829  2.3565  1.5566  2.0834
  699TIP3    H223513   0.387   5.305   1.954  1.2977 -1.4668  0.0160
  700TIP3   OH223514   0.762   6.508   1.867  0.4259  0.6086  0.2698
  700TIP3    H123515   0.801   6.569   1.804  0.9437  0.2509  0.2323
  700TIP3    H223516   0.761   6.556   1.950 -0.8530  1.3112 -0.1355
  701TIP3   OH223517   3.352   1.219  12.229  0.5273 -0.4231 -0.3796
  701TIP3    H123518   3.419   1.243  12.293  0.1928  0.3568 -0.3057
  701TIP3    H223519   3.383   1.137  12.191  1.0994 -0.5101  0.2538
  702TIP3   OH223520   1.489   5.833   4.473 -0.0634 -0.3302 -0.1882
  702TIP3    H123521   1.552   5.785   4.526 -0.2498  0.8290  1.1401
  702TIP3    H223522   1.456   5.768   4.410  1.5604 -1.2446 -0.1407
  703TIP3   OH223523   5.945   3.656  16.523 -0.0774 -0.3731 -0.1743
  703TIP3    H123524   5.978   3.724  16.581 -0.5894 -0.0453 -0.2624
  703TIP3    H223525   5.951   3.694  16.435 -1.1765 -0.0923 -0.1459
  704TIP3   OH223526   3.027   1.613   4.204  0.2318  0.1427 -0.3592
  704TIP3    H123527   2.934   1.592   4.215  0.1880  1.0202  1.1010
  704TIP3    H223528   3.073   1.547   4.256  0.3967  0.2275 -0.3966
  705TIP3   OH223529   5.268   5.380  14.215 -0.2400  0.7456  0.8574
  705TIP3    H123530   5.229   5.455  14.260 -2.0054  1.6154 -1.8328
  705TIP3    H223531   5.245   5.394  14.123 -1.9779 -3.8232  0.3592
  706TIP3   OH223532   5.947   4.927   2.765 -0.0165  0.1854 -0.0559
  706TIP3    H123533   5.958   4.906   2.857  0.6061 -0.2810 -0.2318
  706TIP3    H223534   5.988   4.854   2.718  1.1242  1.1809 -0.6878
  707TIP3   OH223535   1.180   3.797  15.215  0.1859 -0.3025 -0.4810
  707TIP3    H123536   1.266   3.756  15.214 -0.4825 -1.7580 -0.5949
  707TIP3    H223537   1.148   3.785  15.304  0.9717  2.2370  0.2357
  708TIP3   OH223538   2.573   6.763  10.703 -0.3887  0.6728 -0.3571
  708TIP3    H123539   2.623   6.698  10.653  0.0308  1.4760 -0.9973
  708TIP3    H223540   2.580   6.844  10.652  0.2825  1.5934  1.1158
  709TIP3   OH223541   3.317   5.046  16.436 -0.4141 -0.4263  0.2834
  709TIP3    H123542   3.365   4.969  16.406 -0.0079 -0.2304  0.4120
  709TIP3    H223543   3.360   5.070  16.518 -1.1370 -0.6138  0.7227
  710TIP3   OH223544   6.259   3.582  11.867  0.0303  0.3550 -0.4911
  710TIP3    H123545   6.275   3.550  11.778  2.5037 -0.0313  0.0421
  710TIP3    H223546   6.170   3.553  11.886  0.0682 -1.0739 -2.1985
  711TIP3   OH223547   6.459   4.827   1.960 -0.6562 -0.0107 -0.5382
  711TIP3    H123548   6.368   4.802   1.981 -0.4487 -0.2959  0.0419
  711TIP3    H223549   6.451   4.878   1.880 -1.4081  0.5337 -0.1334
  712TIP3   OH223550   2.879   0.272   1.596 -1.0142 -0.0732  0.7848
  712TIP3    H123551   2.816   0.307   1.533  0.2980  1.4720  0.2804
  712TIP3    H223552   2.887   0.340   1.663  0.2154 -0.1852  0.7632
  713TIP3   OH223553   4.135   2.165  16.340 -0.3125  0.1149 -0.3391
  713TIP3    H123554   4.185   2.086  16.317 -1.5028 -0.7304 -0.1019
  713TIP3    H223555   4.155   2.180  16.433  0.6273  0.6484 -0.6114
  714TIP3   OH223556   1.758   2.252   4.989  0.3168 -0.1094  0.1427
  714TIP3    H123557   1.834   2.273   5.044 -0.3439  0.2027  0.9669
  714TIP3    H223558   1.769   2.306   4.911  0.8618  0.0524  0.3251
  715TIP3   OH223559   1.681   3.553   0.777  0.3862 -0.7871  0.5080
  715TIP3    H123560   1.762   3.596   0.804  1.4554 -2.2618 -0.2043
  715TIP3    H223561   1.668   3.484   0.841  0.8253 -1.8388 -0.5064
  716TIP3   OH223562   2.898   3.800   4.499 -0.2979  0.0084  0.3308
  716TIP3    H123563   2.853   3.883   4.516 -0.8830 -0.2846  0.2031
  716TIP3    H223564   2.940   3.779   4.583  0.8488  1.0302  0.0427
  717TIP3   OH223565   5.538   4.042  11.868 -0.5599  0.1587  0.1156
  717TIP3    H123566   5.490   4.110  11.916 -0.9371  1.2256 -1.6819
  717TIP3    H223567   5.475   3.971  11.858 -0.8532  0.4019  0.2166
  718TIP3   OH223568   6.028   3.692  13.404  0.2451  0.4401  0.4643
  718TIP3    H123569   6.004   3.667  13.493 -0.7020  0.2275  0.1604
  718TIP3    H223570   6.001   3.784  13.397 -0.6242  0.1668  0.0852
  719TIP3   OH223571   0.693   6.641  14.514 -0.4928  0.1216 -0.2502
  719TIP3    H123572   0.635   6.655  14.589 -0.0153  1.9384 -0.1632
  719TIP3    H223573   0.751   6.718  14.514 -0.7943  0.4370 -2.7699
  720TIP3   OH223574   5.027   5.554  11.635  0.0567 -0.2160  0.4944
  720TIP3    H123575   5.030   5.505  11.553  1.2713  0.5957  0.0211
  720TIP3    H223576   4.998   5.642  11.609  1.4272  0.3407  0.7453
  721TIP3   OH223577   5.058   6.271  16.782 -0.3742  0.5244  0.8241
  721TIP3    H123578   5.039   6.265  16.689  2.5851  1.1327  0.0963
  721TIP3    H223579   5.148   6.303  16.787  0.1252 -0.9248  3.8650
  722TIP3   OH223580   4.953   1.036   6.149 -0.1249  0.0180 -0.1834
  722TIP3    H123581   4.906   1.044   6.233 -0.6226  1.2113 -0.5476
  722TIP3    H223582   4.934   0.947   6.120 -1.0182  0.0062  0.3617
  723TIP3   OH223583   3.648   2.448  11.893  0.6821 -0.2912 -0.1620
  723TIP3    H123584   3.649   2.353  11.879 -0.0644 -0.3127 -0.1005
  723TIP3    H223585   3.555   2.471  11.891  0.8510  0.4097  0.0367
  724TIP3   OH223586   2.125   2.737   0.570  0.1951 -0.1412 -0.0137
  724TIP3    H123587   2.065   2.675   0.530 -1.4146  1.1529  0.3009
  724TIP3    H223588   2.130   2.709   0.662 -0.2246 -0.0531  0.0394
  725TIP3   OH223589   6.417   5.483  12.302 -0.2637  0.2523  0.0537
  725TIP3    H123590   6.357   5.413  12.329  0.6827 -0.2323  0.9476
  725TIP3    H223591   6.470   5.444  12.233  1.1175 -0.3731  1.4059
  726TIP3   OH223592   1.848   2.707  13.233 -0.7243 -0.3858  0.6923
  726TIP3    H123593   1.872   2.617  13.255 -1.5950 -0.5950  0.8561
  726TIP3    H223594   1.828   2.748  13.318 -0.3427 -0.0398  0.6188
  727TIP3   OH223595   0.864   1.887   4.128 -0.4923 -0.0116 -0.2568
  727TIP3    H123596   0.877   1.938   4.207  1.5202 -2.7372  1.3249
  727TIP3    H223597   0.784   1.836   4.145 -0.3718 -0.1819 -0.1932
  728TIP3   OH223598   3.075   5.427   0.356 -0.2091 -0.3028 -0.2210
  728TIP3    H123599   3.111   5.353   0.306  0.6502 -0.1808  0.1982
  728TIP3    H223600   3.078   5.397   0.447 -0.7159 -0.0941 -0.1326
  729TIP3   OH223601   3.366   0.337   0.380 -0.8371 -0.0658  0.0093
  729TIP3    H123602   3.432   0.376   0.437  0.4906  0.8532 -2.0239
  729TIP3    H223603   3.402   0.251   0.357 -0.7865  0.0612 -0.3885
  730TIP3   OH223604   2.272   2.362  15.337  0.1527  0.2199 -0.2076
  730TIP3    H123605   2.259   2.274  15.374 -0.8213  0.1365 -0.7117
  730TIP3    H223606   2.289   2.346  15.244 -1.1285  0.6055 -0.5265
  731TIP3   OH223607   0.563   3.139   0.268  0.2644 -0.0404  0.3035
  731TIP3    H123608   0.543   3.220   0.314  1.5527  0.1842  0.4986
  731TIP3    H223609   0.520   3.149   0.183 -0.5178  0.3603  0.7367
  732TIP3   OH223610   2.266   2.078  11.358 -0.6908 -0.1548  0.2392
  732TIP3    H123611   2.333   2.023  11.315 -2.4113 -1.3042 -1.1217
  732TIP3    H223612   2.270   2.161  11.310 -0.5275 -0.3617 -0.1140
  733TIP3   OH223613   6.234   5.142   3.672  0.0153 -0.7886 -0.5520
  733TIP3    H123614   6.224   5.160   3.578 -1.3825  0.7590 -0.1578
  733TIP3    H223615   6.185   5.212   3.715 -1.3985 -2.7803  1.2983
  734TIP3   OH223616   1.547   0.358  16.348 -0.3198 -0.1818 -0.0400
  734TIP3    H123617   1.598   0.295  16.400 -0.2110 -0.3750 -0.3745
  734TIP3    H223618   1.547   0.321  16.260 -1.9319 -0.7264  0.1661
  735TIP3   OH223619   6.709   2.506   3.762  0.0847 -0.3453  0.3247
  735TIP3    H123620   6.802   2.526   3.759 -0.1637  0.8455 -0.1088
  735TIP3    H223621   6.681   2.534   3.850 -0.3740  1.9359 -0.4676
  736TIP3   OH223622   6.544   3.016  13.021  0.5585 -0.0013 -0.3044
  736TIP3    H123623   6.619   3.055  12.975  0.5287 -0.0752 -0.4169
  736TIP3    H223624   6.469   3.068  12.991  0.4961 -0.2516 -0.5825
  737TIP3   OH223625   1.756   0.971  16.806  0.1092  0.0946  0.0003
  737TIP3    H123626   1.731   0.941  16.894  1.6802  0.5111  0.6277
  737TIP3    H223627   1.756   1.067  16.814 -0.7284  0.1712 -0.7693
  738TIP3   OH223628   4.841   2.768   5.412 -0.3239  0.4510 -0.1337
  738TIP3    H123629   4.770   2.704   5.412  0.7019 -0.7158 -0.3058
  738TIP3    H223630   4.886   2.754   5.329  0.6814  0.5150  0.3883
  739TIP3   OH223631   6.530   0.095  10.534 -0.6074 -0.4080 -0.2475
  739TIP3    H123632   6.491   0.049  10.460 -0.3249  0.4217 -0.9330
  739TIP3    H223633   6.479   0.066  10.610 -1.2920 -0.8139 -0.8433
  740TIP3   OH223634   0.518   5.728   5.257 -0.0273  0.2626 -0.1938
  740TIP3    H123635   0.429   5.748   5.288 -0.4839 -1.9418  0.1069
  740TIP3    H223636   0.564   5.696   5.334  0.3430 -0.6272 -0.7577
  741TIP3   OH223637   5.165   0.498  12.385 -0.2928 -0.4200  0.2683
  741TIP3    H123638   5.089   0.457  12.345  0.1118  0.3956 -1.4007
  741TIP3    H223639   5.230   0.428  12.390 -0.0974 -0.3755 -1.2338
  742TIP3   OH223640   2.401   4.628  13.610 -0.6022 -0.3594 -0.5757
  742TIP3    H123641   2.450   4.610  13.529 -0.1104 -0.1007 -0.3336
  742TIP3    H223642   2.468   4.633  13.678 -0.9037  0.5473 -0.3310
  743TIP3   OH223643   2.437   0.332  11.912  0.2981 -0.0326  0.1308
  743TIP3    H123644   2.410   0.346  12.003 -1.1328 -0.5603 -0.1779
  743TIP3    H223645   2.532   0.322  11.916  0.1779 -0.9242  1.6875
  744TIP3   OH223646   0.997   6.037   5.471 -0.4509  0.2000 -0.2697
  744TIP3    H123647   1.081   5.994   5.457 -1.1059 -1.4508  0.5398
  744TIP3    H223648   0.948   6.021   5.389 -0.1727  0.7013 -0.5369
  745TIP3   OH223649   1.766   4.491  16.146  0.1019 -0.2475 -0.4965
  745TIP3    H123650   1.846   4.508  16.096  0.7138 -0.0201  0.5363
  745TIP3    H223651   1.695   4.502  16.082  0.7924  1.1136 -1.0703
  746TIP3   OH223652   5.849   5.501  11.527  0.1237 -0.4536  0.0759
  746TIP3    H123653   5.823   5.593  11.537 -1.9371 -0.7100 -2.0104
  746TIP3    H223654   5.912   5.501  11.455 -0.7615 -0.7588 -0.7201
  747TIP3   OH223655   1.650   1.839   4.192  0.6261 -0.0427  0.0123
  747TIP3    H123656   1.559   1.809   4.195  0.5707  0.1757  0.8073
  747TIP3    H223657   1.644   1.935   4.193  0.8859 -0.0226  1.5966
  748TIP3   OH223658   3.198   0.299   3.730 -0.3826 -0.5072 -0.3236
  748TIP3    H123659   3.187   0.261   3.816 -0.0116  1.5906  0.7222
  748TIP3    H223660   3.112   0.289   3.688 -0.4435 -1.9098  0.0880
  749TIP3   OH223661   2.472   5.320   1.312 -0.8509  0.2469  0.4682
  749TIP3    H123662   2.449   5.246   1.256  0.6176  0.0093  0.1139
  749TIP3    H223663   2.471   5.285   1.401  0.5112 -0.4202  0.2480
  750TIP3   OH223664   6.649   4.076   0.333 -0.2534 -0.2251 -0.1382
  750TIP3    H123665   6.660   3.984   0.357  2.0750 -0.3391 -1.3565
  750TIP3    H223666   6.591   4.075   0.257 -0.7775 -0.6095  0.2636
  751TIP3   OH223667   6.685   3.067  14.333  0.4659  0.0930 -0.6486
  751TIP3    H123668   6.739   3.083  14.256  0.9227  0.7755 -0.1953
  751TIP3    H223669   6.609   3.018  14.299  1.7960 -1.7216 -1.1354
  752TIP3   OH223670   5.868   5.668   2.510 -0.3514  0.2264  0.8218
  752TIP3    H123671   5.867   5.686   2.416 -1.8918 -0.3107  0.7029
  752TIP3    H223672   5.937   5.724   2.545 -0.1234  0.8359 -0.5471
  753TIP3   OH223673   0.711   6.317   2.544  0.5233  0.1859  0.1524
  753TIP3    H123674   0.707   6.304   2.639  2.5619 -4.1089 -0.1315
  753TIP3    H223675   0.629   6.280   2.511  1.1676 -1.2117  0.0837
  754TIP3   OH223676   5.341   3.658   4.097  0.1904 -0.1517  0.1738
  754TIP3    H123677   5.268   3.628   4.042 -0.0052  0.7601 -0.0748
  754TIP3    H223678   5.299   3.699   4.172  0.4066  1.3051 -0.4588
  755TIP3   OH223679   6.535   5.269   2.000  0.8103  0.2939 -0.2885
  755TIP3    H123680   6.491   5.346   1.966  1.6858  0.5052 -0.9979
  755TIP3    H223681   6.470   5.226   2.056 -0.3875  0.4241 -1.5222
  756TIP3   OH223682   2.438   1.496  16.675 -0.3931  0.1265  0.4440
  756TIP3    H123683   2.345   1.502  16.653 -0.5026  3.7037  1.2546
  756TIP3    H223684   2.480   1.558  16.615  1.0071  0.7864  2.0189
  757TIP3   OH223685   5.458   5.163  16.816 -0.3275  0.4556  0.3579
  757TIP3    H123686   5.510   5.216  16.876 -0.6020  0.4269  0.6266
  757TIP3    H223687   5.522   5.113  16.766 -0.0926  0.4521  0.6561
  758TIP3   OH223688   5.000   3.001   1.905 -0.7183  0.3852  0.0080
  758TIP3    H123689   5.042   2.965   1.826  0.2326  0.6581  0.3762
  758TIP3    H223690   5.035   3.089   1.913 -2.5959  1.2347 -0.5608
  759TIP3   OH223691   4.073   5.005   5.090  0.7607 -0.3084 -0.2065
  759TIP3    H123692   4.051   5.023   4.999  0.8929 -1.2187 -0.4212
  759TIP3    H223693   3.991   4.974   5.128  1.0460 -1.2788 -0.3718
  760TIP3   OH223694   6.080   0.540  15.138  0.9864 -0.7393 -0.3351
  760TIP3    H123695   6.137   0.571  15.208 -2.5154  2.3546  1.4715
  760TIP3    H223696   6.020   0.479  15.180  0.2901 -0.6692 -1.1932
  761TIP3   OH223697   1.261   2.132   1.353 -0.3845 -0.5421  0.1111
  761TIP3    H123698   1.343   2.177   1.331 -1.6147  1.0157 -1.6580
  761TIP3    H223699   1.265   2.050   1.305 -0.6744  0.4326 -1.6697
  762TIP3   OH223700   3.125   3.831   0.960  0.0692 -0.2090 -0.4180
  762TIP3    H123701   3.139   3.799   1.049  1.4161 -0.2707 -0.6305
  762TIP3    H223702   3.036   3.867   0.961  0.2432  0.2508  1.0862
  763TIP3   OH223703   4.951   3.314  11.057  0.1870 -0.5334 -0.6677
  763TIP3    H123704   4.902   3.394  11.079  0.8603 -0.7361  1.8776
  763TIP3    H223705   4.885   3.255  11.022 -0.9350  0.0638  0.3644
  764TIP3   OH223706   2.404   3.746   0.835 -0.3150  0.1707 -0.3510
  764TIP3    H123707   2.423   3.839   0.849  1.4405 -0.3152  0.8521
  764TIP3    H223708   2.386   3.711   0.922 -0.9355 -0.6307 -0.7820
  765TIP3   OH223709   4.664   2.674  16.041  0.1327  0.7089  0.1820
  765TIP3    H123710   4.725   2.689  16.113 -0.6367 -0.9437  1.2352
  765TIP3    H223711   4.688   2.588  16.007 -2.3640 -0.6381  1.5114
  766TIP3   OH223712   1.880   2.406   3.267  0.0903  0.3366 -0.9091
  766TIP3    H123713   1.888   2.424   3.174  0.6008  1.2251 -0.7076
  766TIP3    H223714   1.916   2.484   3.310  0.0925 -0.1581  0.0272
  767TIP3   OH223715   0.222   3.695  11.333  0.3562  0.3333  0.3702
  767TIP3    H123716   0.212   3.625  11.268  1.0232  1.0185 -0.4895
  767TIP3    H223717   0.228   3.649  11.416  1.0937 -0.6590 -0.2092
  768TIP3   OH223718   6.597   1.949  13.285 -0.3831 -0.0982 -0.0594
  768TIP3    H123719   6.501   1.955  13.285 -0.6968 -2.5686  2.4783
  768TIP3    H223720   6.623   1.981  13.372  0.9244 -0.8206 -0.1524
  769TIP3   OH223721   0.678   1.041   3.075  0.0419  0.1529  0.3756
  769TIP3    H123722   0.694   1.074   3.164  3.0147 -0.8842  0.3466
  769TIP3    H223723   0.682   0.946   3.084 -0.5760  0.0069 -0.7475
  770TIP3   OH223724   6.282   3.763  13.570 -0.4485 -0.0370 -0.2625
  770TIP3    H123725   6.373   3.732  13.574 -1.0550 -1.6943  2.0820
  770TIP3    H223726   6.257   3.749  13.479  1.5718  0.3298 -0.9457
  771TIP3   OH223727   4.362   3.770   3.411 -0.0239 -0.2203  0.1649
  771TIP3    H123728   4.374   3.751   3.318 -0.6623 -1.9114  0.4032
  771TIP3    H223729   4.274   3.738   3.431  0.1591  0.0014  1.3928
  772TIP3   OH223730   1.133   1.384   1.283  0.1605  0.0012 -0.1402
  772TIP3    H123731   1.110   1.400   1.375 -1.3864  1.9379 -0.8016
  772TIP3    H223732   1.224   1.414   1.276  0.6430 -1.0965  0.9411
  773TIP3   OH223733   4.624   1.452   2.445  0.6772  0.0791  0.5074
  773TIP3    H123734   4.571   1.402   2.383 -0.1755  2.3168 -0.6642
  773TIP3    H223735   4.561   1.484   2.510  0.4252  2.8874 -0.9822
  774TIP3   OH223736   0.072   3.304  16.891 -0.4085  0.0153 -0.2080
  774TIP3    H123737   0.031   3.248  16.826  0.5398  0.4205 -1.1796
  774TIP3    H223738   0.144   3.347  16.845 -1.8669  3.0719  0.1016
  775TIP3   OH223739   1.536   1.167  10.584  0.4860 -0.4914  0.0753
  775TIP3    H123740   1.456   1.168  10.637  1.0168  3.3885  1.0916
  775TIP3    H223741   1.594   1.105  10.628 -0.5132 -0.2998  1.7385
  776TIP3   OH223742   2.104   6.255  11.094 -0.5841  0.0686  0.1442
  776TIP3    H123743   2.023   6.252  11.044 -0.1938 -0.9113 -0.4515
  776TIP3    H223744   2.107   6.172  11.141 -1.6495  1.5074  3.0265
  777TIP3   OH223745   0.732   0.312  13.309 -0.1792  0.0109 -0.1767
  777TIP3    H123746   0.641   0.337  13.293  0.0256  0.9239  0.0753
  777TIP3    H223747   0.781   0.394  13.307  0.6573 -0.4820 -0.3959
  778TIP3   OH223748   4.531   1.494   6.051 -0.2705 -0.0295 -0.0509
  778TIP3    H123749   4.451   1.473   6.098 -0.5180 -0.3007 -0.5784
  778TIP3    H223750   4.543   1.589   6.064 -1.9414  0.4907 -1.8295
  779TIP3   OH223751   3.438   2.791  16.492 -0.1984 -0.2300  0.0691
  779TIP3    H123752   3.479   2.709  16.517  1.7272  0.0854 -1.7206
  779TIP3    H223753   3.387   2.817  16.568 -0.6059 -2.8879  0.8030
  780TIP3   OH223754   4.961   6.699   2.077 -0.2036  0.3303 -0.0230
  780TIP3    H123755   4.971   6.766   2.010 -0.2896 -0.3441 -0.7247
  780TIP3    H223756   4.969   6.616   2.030  0.3561 -0.1577  0.8918
  781TIP3   OH223757   0.060   4.741   5.682 -0.3471 -0.8227 -0.3545
  781TIP3    H123758   0.111   4.686   5.741  0.5556 -0.5441 -0.8504
  781TIP3    H223759   0.122   4.767   5.614 -0.3647  1.8636  0.5519
  782TIP3   OH223760   2.672   2.595  15.929 -0.2474  0.2884 -0.1388
  782TIP3    H123761   2.640   2.515  15.886  0.4776  0.0125 -0.1667
  782TIP3    H223762   2.767   2.589  15.924 -0.1765  0.8069  0.5065
  783TIP3   OH223763   0.145   0.796   5.288 -0.1152  0.4505 -0.5374
  783TIP3    H123764   0.201   0.785   5.211  0.0199  4.3805 -1.1841
  783TIP3    H223765   0.057   0.776   5.256  0.2538 -0.8778 -0.8264
  784TIP3   OH223766   5.274   6.260   4.200 -0.3329  0.0186 -0.3092
  784TIP3    H123767   5.227   6.265   4.283  1.5458  1.1763  0.7675
  784TIP3    H223768   5.271   6.168   4.175  0.4826 -0.6861  1.9629
  785TIP3   OH223769   4.271   6.620   1.364 -0.0063 -0.5834 -0.4200
  785TIP3    H123770   4.326   6.648   1.292  0.4972 -0.4861 -0.0029
  785TIP3    H223771   4.319   6.549   1.405  1.0029  1.0466  1.4120
  786TIP3   OH223772   4.774   1.464  14.978  0.6975 -0.1000  0.0619
  786TIP3    H123773   4.833   1.482  14.906  0.5600 -0.0997 -0.0526
  786TIP3    H223774   4.784   1.539  15.037  0.8839 -0.1496  0.0926
  787TIP3   OH223775   5.285   6.206   5.616  0.2811  0.4181  0.6193
  787TIP3    H123776   5.325   6.239   5.696  1.0469  0.8113  0.0849
  787TIP3    H223777   5.259   6.285   5.568  1.0180  0.2348 -0.1116
  788TIP3   OH223778   1.830   2.641   2.470 -0.2148 -0.2738 -0.0599
  788TIP3    H123779   1.881   2.653   2.390 -0.1197  2.3174  0.2962
  788TIP3    H223780   1.741   2.667   2.445  0.0134  1.5127  0.8577
  789TIP3   OH223781   2.473   4.897  10.505  0.0873 -0.4289  0.0568
  789TIP3    H123782   2.399   4.905  10.444 -0.2796 -0.9556  0.4262
  789TIP3    H223783   2.517   4.982  10.499 -0.5229 -0.1176 -0.2031
  790TIP3   OH223784   1.451   5.386  16.210 -0.2700 -0.6105 -0.4112
  790TIP3    H123785   1.436   5.386  16.305 -0.8414 -0.2050 -0.4944
  790TIP3    H223786   1.543   5.362  16.200 -0.1818 -0.5644  0.2520
  791TIP3   OH223787   1.563   4.191  14.364 -0.1613  0.0688  0.2195
  791TIP3    H123788   1.597   4.264  14.312  0.5102  0.2116  0.8338
  791TIP3    H223789   1.477   4.173  14.327 -0.2066  0.9737 -0.1447
  792TIP3   OH223790   4.370   1.917  11.048  0.1565  0.0162 -0.0549
  792TIP3    H123791   4.276   1.934  11.051  0.3690  1.2173  1.6715
  792TIP3    H223792   4.396   1.942  10.960 -0.9063  1.2164 -0.0645
  793TIP3   OH223793   6.691   3.489  15.139  0.1960 -0.0532  0.2299
  793TIP3    H123794   6.617   3.501  15.080  1.0915  0.1973 -0.8590
  793TIP3    H223795   6.664   3.532  15.220 -1.3030 -0.9553  0.2444
  794TIP3   OH223796   4.898   3.503   5.330  0.0106 -0.1018  0.5151
  794TIP3    H123797   4.935   3.563   5.265 -0.5599 -0.2332  0.0574
  794TIP3    H223798   4.861   3.432   5.277  1.7232 -1.4949  1.0665
  795TIP3   OH223799   1.182   0.610  11.841 -0.0155 -1.0603 -0.5240
  795TIP3    H123800   1.149   0.545  11.903  1.1275 -1.0261  0.1638
  795TIP3    H223801   1.275   0.619  11.864 -0.3303  1.5095  0.0573
  796TIP3   OH223802   3.077   3.964  15.561 -0.0190 -0.3242  0.0648
  796TIP3    H123803   3.054   4.051  15.529  0.4799  0.1645  0.9853
  796TIP3    H223804   3.015   3.948  15.633 -0.5403 -1.0217 -0.5219
  797TIP3   OH223805   5.819   2.622   5.328  0.1506 -0.3931 -0.0582
  797TIP3    H123806   5.746   2.684   5.332  2.1424  2.5996 -3.5140
  797TIP3    H223807   5.777   2.536   5.319 -2.7998  0.6602  2.0112
  798TIP3   OH223808   1.933   4.435  12.740  0.0020 -0.2408 -0.0934
  798TIP3    H123809   1.911   4.440  12.833  0.0423 -4.9470  0.3796
  798TIP3    H223810   2.006   4.497  12.729  0.4396 -0.0307  3.1421
  799TIP3   OH223811   3.482   4.308   5.259 -0.0694 -0.0932 -0.5400
  799TIP3    H123812   3.418   4.348   5.200  0.7005 -0.0252 -1.3675
  799TIP3    H223813   3.566   4.345   5.231  0.3521 -0.3269  0.3880
  800TIP3   OH223814   5.569   2.314  11.515 -0.1445 -0.0232 -0.5328
  800TIP3    H123815   5.623   2.235  11.527 -0.6391 -0.4057 -0.7757
  800TIP3    H223816   5.482   2.287  11.543 -0.2020  0.6021 -0.1133
  801TIP3   OH223817   0.270   3.451  14.149 -0.2994 -0.0950 -0.2644
  801TIP3    H123818   0.260   3.357  14.161  1.6313 -0.4396 -1.0931
  801TIP3    H223819   0.350   3.473  14.197 -1.0829  1.2734  0.4973
  802TIP3   OH223820   5.489   1.636   4.685  0.6001  0.8617  0.0429
  802TIP3    H123821   5.536   1.634   4.602  0.7537  0.3388  0.1392
  802TIP3    H223822   5.553   1.604   4.749  0.6464  1.7241  0.4466
  803TIP3   OH223823   0.499   0.993  13.272  0.3680  0.2007 -0.4764
  803TIP3    H123824   0.592   0.997  13.250  1.1192 -0.4684  2.1828
  803TIP3    H223825   0.471   0.907  13.241  1.9088 -1.5905  2.6184
  804TIP3   OH223826   5.708   5.382   1.210  0.4775 -0.3433  0.3334
  804TIP3    H123827   5.676   5.339   1.131  0.8908 -0.4031  0.1921
  804TIP3    H223828   5.630   5.410   1.257  0.2043 -1.1907  0.3966
  805TIP3   OH223829   1.867   5.483  13.677 -0.1991  0.5128 -0.2631
  805TIP3    H123830   1.922   5.405  13.678 -2.2041 -1.0207 -2.0690
  805TIP3    H223831   1.892   5.528  13.596  0.9126  1.7833  0.7450
  806TIP3   OH223832   6.021   5.443   1.577 -0.6243 -0.0618 -0.1104
  806TIP3    H123833   6.013   5.446   1.481 -0.3548  1.2982 -0.1092
  806TIP3    H223834   5.970   5.366   1.602 -0.7542 -0.4100 -1.3406
  807TIP3   OH223835   0.772   0.345   0.989  0.8057  0.4909  0.4374
  807TIP3    H123836   0.761   0.412   1.056 -0.0446  0.7020  0.1012
  807TIP3    H223837   0.683   0.329   0.957  1.2557  0.7049 -0.9516
  808TIP3   OH223838   4.319   3.630   4.597  0.2799 -0.1878  0.0197
  808TIP3    H123839   4.282   3.716   4.617 -0.2810  0.0660 -1.8680
  808TIP3    H223840   4.351   3.597   4.681  0.3234  1.7641  0.8209
  809TIP3   OH223841   3.464   3.227  11.477 -0.5323  0.7387  0.0482
  809TIP3    H123842   3.463   3.291  11.406  1.3498 -0.9733 -1.6354
  809TIP3    H223843   3.380   3.181  11.468  0.0345 -0.0524 -1.7191
  810TIP3   OH223844   2.232   4.393   3.365 -0.6360  0.0889 -0.4133
  810TIP3    H123845   2.273   4.396   3.451  0.3400 -2.9551 -0.6809
  810TIP3    H223846   2.284   4.452   3.311 -0.2298  0.7243  0.6560
  811TIP3   OH223847   2.249   1.030   2.746 -0.3864 -0.2830 -0.4036
  811TIP3    H123848   2.181   0.976   2.787 -0.3236  0.9009  1.4114
  811TIP3    H223849   2.200   1.100   2.703 -0.3595  0.2453  0.4067
  812TIP3   OH223850   3.148   2.599  16.160 -0.1815  0.0062 -0.1295
  812TIP3    H123851   3.168   2.682  16.118  1.8513 -1.1645 -1.6246
  812TIP3    H223852   3.232   2.566  16.192 -1.4683  0.6509  4.8585
  813TIP3   OH223853   6.782   0.191  16.358  0.4499  0.4542  0.3528
  813TIP3    H123854   6.799   0.149  16.274  1.6801  0.4740  0.5835
  813TIP3    H223855   6.713   0.255  16.338  0.2264 -0.0209 -0.4831
  814TIP3   OH223856   2.014   4.530   2.159  0.3170 -0.2286 -0.2627
  814TIP3    H123857   1.972   4.508   2.076  0.4183 -0.3518 -0.2814
  814TIP3    H223858   2.030   4.624   2.154  0.8496 -0.3352 -0.6226
  815TIP3   OH223859   6.224   3.336   1.608  0.3418  0.2661  0.5694
  815TIP3    H123860   6.257   3.284   1.681  0.1001  1.6059  1.6763
  815TIP3    H223861   6.132   3.310   1.600  0.3699  0.1143  0.7265
  816TIP3   OH223862   2.621   2.949  14.436 -0.0372 -0.0017 -0.2318
  816TIP3    H123863   2.643   2.954  14.529 -1.0196  5.2758  0.0119
  816TIP3    H223864   2.543   2.893  14.433  0.6576 -1.1942  1.8712
  817TIP3   OH223865   2.434   6.005   3.072  0.3462  0.8538  0.1074
  817TIP3    H123866   2.374   5.981   3.002  1.0970 -3.0536  0.5606
  817TIP3    H223867   2.521   5.988   3.036  0.7299 -2.0701  2.0613
  818TIP3   OH223868   4.021   3.952   7.232  0.2160 -0.7699  0.0502
  818TIP3    H123869   3.926   3.952   7.246  0.0275  0.9873 -0.9183
  818TIP3    H223870   4.033   3.994   7.147  1.9171  0.1852  0.7074
  819TIP3   OH223871   0.664   1.058  15.870 -0.4037  0.4338  0.3869
  819TIP3    H123872   0.726   1.094  15.934  1.1926 -1.2804 -0.0974
  819TIP3    H223873   0.719   1.012  15.807 -1.9578  1.6433 -1.9934
  820TIP3   OH223874   2.464   4.159  15.857 -0.8165 -0.1995 -0.5872
  820TIP3    H123875   2.528   4.199  15.798 -2.2614  0.5293 -1.7160
  820TIP3    H223876   2.517   4.106  15.917  0.7979  0.0076 -1.7596
  821TIP3   OH223877   2.074   1.715   2.896 -0.8324 -0.5319 -0.2916
  821TIP3    H123878   2.115   1.730   2.982  0.4007 -0.7209 -0.8308
  821TIP3    H223879   2.066   1.802   2.858 -1.9204 -0.3860  0.2412
  822TIP3   OH223880   5.473   6.461  12.324  0.1193  0.3242  0.6012
  822TIP3    H123881   5.517   6.526  12.379  0.9786 -0.5181  0.9203
  822TIP3    H223882   5.454   6.388  12.383  2.1115 -1.1055 -0.4224
  823TIP3   OH223883   3.816   1.441   0.051 -0.2879 -0.8308 -0.0803
  823TIP3    H123884   3.867   1.377   0.001  1.3246 -0.0331  0.4778
  823TIP3    H223885   3.880   1.508   0.076 -1.6914  0.3724  0.3938
  824TIP3   OH223886   4.044   4.276  15.221  0.1745 -0.3650 -0.1418
  824TIP3    H123887   4.084   4.277  15.134 -0.0254  0.2531 -0.2355
  824TIP3    H223888   3.950   4.281  15.204  0.1276 -0.3873  0.1084
  825TIP3   OH223889   1.414   2.862  13.999  0.4435  0.1612  0.0084
  825TIP3    H123890   1.506   2.838  13.999  0.1270 -1.1494  0.2304
  825TIP3    H223891   1.378   2.819  14.077 -0.9895 -2.0780 -1.7434
  826TIP3   OH223892   0.167   3.966   0.325 -0.4054  0.1843  0.5284
  826TIP3    H123893   0.198   4.025   0.256  1.3909 -0.7569  0.4759
  826TIP3    H223894   0.131   3.890   0.278 -0.4145  0.1317  0.6192
  827TIP3   OH223895   1.182   0.906   1.876 -0.0033  0.8750  0.4170
  827TIP3    H123896   1.157   0.835   1.935  0.0869  0.7374  0.2880
  827TIP3    H223897   1.102   0.958   1.866 -0.5895 -0.2123 -0.9193
  828TIP3   OH223898   4.348   5.787   5.825 -0.4254  0.5441  0.0830
  828TIP3    H123899   4.325   5.826   5.741  0.6347  2.2859  0.5481
  828TIP3    H223900   4.275   5.728   5.845 -0.4983 -0.2668 -2.2376
  829TIP3   OH223901   4.545   3.189  11.494 -0.5203  0.4114 -0.2455
  829TIP3    H123902   4.565   3.210  11.585  0.8876  0.8368 -0.6220
  829TIP3    H223903   4.629   3.196  11.449 -0.4500 -3.2062 -0.9893
  830TIP3   OH223904   3.600   1.484   0.212 -0.2697 -0.1506  0.3168
  830TIP3    H123905   3.668   1.481   0.145 -0.0418  0.1451  0.5321
  830TIP3    H223906   3.611   1.569   0.254  0.7970 -1.0254  1.9718
  831TIP3   OH223907   2.946   1.495  12.688 -0.0013 -0.1629  0.7074
  831TIP3    H123908   3.009   1.538  12.630  1.1029 -1.2791  1.0328
  831TIP3    H223909   2.867   1.485  12.635  0.9243 -0.9944 -0.5771
  832TIP3   OH223910   5.079   2.115  13.571 -0.0714 -0.4702 -0.4427
  832TIP3    H123911   5.015   2.092  13.638 -0.7066 -1.8776 -1.4829
  832TIP3    H223912   5.111   2.030  13.539  2.6244  0.1611  0.3069
  833TIP3   OH223913   5.394   4.540   3.585  0.2723  0.5850  0.2049
  833TIP3    H123914   5.475   4.501   3.552  1.0453  2.3068 -0.0844
  833TIP3    H223915   5.350   4.573   3.507 -0.2452  0.5012  0.4557
  834TIP3   OH223916   4.756   5.768  11.468 -0.0162  0.4385  0.0578
  834TIP3    H123917   4.692   5.795  11.403  1.1049 -0.6692 -1.5680
  834TIP3    H223918   4.716   5.692  11.511 -0.9536  1.4510  1.0373
  835TIP3   OH223919   3.369   1.728  13.985  0.3257 -0.1943  0.0042
  835TIP3    H123920   3.287   1.767  14.014  1.0819  1.0245  0.5672
  835TIP3    H223921   3.343   1.645  13.945 -1.2974  0.7405 -0.9743
  836TIP3   OH223922   4.434   5.542  13.062 -0.2450  0.3457 -0.5672
  836TIP3    H123923   4.450   5.473  13.127  1.0651  2.2634  1.2732
  836TIP3    H223924   4.339   5.540  13.049 -0.9035  1.1201  2.9836
  837TIP3   OH223925   2.070   5.953   1.635 -0.1102  0.0976  0.3903
  837TIP3    H123926   2.095   5.962   1.727  1.2710 -0.0214  0.0582
  837TIP3    H223927   2.117   5.875   1.606 -1.3132 -0.4401 -0.1767
  838TIP3   OH223928   4.828   3.544   1.670 -0.7140  0.3333  0.2433
  838TIP3    H123929   4.803   3.613   1.609 -0.4216  2.2454  2.1458
  838TIP3    H223930   4.893   3.586   1.727 -1.7233 -0.9928  2.4834
  839TIP3   OH223931   4.041   1.418   3.601 -0.5051  0.1295  0.3495
  839TIP3    H123932   3.955   1.455   3.583  0.2245  0.3344 -3.7059
  839TIP3    H223933   4.036   1.328   3.567  0.7078 -0.0314  0.5463
  840TIP3   OH223934   3.250   1.326   3.985  0.2898 -0.6193  0.3687
  840TIP3    H123935   3.308   1.307   4.058 -0.5026 -0.6943  0.9973
  840TIP3    H223936   3.211   1.411   4.006  0.2363 -0.5272 -0.0850
  841TIP3   OH223937   2.259   0.035  13.954 -0.1398  0.0006 -1.1962
  841TIP3    H123938   2.246   0.050  14.047 -0.8693  0.9066 -1.4312
  841TIP3    H223939   2.288  -0.056  13.948  0.4377  0.1046 -0.0518
  842TIP3   OH223940   6.679   1.208   4.231 -0.0529  0.0064  0.4756
  842TIP3    H123941   6.618   1.146   4.271 -0.8399  0.9876  0.8396
  842TIP3    H223942   6.766   1.172   4.251 -0.4893 -1.1348  0.4072
  843TIP3   OH223943   0.543   6.029   2.602 -0.7682 -0.5734  0.0097
  843TIP3    H123944   0.473   6.026   2.667  0.3673 -1.2917  1.2509
  843TIP3    H223945   0.623   6.043   2.653  0.3398 -2.6167 -1.0382
  844TIP3   OH223946   0.908   0.983   4.621  0.6373  0.6855 -0.3513
  844TIP3    H123947   0.920   1.046   4.550  0.4115 -0.1220 -1.1234
  844TIP3    H223948   0.996   0.970   4.656  0.7218  1.2379 -0.3394
  845TIP3   OH223949   0.315   3.410  16.714 -0.4486  0.2133 -0.2963
  845TIP3    H123950   0.309   3.505  16.728  0.3383 -0.0182  2.1028
  845TIP3    H223951   0.407   3.395  16.695 -0.1799 -0.2445  1.2671
  846TIP3   OH223952   0.101   6.735  16.997  0.6528  0.7019 -0.2520
  846TIP3    H123953   0.188   6.773  17.003  0.2086  1.8448 -0.6263
  846TIP3    H223954   0.097   6.670  17.067  1.6684  0.9010  0.0012
  847TIP3   OH223955   1.479   5.827  14.412  0.3939  0.0939 -0.2429
  847TIP3    H123956   1.539   5.901  14.427  2.5046 -1.6912  0.7032
  847TIP3    H223957   1.518   5.755  14.461 -2.8396 -1.1093  0.7570
  848TIP3   OH223958   5.278   2.334  11.709  0.5934 -0.3066 -0.2359
  848TIP3    H123959   5.347   2.268  11.719 -0.6970 -1.7147 -0.3339
  848TIP3    H223960   5.269   2.373  11.796  2.6744  1.1654 -0.5903
  849TIP3   OH223961   3.187   5.644   6.741  0.1908  0.4496  0.5142
  849TIP3    H123962   3.197   5.738   6.756 -0.7417  0.5869  0.3603
  849TIP3    H223963   3.111   5.638   6.683  2.5054 -0.1530 -2.6880
  850TIP3   OH223964   4.979   3.973  14.599 -0.1321 -0.2360 -0.0825
  850TIP3    H123965   5.046   3.961  14.667 -0.2241 -0.7540 -0.0831
  850TIP3    H223966   4.924   4.043  14.633 -0.5706 -0.9343  0.6919
  851TIP3   OH223967   4.650   3.577   4.703 -0.2559 -0.1146  0.7675
  851TIP3    H123968   4.686   3.661   4.732  0.7095 -0.1218 -0.3173
  851TIP3    H223969   4.695   3.512   4.757  0.7050 -0.0625  0.0520
  852TIP3   OH223970   0.141   1.942  11.881  0.1345 -0.2783  0.5595
  852TIP3    H123971   0.059   1.919  11.923 -0.5852  0.9058 -0.1460
  852TIP3    H223972   0.116   1.990  11.802  1.3892 -2.9372 -1.6720
  853TIP3   OH223973   3.658   4.006  12.778 -0.0836 -0.4038 -0.0483
  853TIP3    H123974   3.685   3.971  12.863 -0.7808  0.5149  0.5856
  853TIP3    H223975   3.632   4.097  12.797  1.6799  0.4873 -1.6089
  854TIP3   OH223976   1.386   2.833  11.139  0.2164  0.0158  0.1851
  854TIP3    H123977   1.327   2.907  11.126  0.1030 -0.0516  0.3105
  854TIP3    H223978   1.374   2.808  11.231 -1.2034 -1.3802 -0.3306
  855TIP3   OH223979   3.750   4.184  13.842  0.5521  0.3380 -0.3188
  855TIP3    H123980   3.698   4.214  13.767 -0.4735  1.1235  0.6609
  855TIP3    H223981   3.777   4.265  13.886  0.1387 -0.1028  0.7999
  856TIP3   OH223982   3.988   2.338  14.138  0.2014  0.4006  0.0074
  856TIP3    H123983   4.058   2.349  14.074 -0.6676  1.7581 -0.7655
  856TIP3    H223984   4.028   2.287  14.209  1.8871  0.9255 -0.5167
  857TIP3   OH223985   3.823   5.331   4.023  0.2815  0.3598 -0.0231
  857TIP3    H123986   3.785   5.403   4.072 -0.6332 -0.8187  1.0576
  857TIP3    H223987   3.832   5.260   4.086  1.4032 -0.4081 -0.9924
  858TIP3   OH223988   5.361   4.126  14.542 -0.2238  0.0386 -0.3244
  858TIP3    H123989   5.405   4.138  14.457 -1.4500  0.1983 -0.9572
  858TIP3    H223990   5.364   4.212  14.583  0.4470 -0.0575 -0.1577
  859TIP3   OH223991   4.215   3.687  14.060  0.3436  0.3532 -0.0326
  859TIP3    H123992   4.271   3.614  14.085 -0.5672 -0.1830  0.5198
  859TIP3    H223993   4.143   3.685  14.124  0.6251  2.1290  0.3957
  860TIP3   OH223994   3.498   4.198   1.486  0.0284 -0.0647  0.1762
  860TIP3    H123995   3.557   4.150   1.545 -0.4875 -0.6246  0.2504
  860TIP3    H223996   3.426   4.136   1.469 -0.4797  0.5658  0.0002
  861TIP3   OH223997   2.537   4.830   2.162  0.5109 -0.3320 -0.0436
  861TIP3    H123998   2.558   4.843   2.254 -2.4390  3.1732  0.3589
  861TIP3    H223999   2.621   4.842   2.117  1.8824 -1.4224  2.0655
  862TIP3   OH224000   5.085   4.263   6.016  0.1883  0.4049 -0.3123
  862TIP3    H124001   5.157   4.232   5.960  0.6719 -0.0598  0.5402
  862TIP3    H224002   5.089   4.358   6.008  0.7612  0.3765 -0.4516
  863TIP3   OH224003   0.175   0.256   1.182 -0.4192  0.4670 -0.1450
  863TIP3    H124004   0.143   0.292   1.265 -2.0499  0.6836 -0.8299
  863TIP3    H224005   0.099   0.260   1.123  1.1092  1.8715 -2.1667
  864TIP3   OH224006   5.024   5.145  12.858  0.2589 -0.3182 -0.2199
  864TIP3    H124007   4.961   5.156  12.787 -0.7099 -1.4912  0.4190
  864TIP3    H224008   5.090   5.086  12.823 -0.6735 -1.5889  0.1073
  865TIP3   OH224009   3.799   2.953   0.114  0.5744 -0.4861 -0.1295
  865TIP3    H124010   3.744   2.922   0.186  3.8460 -1.9757  1.9810
  865TIP3    H224011   3.820   3.044   0.138  2.2806 -1.2028  1.4065
  866TIP3   OH224012   6.554   0.931  15.598  0.1199  0.7041 -0.4316
  866TIP3    H124013   6.606   1.003  15.635  1.1301 -0.5339  0.6236
  866TIP3    H224014   6.507   0.972  15.525  3.2347  1.7343 -2.0683
  867TIP3   OH224015   4.993   1.366  13.278 -0.5750  0.0619  0.3526
  867TIP3    H124016   4.911   1.394  13.237 -0.8455 -0.1441  0.7415
  867TIP3    H224017   4.982   1.388  13.371 -0.0212  0.4118  0.3399
  868TIP3   OH224018   4.235   4.660  12.838 -0.3994  0.1455 -0.1462
  868TIP3    H124019   4.220   4.716  12.915  0.3068  2.6004 -1.6638
  868TIP3    H224020   4.147   4.633  12.811 -0.7332  0.1740  0.8821
  869TIP3   OH224021   3.671   1.231  15.277 -0.3094  0.3678  0.5494
  869TIP3    H124022   3.756   1.271  15.260 -0.3433  0.8968  1.5158
  869TIP3    H224023   3.690   1.139  15.296 -0.0577  0.2781 -0.1327
  870TIP3   OH224024   3.226   2.177   4.776  0.1528  0.5730  0.1684
  870TIP3    H124025   3.238   2.207   4.686 -3.1980  0.3462 -0.4896
  870TIP3    H224026   3.286   2.104   4.786  0.5382  0.5582 -1.9214
  871TIP3   OH224027   1.802   6.474  11.246 -0.0936  0.3623  0.8122
  871TIP3    H124028   1.827   6.537  11.314 -0.8310  1.4566  0.1013
  871TIP3    H224029   1.824   6.517  11.164 -0.1504 -0.5245  0.3253
  872TIP3   OH224030   5.565   3.047  11.725  0.6675  0.5544  0.0920
  872TIP3    H124031   5.584   3.082  11.638  1.6421 -0.8315 -0.2734
  872TIP3    H224032   5.480   3.003  11.716  2.9215 -4.0609 -1.6407
  873TIP3   OH224033   3.712   1.994   4.964  0.0513  0.3213 -0.0616
  873TIP3    H124034   3.682   1.907   4.991 -1.2562  1.5040  2.6772
  873TIP3    H224035   3.758   2.029   5.040  0.9764  1.8724 -1.2621
  874TIP3   OH224036   1.576   1.802  15.907 -0.4324 -0.3757 -0.2122
  874TIP3    H124037   1.555   1.875  15.848  0.6253 -0.4424 -0.7012
  874TIP3    H224038   1.517   1.732  15.880 -0.1919 -0.2906 -0.9850
  875TIP3   OH224039   6.034   0.918  11.627 -0.2165  0.0072  0.3633
  875TIP3    H124040   5.984   0.840  11.647 -0.2125  0.0615  0.5950
  875TIP3    H224041   6.067   0.947  11.712  3.4164 -2.1774 -0.0864
  876TIP3   OH224042   0.286   0.117   2.333  0.3823  0.2176 -0.5273
  876TIP3    H124043   0.359   0.076   2.287  1.4470 -0.0936  1.3476
  876TIP3    H224044   0.236   0.044   2.369 -1.2177  0.3997 -2.1868
  877TIP3   OH224045   1.578   6.174  11.556 -0.0249  0.6772 -0.4605
  877TIP3    H124046   1.512   6.137  11.614  1.3852  0.0506  0.8219
  877TIP3    H224047   1.604   6.101  11.499 -1.4804  1.3154 -2.0493
  878TIP3   OH224048   5.824   4.192   0.144  0.0704  0.0306  0.3530
  878TIP3    H124049   5.914   4.224   0.149  0.3024 -0.7007  1.0613
  878TIP3    H224050   5.773   4.267   0.115  0.8300  0.6066  0.4895
  879TIP3   OH224051   3.147   5.202  13.599 -0.2428 -0.1070 -0.2927
  879TIP3    H124052   3.228   5.191  13.550  1.3500  3.8903  1.0465
  879TIP3    H224053   3.091   5.255  13.542 -0.0009  1.0959  0.5547
  880TIP3   OH224054   1.231   3.386   2.574  0.2168 -0.2100 -0.4768
  880TIP3    H124055   1.295   3.420   2.512 -0.1187  2.1556  0.3885
  880TIP3    H224056   1.149   3.383   2.525 -0.1583  2.1436 -0.0744
  881TIP3   OH224057   5.049   1.785   1.388  0.4845 -0.0719  0.2036
  881TIP3    H124058   5.038   1.880   1.399 -1.2312 -0.3045  0.8108
  881TIP3    H224059   4.960   1.751   1.389  0.9957 -1.5822 -1.2771
  882TIP3   OH224060   3.851   4.329   4.269 -0.1298 -0.8789  0.3154
  882TIP3    H124061   3.791   4.305   4.199  0.1307 -1.3426  0.2455
  882TIP3    H224062   3.847   4.424   4.273 -0.1203 -0.8474 -0.3554
  883TIP3   OH224063   2.632   0.854  12.325 -1.0240 -0.0889 -0.7741
  883TIP3    H124064   2.575   0.868  12.400  0.7752 -0.1385  0.6864
  883TIP3    H224065   2.636   0.758  12.317  1.3482 -0.2685  1.2737
  884TIP3   OH224066   5.422   1.988   1.344  0.1008  0.1492 -0.1068
  884TIP3    H124067   5.405   2.070   1.391 -0.1972 -0.5032  0.9629
  884TIP3    H224068   5.429   1.922   1.413 -1.5359 -1.0555 -1.0148
  885TIP3   OH224069   2.655   6.300  15.241 -0.1219  0.5133 -0.3686
  885TIP3    H124070   2.656   6.300  15.145  0.2157  0.6613 -0.3689
  885TIP3    H224071   2.563   6.311  15.264 -0.4364 -1.2480 -0.6709
  886TIP3   OH224072   3.146   1.361  15.106 -0.1368 -0.1546  0.1782
  886TIP3    H124073   3.193   1.434  15.146 -0.6400 -1.0154  2.4755
  886TIP3    H224074   3.192   1.283  15.135 -0.5755 -0.8489 -0.9064
  887TIP3   OH224075   0.774   4.811  14.868  0.1797  0.0673 -0.1488
  887TIP3    H124076   0.681   4.825  14.850 -0.1531 -1.2296  0.4234
  887TIP3    H224077   0.785   4.716  14.863  1.0104  0.0005  1.8877
  888TIP3   OH224078   2.339   0.509  16.172  0.2561  0.7037 -0.1080
  888TIP3    H124079   2.309   0.437  16.227 -0.7264  1.7558  0.7954
  888TIP3    H224080   2.425   0.531  16.206 -0.0066  0.8172  0.5074
  889TIP3   OH224081   1.700   5.619  11.417 -0.4789  0.0893  0.7702
  889TIP3    H124082   1.620   5.668  11.436  0.3219  2.1430 -0.7757
  889TIP3    H224083   1.771   5.678  11.444  0.5609 -1.6967  2.1365
  890TIP3   OH224084   4.073   0.163  15.038  0.2559 -0.2149 -0.1709
  890TIP3    H124085   4.002   0.134  14.981 -0.5754 -2.0661  1.6670
  890TIP3    H224086   4.032   0.223  15.099  0.1611 -1.4374  1.0187
  891TIP3   OH224087   1.006   4.740  13.890 -0.3700 -0.5213 -0.4891
  891TIP3    H124088   0.973   4.684  13.819 -0.7449  0.4076 -1.0658
  891TIP3    H224089   0.994   4.687  13.969 -0.3151 -1.4253 -1.0645
  892TIP3   OH224090   0.886   4.013  14.100 -0.2681  0.6024 -0.2733
  892TIP3    H124091   0.835   4.064  14.037 -0.3466 -0.3403 -0.9899
  892TIP3    H224092   0.883   4.065  14.180  0.7623  2.4027 -1.3187
  893TIP3   OH224093   3.941   2.378   0.438 -0.0748 -0.6913 -0.6473
  893TIP3    H124094   4.000   2.408   0.370 -0.3661 -0.1770 -0.6779
  893TIP3    H224095   3.943   2.282   0.432 -1.5343 -0.6598 -2.6329
  894TIP3   OH224096   0.004   5.412   3.325 -0.3941  0.2148 -0.0013
  894TIP3    H124097   0.024   5.340   3.265  2.8729 -0.7890  2.0345
  894TIP3    H224098   0.047   5.488   3.286  0.4876 -0.1064  0.3305
  895TIP3   OH224099   1.830   3.365   1.757 -0.0391 -0.1397  0.0940
  895TIP3    H124100   1.904   3.341   1.813 -0.4805  0.0416  0.7785
  895TIP3    H224101   1.789   3.282   1.734  2.0113 -0.5202 -2.7004
  896TIP3   OH224102   6.397   6.328  14.700  0.6026  0.5387 -0.2820
  896TIP3    H124103   6.481   6.284  14.713 -0.1914 -0.4541  2.2261
  896TIP3    H224104   6.341   6.262  14.661 -0.3570 -0.5827  2.7293
  897TIP3   OH224105   1.129   3.683   3.197 -0.2221  0.5503  0.0144
  897TIP3    H124106   1.056   3.622   3.205  0.7342 -0.6897 -0.3592
  897TIP3    H224107   1.104   3.743   3.127  0.0069 -1.1924 -1.6115
  898TIP3   OH224108   6.034   4.105  16.571 -0.1606 -0.3641 -0.1780
  898TIP3    H124109   6.110   4.092  16.514 -0.0491  0.6371 -0.2674
  898TIP3    H224110   6.055   4.183  16.622 -0.4836 -0.9364  0.8744
  899TIP3   OH224111   4.381   2.548  17.021 -0.3177 -0.1749  0.4857
  899TIP3    H124112   4.454   2.609  17.030  0.7099 -0.9825 -1.6464
  899TIP3    H224113   4.335   2.577  16.943  0.3520 -2.1860 -0.7483
  900TIP3   OH224114   1.747   2.466   1.540 -0.3044 -0.1828 -0.8625
  900TIP3    H124115   1.716   2.376   1.548  0.2324 -0.3879 -1.0617
  900TIP3    H224116   1.829   2.459   1.491 -0.2687  0.4148 -0.8914
  901TIP3   OH224117   0.194   3.036   3.335 -0.3816 -0.6177 -0.2480
  901TIP3    H124118   0.208   3.078   3.250  0.8935  0.1185  0.2934
  901TIP3    H224119   0.099   3.028   3.343 -0.5543  0.2036 -1.3062
  902TIP3   OH224120   2.490   5.537  15.043 -0.0496 -0.5296 -0.8134
  902TIP3    H124121   2.426   5.579  14.986  0.1498 -0.7925 -1.2268
  902TIP3    H224122   2.575   5.566  15.010  0.0360  0.7628  0.4476
  903TIP3   OH224123   6.377   3.843  15.897 -0.6051 -0.4202 -0.0784
  903TIP3    H124124   6.437   3.837  15.971 -1.2520 -1.9286  0.3515
  903TIP3    H224125   6.425   3.804  15.824 -0.8906 -1.2402  0.1640
  904TIP3   OH224126   1.677   3.704   2.930  0.1388  0.1845 -0.0155
  904TIP3    H124127   1.584   3.711   2.951  0.2091  2.0124 -0.1199
  904TIP3    H224128   1.721   3.709   3.015  0.1778  0.4946 -0.0532
  905TIP3   OH224129   2.664   4.916   6.189 -0.0871 -0.1370 -0.5429
  905TIP3    H124130   2.607   4.863   6.244  1.7809 -1.7890 -0.0926
  905TIP3    H224131   2.604   4.971   6.138 -1.9256  0.7152  2.3203
  906TIP3   OH224132   4.826   1.554   3.494 -0.5392  0.3304 -0.3776
  906TIP3    H124133   4.898   1.606   3.457  0.2495 -0.1414  0.4453
  906TIP3    H224134   4.759   1.619   3.516  0.4130  1.0247  0.6050
  907TIP3   OH224135   2.593   1.817  16.243 -0.2277  0.3647  0.5091
  907TIP3    H124136   2.596   1.900  16.291  0.2707 -0.1607  1.4025
  907TIP3    H224137   2.543   1.837  16.164 -0.6821  1.3570  1.0314
  908TIP3   OH224138   6.587   4.178  12.394 -0.4211  0.3929  0.0228
  908TIP3    H124139   6.671   4.221  12.406 -0.9454  1.7471 -0.8798
  908TIP3    H224140   6.576   4.123  12.471  1.8379 -0.7814 -0.4245
  909TIP3   OH224141   1.759   5.535  13.917  0.2824 -0.1948 -0.0816
  909TIP3    H124142   1.777   5.533  13.823  1.1035  1.1129  0.0224
  909TIP3    H224143   1.841   5.565  13.956 -0.0743 -0.6518  1.0512
  910TIP3   OH224144   2.941   5.994  13.731  0.4499  0.6738 -0.5209
  910TIP3    H124145   2.948   5.960  13.642  0.3043  1.5160 -0.8597
  910TIP3    H224146   3.017   5.957  13.776 -0.4507 -1.2446 -0.4757
  911TIP3   OH224147   0.010   2.359   1.436 -0.0351  0.1780  0.1455
  911TIP3    H124148   0.089   2.348   1.489  0.5533  0.7430 -0.5807
  911TIP3    H224149  -0.002   2.274   1.393 -1.1449 -0.6397  1.9759
  912TIP3   OH224150   4.743   2.696   2.246 -0.3157 -0.1705 -0.1773
  912TIP3    H124151   4.817   2.663   2.196  1.3261  0.8724  1.4513
  912TIP3    H224152   4.677   2.626   2.240  0.7887 -1.1416 -1.6494
  913TIP3   OH224153   5.849   2.397  15.076 -0.0447 -0.7141  0.0342
  913TIP3    H124154   5.843   2.371  14.984  2.1922  0.4529 -0.5202
  913TIP3    H224155   5.842   2.492  15.075  1.4822 -0.5518  0.8487
  914TIP3   OH224156   4.116   6.715  11.977 -0.0716  0.3676  0.6019
  914TIP3    H124157   4.138   6.781  12.043  2.6829  0.1212  0.0709
  914TIP3    H224158   4.146   6.753  11.895 -1.2171 -0.3340 -0.1633
  915TIP3   OH224159   1.457   1.986   1.989  0.0155 -0.5272 -0.1793
  915TIP3    H124160   1.375   2.032   1.970  1.2802  1.0845 -2.2442
  915TIP3    H224161   1.486   2.021   2.074 -1.3831 -1.1067  0.5584
  916TIP3   OH224162   4.959   0.854   6.397 -0.1198 -0.2035 -0.2309
  916TIP3    H124163   4.887   0.823   6.453 -0.1335 -1.5512 -0.9537
  916TIP3    H224164   5.015   0.904   6.456 -0.3926 -1.1670  0.8907
  917TIP3   OH224165   3.622   3.195   0.185  0.1046  0.5727  0.0084
  917TIP3    H124166   3.619   3.132   0.257 -1.7468  1.3351  0.6436
  917TIP3    H224167   3.538   3.185   0.140  0.0602  2.0720 -0.3055
  918TIP3   OH224168   5.233   6.275   3.397  0.8065 -0.4530 -0.3363
  918TIP3    H124169   5.267   6.222   3.469  0.9471  0.4577  0.2976
  918TIP3    H224170   5.284   6.249   3.321  0.5038 -1.5926 -0.1649
  919TIP3   OH224171   2.924   3.313   5.711 -0.6299 -0.1096  0.6843
  919TIP3    H124172   2.848   3.281   5.662 -0.6737  1.0475 -0.0429
  919TIP3    H224173   2.997   3.258   5.680 -0.9118 -0.3012  0.3453
  920TIP3   OH224174   4.528   2.012   2.631 -0.1243  0.0659  0.3325
  920TIP3    H124175   4.457   2.073   2.649 -0.9344 -0.4913 -0.8180
  920TIP3    H224176   4.608   2.066   2.633 -0.6727  0.8857  0.6663
  921TIP3   OH224177   5.084   5.301  13.090 -0.1706  0.8953  0.1271
  921TIP3    H124178   5.075   5.224  13.034  0.7676  0.1072  1.0482
  921TIP3    H224179   5.071   5.375  13.030  5.3924  0.3690 -2.3335
  922TIP3   OH224180   5.540   3.999  15.987  0.3286  0.5300  0.5177
  922TIP3    H124181   5.534   4.072  16.049  0.0450 -0.0446  1.1840
  922TIP3    H224182   5.449   3.981  15.963  0.3544  0.0590  0.7644
  923TIP3   OH224183   6.584   4.755   0.735  0.2955 -0.5064  0.1928
  923TIP3    H124184   6.521   4.687   0.709 -0.5750  0.0124  0.8773
  923TIP3    H224185   6.658   4.743   0.675  0.0188 -1.8305  0.0732
  924TIP3   OH224186   2.583   4.657   3.375 -0.1081 -0.2622  0.1573
  924TIP3    H124187   2.627   4.737   3.347  1.1301 -0.2270  2.0301
  924TIP3    H224188   2.647   4.588   3.360  0.4945 -0.2827  2.4340
  925TIP3   OH224189   1.308   5.138   2.884 -0.6022 -0.1305  0.2144
  925TIP3    H124190   1.298   5.049   2.919 -3.0112  0.3362  0.9037
  925TIP3    H224191   1.315   5.193   2.962 -1.1115  0.4763 -0.1675
  926TIP3   OH224192   6.675   2.175  15.468 -0.2259  0.2620  0.2879
  926TIP3    H124193   6.666   2.209  15.379  1.5253 -0.6429 -0.2819
  926TIP3    H224194   6.611   2.103  15.472  0.1875 -0.1626 -0.5028
  927TIP3   OH224195   1.749   6.203   3.866 -0.0003 -0.1251  0.1187
  927TIP3    H124196   1.839   6.195   3.897 -0.4519  0.1099  1.5724
  927TIP3    H224197   1.729   6.118   3.828 -0.1902 -1.3252  2.7266
  928TIP3   OH224198   3.278   4.878  13.478 -0.4548 -0.3598 -0.5346
  928TIP3    H124199   3.230   4.864  13.559  1.1894 -2.0037  0.2602
  928TIP3    H224200   3.364   4.839  13.495  0.8749  1.6530 -2.1561
  929TIP3   OH224201   0.246   0.282  14.883 -0.4467  1.0240  1.0812
  929TIP3    H124202   0.244   0.297  14.977  0.3806  0.1891  1.2383
  929TIP3    H224203   0.278   0.193  14.872 -1.3488  0.7989  0.0270
  930TIP3   OH224204   3.794   4.608   1.554  0.6597  0.5441  0.4992
  930TIP3    H124205   3.713   4.556   1.562  0.6535  0.6775  1.3688
  930TIP3    H224206   3.775   4.671   1.485  0.8371 -0.9165 -0.9347
  931TIP3   OH224207   5.072   5.384  16.047 -0.0816  0.4141  0.3486
  931TIP3    H124208   5.111   5.451  16.102  0.6919  0.4528 -0.2388
  931TIP3    H224209   4.977   5.396  16.057  0.0283  2.2254 -0.5094
  932TIP3   OH224210   2.014   1.108  12.760 -0.3099  0.1509  0.4789
  932TIP3    H124211   2.068   1.182  12.731  0.1686 -0.5767 -0.5242
  932TIP3    H224212   1.952   1.094  12.688 -1.5693  0.6817  1.4148
  933TIP3   OH224213   6.756   1.356  10.751 -0.4268 -0.4134  0.1457
  933TIP3    H124214   6.754   1.263  10.772 -0.0516 -0.1390  1.4753
  933TIP3    H224215   6.671   1.373  10.711 -0.1077 -1.5209 -1.0990
  934TIP3   OH224216   4.106   2.753  14.934 -0.3215  0.3175  0.1067
  934TIP3    H124217   4.143   2.673  14.896  0.5161  0.5227  0.4704
  934TIP3    H224218   4.177   2.817  14.928 -1.2186  1.2709 -0.8603
  935TIP3   OH224219   2.579   5.682   5.592  0.2543 -0.4520 -0.5098
  935TIP3    H124220   2.631   5.684   5.673  1.6663  0.3599 -1.4055
  935TIP3    H224221   2.515   5.613   5.608  0.0767  0.1010  1.5519
  936TIP3   OH224222   5.946   5.286   5.382 -0.3702 -0.1432 -0.1803
  936TIP3    H124223   6.040   5.290   5.396 -0.5250  0.9754  0.7794
  936TIP3    H224224   5.916   5.214   5.437  0.0565 -1.3809 -1.5140
  937TIP3   OH224225   2.184   1.412  16.615  0.1326 -0.1503  0.7079
  937TIP3    H124226   2.101   1.390  16.657  0.1639 -2.3938 -0.2386
  937TIP3    H224227   2.183   1.363  16.532  1.1774  2.0606 -0.7149
  938TIP3   OH224228   4.163   4.047   5.875 -0.1926 -0.2167 -0.2851
  938TIP3    H124229   4.092   4.111   5.880  0.7295  0.8635 -0.6461
  938TIP3    H224230   4.182   4.039   5.781  1.6222  1.2096 -0.1029
  939TIP3   OH224231   3.233   2.364   5.789  0.7550 -0.1737 -0.2923
  939TIP3    H124232   3.208   2.356   5.882  0.2078  1.4564 -0.2742
  939TIP3    H224233   3.150   2.373   5.743  1.0696  0.0023 -0.8303
  940TIP3   OH224234   6.627   2.301  15.235 -0.2006 -0.0801  0.2035
  940TIP3    H124235   6.720   2.317  15.215  0.1762 -0.1363  1.7935
  940TIP3    H224236   6.584   2.385  15.222 -0.3909 -0.5359 -2.7468
  941TIP3   OH224237   6.758   4.804   6.113 -0.3446  0.1640  0.1433
  941TIP3    H124238   6.689   4.868   6.133  0.1055  0.6002  0.3205
  941TIP3    H224239   6.735   4.728   6.166  0.1172  0.8434  1.3549
  942TIP3   OH224240   5.546   2.748  13.505  0.0182 -0.0152 -0.3078
  942TIP3    H124241   5.490   2.674  13.483 -2.2050  1.1428  1.0936
  942TIP3    H224242   5.516   2.776  13.591  1.2285  2.1123 -0.5090
  943TIP3   OH224243   0.718   1.131   1.110  0.0434 -0.0109 -0.0535
  943TIP3    H124244   0.782   1.198   1.086 -0.3635  0.4518  0.1412
  943TIP3    H224245   0.769   1.050   1.112  1.1473  0.6445  2.2047
  944TIP3   OH224246   5.492   3.869   2.161  0.5468 -0.0205  0.7072
  944TIP3    H124247   5.419   3.841   2.216  0.2704  0.4394  0.5806
  944TIP3    H224248   5.471   3.834   2.074  1.6900 -1.9886  1.1636
  945TIP3   OH224249   4.222   0.221  13.367  0.4808 -0.1171  0.0174
  945TIP3    H124250   4.259   0.172  13.441  0.1564  0.5298  0.6255
  945TIP3    H224251   4.128   0.202  13.371  0.4254  0.1452 -0.0629
  946TIP3   OH224252   4.353   5.085  15.841  0.0130 -0.2067  0.3709
  946TIP3    H124253   4.363   5.101  15.934 -1.0779  0.0551  0.4561
  946TIP3    H224254   4.423   5.136  15.800 -0.0553  0.3972  0.9940
  947TIP3   OH224255   1.977   4.143  11.442 -0.0395 -0.1332 -0.1830
  947TIP3    H124256   1.898   4.090  11.451 -1.6341  2.1333  0.0274
  947TIP3    H224257   1.971   4.207  11.512  1.0597  1.2080 -1.2504
  948TIP3   OH224258   5.672   0.069  12.645 -0.3659 -0.0980 -0.0241
  948TIP3    H124259   5.664   0.038  12.736 -1.1713 -0.1570 -0.1070
  948TIP3    H224260   5.761   0.104  12.640  0.3308 -1.7118  0.2930
  949TIP3   OH224261   2.430   5.819   4.685 -0.3181 -0.8840 -0.5459
  949TIP3    H124262   2.370   5.827   4.759  1.7576 -1.2561  1.2929
  949TIP3    H224263   2.459   5.908   4.668  0.0291 -0.9216 -0.1649
  950TIP3   OH224264   2.625   4.674  16.866 -0.6330  0.1656  0.7390
  950TIP3    H124265   2.659   4.630  16.789 -0.4644 -0.6665  1.2806
  950TIP3    H224266   2.698   4.728  16.897 -0.2357 -0.5692  1.1094
  951TIP3   OH224267   0.035   5.155  16.473  0.3646 -0.3779  0.6408
  951TIP3    H124268  -0.011   5.199  16.546  0.9105  1.4529 -0.0533
  951TIP3    H224269   0.118   5.128  16.511  0.6702  0.6143  0.7134
  952TIP3   OH224270   0.973   0.576  15.921 -0.8716 -0.2641  0.3540
  952TIP3    H124271   0.919   0.563  15.844 -0.2274 -0.5999 -0.0530
  952TIP3    H224272   0.928   0.644  15.971 -0.4507  1.2101 -1.1411
  953TIP3   OH224273   0.765   5.375  14.273  0.1570 -0.6047  0.7261
  953TIP3    H124274   0.748   5.446  14.211  0.0194 -0.8609  0.4670
  953TIP3    H224275   0.690   5.377  14.333  1.3275  1.0733  2.2773
  954TIP3   OH224276   4.059   4.023  14.545 -0.0651  0.6863  0.3003
  954TIP3    H124277   4.048   4.080  14.468 -1.1949 -1.9606 -1.6896
  954TIP3    H224278   4.127   3.961  14.519 -0.0097  0.1293  1.7088
  955TIP3   OH224279   3.321   0.638   4.099  0.2596  0.4049 -0.0767
  955TIP3    H124280   3.408   0.598   4.091 -0.0839 -0.1565 -1.3446
  955TIP3    H224281   3.268   0.592   4.033 -0.1682  2.9394 -1.6184
  956TIP3   OH224282   2.718   4.340   6.288  0.3332 -0.4690  0.3114
  956TIP3    H124283   2.622   4.345   6.288  0.3943  1.4926  0.5095
  956TIP3    H224284   2.741   4.327   6.380  0.2832 -0.3510  0.3402
  957TIP3   OH224285   4.965   3.385  15.351 -0.5682 -0.8553  0.0942
  957TIP3    H124286   4.980   3.389  15.446  1.4262 -0.7422 -0.1740
  957TIP3    H224287   5.046   3.420  15.313 -1.8926  0.4743 -1.6525
  958TIP3   OH224288   0.434   1.878  11.984  0.5203  0.0654  0.0106
  958TIP3    H124289   0.344   1.850  11.969  1.1804 -1.2883 -1.7830
  958TIP3    H224290   0.456   1.929  11.906  0.5960  2.4872  1.5053
  959TIP3   OH224291   1.231   6.043   5.083 -0.1995  0.4965 -0.2454
  959TIP3    H124292   1.254   6.115   5.142 -0.0170  0.7671 -0.6346
  959TIP3    H224293   1.208   6.087   5.001 -1.3327  0.1902 -0.1138
  960TIP3   OH224294   3.691   0.891   3.024  0.2893  0.3369 -0.3987
  960TIP3    H124295   3.751   0.829   3.064  1.9998  1.9596 -0.3600
  960TIP3    H224296   3.654   0.940   3.097 -2.0216 -1.3564 -0.3156
  961TIP3   OH224297   5.196   4.284  13.657  0.0798  0.2693 -0.2908
  961TIP3    H124298   5.281   4.260  13.694 -0.1901  0.1483  0.2477
  961TIP3    H224299   5.132   4.238  13.711 -0.4250  1.7999  0.4637
  962TIP3   OH224300   0.555   2.513   3.996  0.4977  0.3355 -0.3406
  962TIP3    H124301   0.547   2.421   4.018  0.7920  0.0615 -1.3128
  962TIP3    H224302   0.615   2.549   4.061 -0.3959  0.0866  0.6584
  963TIP3   OH224303   0.199   1.119  13.951 -0.3535  0.4356 -0.0307
  963TIP3    H124304   0.116   1.161  13.930  0.0198  1.5401  0.5698
  963TIP3    H224305   0.175   1.034  13.988 -1.1175 -0.1323 -1.7202
  964TIP3   OH224306   0.816   5.978   3.452  0.4597  0.5451 -0.2509
  964TIP3    H124307   0.737   5.925   3.442  0.2246  0.8208  0.1304
  964TIP3    H224308   0.833   6.011   3.364  2.2961 -2.4838 -1.1837
  965TIP3   OH224309   4.369   0.554   0.529 -0.0494 -0.2209  0.0624
  965TIP3    H124310   4.278   0.564   0.502  0.0287 -1.5896 -0.8097
  965TIP3    H224311   4.420   0.580   0.452  0.3252  1.0231  0.7127
  966TIP3   OH224312   1.123   1.029   0.031  0.0517 -0.4183  0.1911
  966TIP3    H124313   1.204   0.979   0.046  0.0898 -0.2824  0.4492
  966TIP3    H224314   1.054   0.976   0.071  0.4379  1.0201  3.0488
  967TIP3   OH224315   5.601   4.563   4.355  0.4503 -0.0947 -0.2995
  967TIP3    H124316   5.539   4.636   4.351 -0.6498 -0.8083  1.9311
  967TIP3    H224317   5.565   4.497   4.296  0.2626  0.3248 -0.6536
  968TIP3   OH224318   2.235   3.940   1.229 -0.3304  0.6346 -0.4338
  968TIP3    H124319   2.253   4.033   1.246 -0.3809  0.1207  3.1161
  968TIP3    H224320   2.153   3.922   1.274 -1.2652 -0.8294 -2.5423
  969TIP3   OH224321   4.504   4.565  16.975  0.5873  0.2113  0.2786
  969TIP3    H124322   4.524   4.563  16.881  0.5537  2.4011  0.1787
  969TIP3    H224323   4.586   4.592  17.016  0.1186  1.0474  0.6899
  970TIP3   OH224324   4.802   3.350   3.527 -0.5601 -0.0276 -0.3015
  970TIP3    H124325   4.859   3.303   3.589 -1.2837 -0.5196 -0.0031
  970TIP3    H224326   4.863   3.389   3.465  0.2861  1.3600  1.2964
  971TIP3   OH224327   3.821   3.772  15.384  0.0873  0.2277  0.4117
  971TIP3    H124328   3.878   3.708  15.340  1.1400  0.1815  1.7712
  971TIP3    H224329   3.767   3.720  15.443 -1.5678  0.2510 -1.0102
  972TIP3   OH224330   1.089   3.279  13.880  0.2155 -0.0682 -0.7162
  972TIP3    H124331   1.020   3.326  13.834 -1.0840 -0.8665  0.3219
  972TIP3    H224332   1.126   3.220  13.814 -2.4443 -2.0872 -0.5519
  973TIP3   OH224333   2.437   3.076   1.464 -0.0052  0.4599 -0.0833
  973TIP3    H124334   2.441   3.047   1.373  2.5588 -3.1875  0.9921
  973TIP3    H224335   2.524   3.110   1.482 -0.5174  1.2416  1.0086
  974TIP3   OH224336   1.308   4.645  14.698  0.3325  0.1539 -0.3468
  974TIP3    H124337   1.249   4.720  14.708 -0.9462 -0.7846 -0.6519
  974TIP3    H224338   1.253   4.575  14.666  2.0460 -0.1588 -2.9191
  975TIP3   OH224339   1.444   4.642  12.086 -0.1926 -0.2468  0.3520
  975TIP3    H124340   1.384   4.582  12.040 -1.9956  0.7515  1.2810
  975TIP3    H224341   1.442   4.612  12.177  2.0742 -1.2066  0.1421
  976TIP3   OH224342   3.793   2.424   4.696 -0.0787 -0.1046 -0.5547
  976TIP3    H124343   3.757   2.340   4.722  0.7438 -0.0335  0.9681
  976TIP3    H224344   3.742   2.488   4.745  0.2476  0.1833 -0.5862
  977TIP3   OH224345   2.240   2.317   1.371 -0.3613 -0.3619 -0.1296
  977TIP3    H124346   2.311   2.330   1.433 -0.3815 -0.7272 -0.0238
  977TIP3    H224347   2.160   2.331   1.422 -0.4361 -2.1738  0.3512
  978TIP3   OH224348   4.761   5.993   0.836  0.0818  0.2265 -0.1483
  978TIP3    H124349   4.806   6.061   0.787  0.1246  1.2361  1.2285
  978TIP3    H224350   4.793   6.004   0.926  0.1037 -1.6271  0.1100
  979TIP3   OH224351   3.503   6.697   2.424  0.1570  0.3681  0.4409
  979TIP3    H124352   3.571   6.749   2.380 -0.9952  0.9136 -0.7773
  979TIP3    H224353   3.461   6.649   2.353 -1.2022  0.6069  1.0584
  980TIP3   OH224354   0.839   2.883   3.522  0.0836 -0.3928  0.4824
  980TIP3    H124355   0.844   2.791   3.547 -1.7803 -0.2487  1.5880
  980TIP3    H224356   0.746   2.905   3.529  0.6268  1.8899  1.4072
  981TIP3   OH224357   0.891   5.954  10.927  0.3900 -0.2142  0.4174
  981TIP3    H124358   0.897   5.922  10.837 -0.9518  0.9754 -0.1528
  981TIP3    H224359   0.952   5.901  10.977  1.7507 -0.3726 -1.3505
  982TIP3   OH224360   6.244   6.169  12.592  0.0479 -0.2246  0.0260
  982TIP3    H124361   6.309   6.192  12.658 -1.9583 -0.2616  2.1361
  982TIP3    H224362   6.250   6.073  12.585 -0.9584 -0.4253  1.5691
  983TIP3   OH224363   2.130   4.248  16.282 -0.0569  0.4460  0.1069
  983TIP3    H124364   2.051   4.217  16.239  1.3386 -0.5352 -1.9504
  983TIP3    H224365   2.125   4.344  16.277 -0.6955  0.3728 -0.8486
  984TIP3   OH224366   2.408   2.921   5.322 -0.1088 -0.1109  0.1408
  984TIP3    H124367   2.493   2.897   5.285 -0.5854 -0.0008 -1.0985
  984TIP3    H224368   2.405   3.016   5.315  0.2327  0.0205  1.5216
  985TIP3   OH224369   2.638   5.313   5.679  0.0685 -0.1404  0.0612
  985TIP3    H124370   2.633   5.262   5.759 -0.1994 -2.2401 -1.2078
  985TIP3    H224371   2.567   5.377   5.686 -0.1203 -0.4686  1.3587
  986TIP3   OH224372   3.227   6.342   3.617  0.0726 -0.6310 -0.7209
  986TIP3    H124373   3.151   6.379   3.573  0.2302 -0.5495 -0.9295
  986TIP3    H224374   3.299   6.401   3.594 -0.0534  0.0777  0.5913
  987TIP3   OH224375   3.860   6.695  14.831  0.0190  0.4729 -0.1256
  987TIP3    H124376   3.801   6.664  14.762  1.8758 -0.9463 -1.1697
  987TIP3    H224377   3.947   6.665  14.803  1.1539  1.8818  1.6923
  988TIP3   OH224378   4.571   6.725  16.682  0.4333  0.2297  0.0098
  988TIP3    H124379   4.499   6.672  16.717 -0.0019  1.1369  0.5199
  988TIP3    H224380   4.530   6.809  16.660  1.0989  0.3469 -0.8296
  989TIP3   OH224381   3.070   5.305   5.776 -0.3143 -1.1470  0.6561
  989TIP3    H124382   3.020   5.289   5.856 -1.4106 -0.3220  0.1682
  989TIP3    H224383   3.013   5.273   5.706  0.5324 -1.6437  0.1960
  990TIP3   OH224384   6.558   2.242   6.521  0.4075  0.1772 -0.2184
  990TIP3    H124385   6.601   2.295   6.588  1.5032  1.1764 -1.6582
  990TIP3    H224386   6.570   2.152   6.551  0.1983  0.6121  1.2952
  991TIP3   OH224387   1.753   0.141  16.055 -0.0752 -0.0518 -0.1051
  991TIP3    H124388   1.721   0.231  16.045 -0.8596 -0.1044  1.6331
  991TIP3    H224389   1.678   0.086  16.032 -0.4412 -0.2087  1.4026
  992TIP3   OH224390   4.205   4.794   4.571  0.1039  0.2725 -0.4224
  992TIP3    H124391   4.265   4.762   4.638  1.2046  1.0315 -1.0150
  992TIP3    H224392   4.127   4.821   4.620  0.3322 -0.5022  0.3879
  993TIP3   OH224393   3.970   1.046   2.522  0.4088 -0.2895 -0.4039
  993TIP3    H124394   3.975   1.016   2.612  1.8693 -0.3538 -0.4783
  993TIP3    H224395   4.002   0.972   2.470  0.4429  0.0607 -0.8967
  994TIP3   OH224396   4.050   3.683  14.682  0.2064  0.3688  0.1342
  994TIP3    H124397   4.067   3.639  14.766  2.0322 -0.7460 -0.7768
  994TIP3    H224398   4.036   3.774  14.706  0.3246  0.0154  1.6877
  995TIP3   OH224399   0.796   4.372   1.341  0.5270  0.1074  0.2185
  995TIP3    H124400   0.779   4.320   1.419 -1.2665  2.1097  1.2953
  995TIP3    H224401   0.737   4.337   1.275  1.2247 -0.8600  0.0903
  996TIP3   OH224402   0.725   2.810  17.014 -0.0044 -0.1112  0.2288
  996TIP3    H124403   0.812   2.807  17.054  0.5249  1.8524 -0.6139
  996TIP3    H224404   0.735   2.763  16.931  0.0450 -0.5327  0.4723
  997TIP3   OH224405   5.433   1.025  11.267  0.1831 -0.9729 -0.1238
  997TIP3    H124406   5.344   1.052  11.289 -0.3362 -2.0851 -0.7162
  997TIP3    H224407   5.431   1.014  11.171  1.2298 -0.1034 -0.2642
  998TIP3   OH224408   2.833   2.248  12.826 -0.5816  0.6465  0.1577
  998TIP3    H124409   2.820   2.197  12.906 -0.1429 -1.5813 -1.1229
  998TIP3    H224410   2.927   2.241  12.809 -0.9601 -0.7062 -1.6382
  999TIP3   OH224411   1.825   6.498  11.664 -0.1086 -0.1033  0.2602
  999TIP3    H124412   1.793   6.439  11.731  1.2244 -0.6880  0.4272
  999TIP3    H224413   1.819   6.447  11.583  0.7089 -0.3655  0.3511
 1000TIP3   OH224414   4.377   1.129  14.663 -0.3492  0.2118 -0.3828
 1000TIP3    H124415   4.341   1.202  14.714  0.7335  0.5995 -0.1421
 1000TIP3    H224416   4.462   1.111  14.704  0.2471  0.0877 -1.6342
 1001TIP3   OH224417   1.700   1.614   0.050 -0.1254 -0.5506 -0.6812
 1001TIP3    H124418   1.708   1.709   0.058  1.2717 -0.5388 -1.8371
 1001TIP3    H224419   1.625   1.591   0.105 -1.0261  1.3131 -1.0696
 1002TIP3   OH224420   3.545   6.532  15.387 -0.0812 -0.1580 -0.5192
 1002TIP3    H124421   3.466   6.523  15.440 -1.7327  0.3958 -2.7589
 1002TIP3    H224422   3.582   6.443  15.384 -2.0048 -0.9746 -1.4353
 1003TIP3   OH224423   0.031   1.028   3.582 -0.2051  0.4937  0.3647
 1003TIP3    H124424  -0.044   0.990   3.536  0.5104  0.4107 -0.7846
 1003TIP3    H224425   0.031   0.987   3.668 -1.2265  0.1794  0.2204
 1004TIP3   OH224426   1.058   6.806   2.275 -0.5489 -0.1767 -0.2225
 1004TIP3    H124427   1.148   6.820   2.246 -0.1636 -0.6086  0.7092
 1004TIP3    H224428   1.006   6.814   2.196  0.2449  0.6434 -0.6898
 1005TIP3   OH224429   6.499   1.922   5.335 -0.3167 -0.0189  0.5098
 1005TIP3    H124430   6.586   1.888   5.318 -0.3133 -0.1595  0.8054
 1005TIP3    H224431   6.462   1.862   5.400 -1.0666 -0.6587 -0.4575
 1006TIP3   OH224432   1.725   1.249  16.775  0.5644 -0.4601 -0.2283
 1006TIP3    H124433   1.646   1.260  16.722  0.0769  2.2975  0.8694
 1006TIP3    H224434   1.797   1.268  16.715  0.3287 -1.5514 -0.8811
 1007TIP3   OH224435   1.958   5.911   3.610  0.1661  0.2215  0.3002
 1007TIP3    H124436   1.987   5.979   3.549  0.9402  2.4080  2.9400
 1007TIP3    H224437   2.037   5.884   3.656 -0.5648 -0.4452  1.2204
 1008TIP3   OH224438   3.116   4.921  14.955  0.1703 -0.3959  0.0050
 1008TIP3    H124439   3.043   4.963  14.909 -0.0522 -0.6041  0.1666
 1008TIP3    H224440   3.075   4.852  15.007  0.6823 -1.8821 -1.4738
 1009TIP3   OH224441   4.429   0.074  15.809  0.9920  0.3027 -0.0001
 1009TIP3    H124442   4.494   0.061  15.741  0.5785 -0.3229 -0.2884
 1009TIP3    H224443   4.378  -0.007  15.809 -0.8286  1.3841 -0.9069
 1010TIP3   OH224444   1.569   3.101  14.878 -0.7178 -0.3217  0.1713
 1010TIP3    H124445   1.651   3.079  14.834 -0.1245  0.7017  0.7358
 1010TIP3    H224446   1.592   3.102  14.971 -0.5374  3.1795  0.1921
 1011TIP3   OH224447   1.437   2.617   0.051  0.2408 -0.3906  0.0033
 1011TIP3    H124448   1.420   2.656  -0.035 -0.2005  0.1481  0.3301
 1011TIP3    H224449   1.413   2.525   0.041  0.4532 -0.3924 -0.5256
 1012TIP3   OH224450   0.777   0.586  15.716  0.3733  0.2545  0.3184
 1012TIP3    H124451   0.790   0.539  15.633  0.7856  1.0283 -0.0705
 1012TIP3    H224452   0.687   0.567  15.741  0.1843  0.1619 -0.4102
 1013TIP3   OH224453   5.370   1.260   1.874 -0.8482 -0.0017 -0.3909
 1013TIP3    H124454   5.331   1.269   1.961 -0.1405 -0.7997  0.0233
 1013TIP3    H224455   5.312   1.310   1.816 -1.2564  0.6451  0.5540
 1014TIP3   OH224456   2.029   6.100   5.673  0.5993 -0.3890 -0.2881
 1014TIP3    H124457   2.002   6.126   5.761 -1.0534 -0.1580 -0.8316
 1014TIP3    H224458   2.031   6.004   5.675  2.9482 -0.3788  0.6402
 1015TIP3   OH224459   3.065   1.255   4.669 -0.5645 -0.0811 -0.2840
 1015TIP3    H124460   3.006   1.330   4.655 -0.1533  0.0093 -1.7104
 1015TIP3    H224461   3.141   1.293   4.713  0.3617  0.7365 -2.4234
 1016TIP3   OH224462   4.212   3.412  11.842  0.3226 -0.3577  0.2307
 1016TIP3    H124463   4.240   3.323  11.864 -2.4068 -1.0385  1.2830
 1016TIP3    H224464   4.137   3.400  11.784 -1.7714  1.1136  2.4426
 1017TIP3   OH224465   6.611   4.354  14.604  0.2327  1.0092  0.9799
 1017TIP3    H124466   6.586   4.385  14.691 -1.1180  2.6598  0.0716
 1017TIP3    H224467   6.619   4.433  14.551  2.6088  0.1666 -0.0716
 1018TIP3   OH224468   0.357   3.439  16.249 -0.0143  0.5875  0.1608
 1018TIP3    H124469   0.336   3.527  16.278  3.2963  1.7252 -0.4025
 1018TIP3    H224470   0.280   3.410  16.201 -1.9034  2.3865  1.9083
 1019TIP3   OH224471   4.667   3.027  14.066 -0.1473  0.2817  0.1818
 1019TIP3    H124472   4.753   2.993  14.041  0.1680 -0.2443  1.8655
 1019TIP3    H224473   4.673   3.041  14.160 -1.4406  1.6802  0.0862
 1020TIP3   OH224474   5.396   1.538  14.387  0.4205  0.3558  0.0992
 1020TIP3    H124475   5.414   1.480  14.461 -1.0897 -0.2886  0.0119
 1020TIP3    H224476   5.467   1.602  14.388  2.0640 -1.3618  0.3346
 1021TIP3   OH224477   5.085   2.118  11.985 -0.6515  0.1787 -0.2897
 1021TIP3    H124478   5.051   2.060  12.053 -0.0535  1.5490  1.2457
 1021TIP3    H224479   5.007   2.148  11.938 -1.0189 -1.3438 -0.7272
 1022TIP3   OH224480   2.550   3.760  14.173  0.3042 -0.2337  0.5154
 1022TIP3    H124481   2.457   3.738  14.174  0.1531  0.2455  3.2023
 1022TIP3    H224482   2.583   3.732  14.259  2.2824  1.0659  0.2493
 1023TIP3   OH224483   5.026   2.131   4.092  0.0935 -0.3553  0.5393
 1023TIP3    H124484   5.086   2.185   4.144  1.4488 -0.4995 -0.8143
 1023TIP3    H224485   5.073   2.114   4.010 -0.8014 -2.5445  0.4080
 1024TIP3   OH224486   4.835   5.253  10.819 -0.6051 -0.3716 -0.4688
 1024TIP3    H124487   4.772   5.295  10.877  0.0290  1.6244 -1.1420
 1024TIP3    H224488   4.809   5.280  10.731 -0.0328 -1.2530 -0.9314
 1025TIP3   OH224489   5.622   0.667  13.488  0.4434  0.1702  0.3809
 1025TIP3    H124490   5.567   0.686  13.563  2.5528 -1.0287  2.3366
 1025TIP3    H224491   5.672   0.590  13.513  0.3336 -1.0728 -2.7883
 1026TIP3   OH224492   5.920   5.640  16.119 -0.2497  0.4536 -0.4794
 1026TIP3    H124493   5.986   5.615  16.184 -0.7650  0.0482 -0.0913
 1026TIP3    H224494   5.847   5.672  16.172 -0.4130  0.7598 -0.8942
 1027TIP3   OH224495   3.989   5.343  12.276 -0.0311 -0.1283 -0.2160
 1027TIP3    H124496   4.074   5.301  12.288  1.0057  1.1303 -2.5164
 1027TIP3    H224497   3.931   5.272  12.247  1.0635 -0.4720 -1.6527
 1028TIP3   OH224498   2.509   6.714  12.467 -0.1815 -0.3773 -0.2895
 1028TIP3    H124499   2.582   6.773  12.448 -1.0822  0.6780 -0.5690
 1028TIP3    H224500   2.481   6.681  12.382 -1.1859  0.6537 -0.3767
 1029TIP3   OH224501   4.940   0.757   4.581  0.2155  0.8552 -0.2110
 1029TIP3    H124502   4.948   0.852   4.588 -0.3005  0.8848  0.0217
 1029TIP3    H224503   4.989   0.734   4.502  1.3312  1.1778  0.3818
 1030TIP3   OH224504   2.114   6.695  15.712  0.2011 -0.1917  0.1059
 1030TIP3    H124505   2.059   6.761  15.754  0.3736  0.5843 -0.8487
 1030TIP3    H224506   2.159   6.743  15.642 -2.3469 -1.9824 -3.0319
 1031TIP3   OH224507   4.020   6.195  13.218 -0.8693 -0.1346  0.2201
 1031TIP3    H124508   4.016   6.280  13.175 -0.7443 -0.5670 -0.6745
 1031TIP3    H224509   3.930   6.176  13.243 -1.3509 -0.8028 -1.7698
 1032TIP3   OH224510   5.289   2.361   5.304 -0.2231  0.2475  0.1027
 1032TIP3    H124511   5.270   2.284   5.359  0.4705 -0.8170 -1.0904
 1032TIP3    H224512   5.275   2.436   5.362 -0.9248 -0.7717  1.3056
 1033TIP3   OH224513   0.603   4.234  14.611  0.4012 -0.0451 -0.5932
 1033TIP3    H124514   0.633   4.263  14.525  0.4911 -0.0374 -0.5599
 1033TIP3    H224515   0.630   4.305  14.670 -1.5639  1.0233 -0.8719
 1034TIP3   OH224516   6.771   0.919  14.290 -0.1769 -0.2102 -0.2166
 1034TIP3    H124517   6.862   0.929  14.263 -0.2689 -1.4400 -1.0571
 1034TIP3    H224518   6.775   0.869  14.371 -0.0970 -0.0917 -0.1473
 1035TIP3   OH224519   0.195   5.491   2.335 -0.3145  0.1536 -0.1634
 1035TIP3    H124520   0.194   5.559   2.403 -1.9061  0.1784 -0.1909
 1035TIP3    H224521   0.116   5.440   2.351  1.8612 -3.1463  1.2797
 1036TIP3   OH224522   1.537   1.814   6.079 -0.5768  0.0903  0.0340
 1036TIP3    H124523   1.494   1.893   6.046  0.5871 -0.6119 -3.5200
 1036TIP3    H224524   1.616   1.846   6.123 -1.3520  0.9972  0.8001
 1037TIP3   OH224525   3.765   3.640   1.515  0.2574 -0.1169  0.0020
 1037TIP3    H124526   3.696   3.659   1.579  0.2986  0.3495 -0.0917
 1037TIP3    H224527   3.839   3.695   1.542  0.2185  0.2073 -0.5438
 1038TIP3   OH224528   4.394   2.966   2.768 -0.0449  0.2562  0.3378
 1038TIP3    H124529   4.334   3.007   2.705  0.1564 -0.5702 -0.4031
 1038TIP3    H224530   4.337   2.930   2.835 -0.3003  0.6399  0.3315
 1039TIP3   OH224531   2.637   1.272  16.905 -0.4778 -0.1602 -0.0291
 1039TIP3    H124532   2.631   1.190  16.955 -1.6091  0.1317  0.3271
 1039TIP3    H224533   2.604   1.339  16.965  2.4778  0.9675  0.5096
 1040TIP3   OH224534   4.283   0.041   5.388 -0.1551 -0.1417  0.1200
 1040TIP3    H124535   4.269   0.119   5.443  0.4649  0.0974 -0.0610
 1040TIP3    H224536   4.238  -0.029   5.436 -1.0078  0.3808  0.1216
 1041TIP3   OH224537   1.882   0.345  12.846 -0.0031  0.2802 -0.4134
 1041TIP3    H124538   1.801   0.394  12.862 -0.6893 -0.6442 -0.9673
 1041TIP3    H224539   1.951   0.399  12.885 -1.0980  0.0488  2.0204
 1042TIP3   OH224540   5.636   1.442   5.130  0.3570  0.6851  0.0134
 1042TIP3    H124541   5.673   1.483   5.208 -3.3868  1.5091  1.5393
 1042TIP3    H224542   5.559   1.494   5.109 -1.6880 -2.4723 -1.1064
 1043TIP3   OH224543   2.427   0.184  10.869  0.3825  0.6301 -0.6372
 1043TIP3    H124544   2.369   0.241  10.919  0.3567 -1.2918  1.7005
 1043TIP3    H224545   2.515   0.209  10.896  0.3337 -1.7352  2.1606
 1044TIP3   OH224546   4.802   4.858  13.328 -0.2436 -0.1508  0.2000
 1044TIP3    H124547   4.860   4.907  13.270 -1.1000 -0.0481 -0.5882
 1044TIP3    H224548   4.715   4.865  13.288 -0.5444 -1.5722  0.5296
 1045TIP3   OH224549   4.752   5.605   3.995  0.1614 -0.0077 -0.0571
 1045TIP3    H124550   4.756   5.551   3.917  1.4026  0.5779 -0.4253
 1045TIP3    H224551   4.671   5.655   3.986  1.1385  1.3915 -1.9144
 1046TIP3   OH224552   2.073   4.970   4.878 -0.0296  0.3068 -0.2215
 1046TIP3    H124553   2.038   4.902   4.935  0.6113  0.0685 -0.1049
 1046TIP3    H224554   2.019   4.965   4.799  0.3550 -0.7103 -0.4352
 1047TIP3   OH224555   2.067   3.980  16.283  0.3310 -0.7222 -0.3683
 1047TIP3    H124556   1.993   4.022  16.327 -0.1401 -0.6886 -1.1653
 1047TIP3    H224557   2.139   4.042  16.293 -0.1080 -0.1429 -0.7223
 1048TIP3   OH224558   2.968   2.811  12.489 -0.5720  0.8834  0.1185
 1048TIP3    H124559   2.920   2.834  12.568  0.1490  1.2372  0.4622
 1048TIP3    H224560   2.901   2.804  12.421 -1.2016  0.5566  0.7612
 1049TIP3   OH224561   5.384   4.678  16.445  0.0546 -0.1211 -0.4629
 1049TIP3    H124562   5.339   4.639  16.520 -0.5417 -0.0674 -0.7794
 1049TIP3    H224563   5.374   4.772  16.457  0.6930 -0.0866 -0.1780
 1050TIP3   OH224564   1.156   4.891  15.956  0.4456  0.2224  0.2206
 1050TIP3    H124565   1.205   4.809  15.948 -0.2566 -0.0068 -3.0221
 1050TIP3    H224566   1.064   4.865  15.950  0.1307  1.1052  1.0444
 1051TIP3   OH224567   1.804   4.965  14.439 -0.6612  0.1225 -0.1868
 1051TIP3    H124568   1.795   4.874  14.470 -1.5089 -0.3984 -1.8886
 1051TIP3    H224569   1.722   4.984  14.395 -0.2914  1.5616 -0.2875
 1052TIP3   OH224570   0.372   0.619  15.390  0.0988 -0.0163  0.1472
 1052TIP3    H124571   0.385   0.681  15.462  2.2237 -0.3886  0.1368
 1052TIP3    H224572   0.278   0.626  15.370 -0.3168  0.9551  2.1399
 1053TIP3   OH224573   0.093   2.031   5.286 -0.4130  0.4621  0.4131
 1053TIP3    H124574   0.029   1.963   5.267  0.2012 -0.6093  1.9929
 1053TIP3    H224575   0.139   2.000   5.364 -0.0888  2.6813  1.1776
 1054TIP3   OH224576   3.260   5.237  11.261  0.4220 -0.0097  0.1295
 1054TIP3    H124577   3.232   5.194  11.342 -2.3309  1.0624 -0.1271
 1054TIP3    H224578   3.297   5.320  11.290 -1.2473  0.7027  0.3056
 1055TIP3   OH224579   3.780   3.085   4.575  0.0024 -0.0752 -0.2166
 1055TIP3    H124580   3.836   3.129   4.511  2.3533 -0.4098  1.4975
 1055TIP3    H224581   3.700   3.138   4.576  0.8232  1.2982 -1.7194
 1056TIP3   OH224582   2.127   4.771  12.261  0.0698  0.7765  0.1332
 1056TIP3    H124583   2.059   4.836  12.275  1.3019  2.7284 -2.2398
 1056TIP3    H224584   2.134   4.762  12.166 -0.3528 -3.2769  0.3199
 1057TIP3   OH224585   2.675   2.671   2.016  0.9012 -0.4396 -0.7896
 1057TIP3    H124586   2.609   2.691   2.082 -0.6495 -2.8702 -1.4726
 1057TIP3    H224587   2.745   2.735   2.031  0.4667 -0.6367  2.9448
 1058TIP3   OH224588   4.894   0.479   0.991 -0.2141  0.2538  0.9784
 1058TIP3    H124589   4.930   0.402   0.946 -1.8053 -0.0465  0.0952
 1058TIP3    H224590   4.930   0.554   0.944  0.1648 -0.0056  0.8580
 1059TIP3   OH224591   0.382   6.508  15.955 -0.1788  0.0201  0.5466
 1059TIP3    H124592   0.384   6.584  16.014 -1.2688 -0.7356  1.6189
 1059TIP3    H224593   0.432   6.441  16.001  0.3780 -0.0636 -0.1759
 1060TIP3   OH224594   2.935   2.617   3.483  0.1352  0.1511 -1.0061
 1060TIP3    H124595   3.004   2.553   3.464  0.4495  0.2771 -0.3316
 1060TIP3    H224596   2.856   2.578   3.447  0.4269 -0.3527 -1.1131
 1061TIP3   OH224597   6.271   1.668  13.978  0.7287  0.2498 -0.2487
 1061TIP3    H124598   6.332   1.605  13.939 -0.0952 -0.4979 -0.3596
 1061TIP3    H224599   6.186   1.626  13.971  0.0882  1.5685 -0.7114
 1062TIP3   OH224600   6.548   2.628   4.464 -0.0036 -0.6000  0.7075
 1062TIP3    H124601   6.624   2.571   4.479 -0.0183 -1.1476 -1.0438
 1062TIP3    H224602   6.533   2.622   4.369  0.4586  2.8918  0.3016
 1063TIP3   OH224603   1.819   2.278   4.089  0.1757  0.3010  0.4404
 1063TIP3    H124604   1.826   2.353   4.030  0.2441 -0.6878 -0.8686
 1063TIP3    H224605   1.902   2.231   4.077 -0.5102 -0.8342 -0.0034
 1064TIP3   OH224606   3.232   5.588   4.515 -0.2427  0.6054  0.3437
 1064TIP3    H124607   3.325   5.588   4.494 -0.6498 -0.4156 -1.7137
 1064TIP3    H224608   3.222   5.655   4.582  1.5869  2.5107 -1.1810
 1065TIP3   OH224609   4.723   2.342   4.433 -0.0953 -0.2057 -0.0435
 1065TIP3    H124610   4.654   2.275   4.431  0.7391 -1.0725 -1.6794
 1065TIP3    H224611   4.688   2.414   4.381 -0.8549  0.5155  1.4306
 1066TIP3   OH224612   3.073   0.915  12.692 -0.2661  0.2220  0.2016
 1066TIP3    H124613   3.018   0.837  12.699  3.3249 -2.5083  0.4413
 1066TIP3    H224614   3.062   0.959  12.777  0.2585 -1.9759  1.4954
 1067TIP3   OH224615   5.097   4.373  12.572 -0.7263  0.8927 -0.2820
 1067TIP3    H124616   5.033   4.357  12.503 -0.8822 -1.7501  0.3654
 1067TIP3    H224617   5.064   4.324  12.648  1.1449  0.9135  0.6159
 1068TIP3   OH224618   3.217   0.978  15.245  0.1850 -0.2571 -0.5635
 1068TIP3    H124619   3.271   0.915  15.293 -1.9217 -0.2486  2.0737
 1068TIP3    H224620   3.279   1.042  15.210  1.9376 -0.3806  2.0475
 1069TIP3   OH224621   3.735   4.607   1.079  0.1568  0.0337 -0.0995
 1069TIP3    H124622   3.658   4.587   1.027 -0.0796  0.9470 -0.1131
 1069TIP3    H224623   3.711   4.683   1.131  0.6803 -0.3352  0.7202
 1070TIP3   OH224624   0.105   0.616  14.723 -0.1173  0.0765 -0.1751
 1070TIP3    H124625   0.124   0.612  14.816 -0.7675 -0.9030 -0.0646
 1070TIP3    H224626   0.174   0.671  14.686  0.8105 -0.4713  0.7126
 1071TIP3   OH224627   2.964   1.173   4.141  0.4427 -0.2006 -0.0213
 1071TIP3    H124628   2.901   1.127   4.197  0.5491  1.7185  1.8175
 1071TIP3    H224629   3.046   1.169   4.191  0.8109  0.6446 -0.5479
 1072TIP3   OH224630   1.470   3.719   3.660 -0.1970  0.5887 -0.2157
 1072TIP3    H124631   1.505   3.634   3.632 -3.9420 -2.2507  2.5785
 1072TIP3    H224632   1.547   3.768   3.689  2.1214 -2.1689 -1.1731
 1073TIP3   OH224633   5.759   3.488   2.080  0.0175 -0.5873 -0.3720
 1073TIP3    H124634   5.787   3.552   2.015 -1.3644  0.0619 -0.3735
 1073TIP3    H224635   5.736   3.540   2.157  1.6215 -1.3441  0.6796
 1074TIP3   OH224636   6.643   5.893  14.053  0.4860  0.1422  0.2409
 1074TIP3    H124637   6.583   5.861  14.119  2.2404 -1.6581  1.0753
 1074TIP3    H224638   6.717   5.929  14.103  1.5239 -0.5959 -0.7131
 1075TIP3   OH224639   5.351   1.805  13.347 -0.0415  0.2107 -0.3590
 1075TIP3    H124640   5.307   1.750  13.282 -1.8712  0.8477  0.2501
 1075TIP3    H224641   5.430   1.758  13.369 -1.0243 -1.6606 -0.6230
 1076TIP3   OH224642   3.195   5.999  12.870 -0.1669  0.4329 -0.0607
 1076TIP3    H124643   3.222   6.006  12.778  1.0414 -1.7998  0.0725
 1076TIP3    H224644   3.272   6.025  12.920 -0.2668 -0.0136  0.3294
 1077TIP3   OH224645   2.636   2.036  11.688 -0.4094  0.1583 -0.6526
 1077TIP3    H124646   2.656   2.121  11.726  1.8381 -1.5088  2.4382
 1077TIP3    H224647   2.639   2.049  11.594  0.4669  3.3321 -0.2795
 1078TIP3   OH224648   0.742   5.728  16.927  0.4922 -0.3582  0.5974
 1078TIP3    H124649   0.684   5.664  16.884 -0.3279 -0.7369  2.2081
 1078TIP3    H224650   0.804   5.675  16.976  1.0968  0.0797  0.3182
 1079TIP3   OH224651   2.641   5.483   1.488  0.5351  0.4203  0.2685
 1079TIP3    H124652   2.695   5.420   1.535 -2.2296 -1.5375  1.0576
 1079TIP3    H224653   2.585   5.430   1.432 -1.2092  2.2286  0.1881
 1080TIP3   OH224654   3.348   3.231  14.947 -0.3692 -0.3088  0.4778
 1080TIP3    H124655   3.306   3.146  14.964 -0.8406 -0.2268 -0.2601
 1080TIP3    H224656   3.441   3.209  14.934 -0.3770 -0.6304  0.9183
 1081TIP3   OH224657   1.659   0.447   1.587  0.1220 -0.2064 -0.1179
 1081TIP3    H124658   1.577   0.409   1.618  0.7999 -1.3520  0.3172
 1081TIP3    H224659   1.632   0.517   1.528 -1.1819  0.4478  1.1923
 1082TIP3   OH224660   3.014   1.930   1.644  0.0949 -0.0959  0.4882
 1082TIP3    H124661   2.975   1.844   1.628 -1.3450  0.6607 -0.3157
 1082TIP3    H224662   3.040   1.928   1.736 -1.3041 -0.8694  0.8997
 1083TIP3   OH224663   5.153   6.259  14.387 -0.1606 -0.1663  0.7557
 1083TIP3    H124664   5.232   6.313  14.391 -0.0649 -0.2932  0.5677
 1083TIP3    H224665   5.138   6.233  14.478  0.1902 -0.3919  0.7520
 1084TIP3   OH224666   1.339   2.889   5.062 -0.2496 -0.1848  0.1943
 1084TIP3    H124667   1.301   2.875   4.975  0.6575 -0.5990 -0.1402
 1084TIP3    H224668   1.412   2.949   5.047 -0.6141  0.4159  0.7998
 1085TIP3   OH224669   5.262   2.684   0.339  0.0620  0.0716 -0.1289
 1085TIP3    H124670   5.283   2.591   0.331  0.6975  0.2797 -0.9441
 1085TIP3    H224671   5.313   2.726   0.270 -0.2950  1.0161  0.1761
 1086TIP3   OH224672   3.433   1.253   5.322 -0.2097  0.1538 -0.1854
 1086TIP3    H124673   3.479   1.208   5.393  0.2947 -2.0228 -1.7732
 1086TIP3    H224674   3.342   1.260   5.353  0.3254  0.7948  1.3227
 1087TIP3   OH224675   5.996   3.369   1.193 -0.0097 -0.4772  0.2579
 1087TIP3    H124676   6.048   3.294   1.164  0.7682 -0.9431  2.6387
 1087TIP3    H224677   5.935   3.333   1.256 -0.2412  0.7558  0.7599
 1088TIP3   OH224678   5.247   1.393   3.687  0.1683 -0.4704 -0.5154
 1088TIP3    H124679   5.162   1.371   3.649  0.5274  0.2135 -1.7667
 1088TIP3    H224680   5.306   1.325   3.654  0.1956 -0.7028  0.0094
 1089TIP3   OH224681   4.060   4.460  16.993  0.3994  0.3730 -0.7398
 1089TIP3    H124682   4.036   4.532  17.051  1.6264  0.0425  0.2332
 1089TIP3    H224683   4.143   4.427  17.029 -0.0256 -1.3846 -1.2765
 1090TIP3   OH224684   6.144   3.039  12.935 -0.5389  0.9895 -0.2067
 1090TIP3    H124685   6.070   3.045  12.875 -0.6911 -0.2309 -0.1612
 1090TIP3    H224686   6.135   2.952  12.975  0.7012  0.9788  0.0760
 1091TIP3   OH224687   0.483   6.316  16.112 -0.4188  0.4674 -0.2625
 1091TIP3    H124688   0.578   6.324  16.102 -0.4077 -1.0358 -1.6520
 1091TIP3    H224689   0.471   6.236  16.163 -0.9466  0.4316 -0.4450
 1092TIP3   OH224690   0.742   1.537   1.047  0.4600 -0.2011 -0.8915
 1092TIP3    H124691   0.785   1.460   1.084 -0.2633 -0.4426 -0.5135
 1092TIP3    H224692   0.656   1.538   1.090  0.5744  0.9949 -0.6582
 1093TIP3   OH224693   3.768   6.728   2.541  0.0445  0.6320 -0.3887
 1093TIP3    H124694   3.691   6.673   2.528 -0.9441  2.0401 -0.8446
 1093TIP3    H224695   3.842   6.670   2.526 -0.8998 -0.8375  0.3171
 1094TIP3   OH224696   0.904   6.066   5.212 -0.6486  0.1421  0.0774
 1094TIP3    H124697   0.950   6.075   5.128 -0.3120 -1.3819  0.0725
 1094TIP3    H224698   0.813   6.089   5.192 -0.0919  2.5351 -0.0661
 1095TIP3   OH224699   4.421   3.787  15.543  0.3059 -0.4803 -0.4489
 1095TIP3    H124700   4.454   3.780  15.632 -2.1211 -1.0793  0.4782
 1095TIP3    H224701   4.366   3.710  15.531 -0.6033  0.3389 -1.9282
 1096TIP3   OH224702   6.179   2.369   2.857 -0.9121  0.1281  0.1967
 1096TIP3    H124703   6.235   2.393   2.783 -1.5206 -0.1185 -0.3531
 1096TIP3    H224704   6.234   2.383   2.934  0.0653 -0.5571 -0.3553
 1097TIP3   OH224705   5.743   5.033  11.911 -0.1564 -0.7457  0.3251
 1097TIP3    H124706   5.811   4.984  11.866  1.0284  2.0208 -1.1235
 1097TIP3    H224707   5.674   5.045  11.844 -0.0555  0.2182  0.3804
 1098TIP3   OH224708   3.239   2.501   5.306 -0.4810  0.0906  0.0643
 1098TIP3    H124709   3.310   2.543   5.257 -0.0847  1.4695  1.7142
 1098TIP3    H224710   3.198   2.441   5.243  1.8269 -0.3937 -1.0605
 1099TIP3   OH224711   3.933   1.353   0.900 -0.8074 -0.2675  0.3112
 1099TIP3    H124712   4.020   1.316   0.909 -1.0298 -1.6446 -2.3794
 1099TIP3    H224713   3.942   1.421   0.833 -1.3956  1.2792  1.7099
 1100TIP3   OH224714   2.936   2.084  15.029 -0.5535  0.5397 -0.3681
 1100TIP3    H124715   2.939   2.071  14.934 -0.0896 -1.2842 -0.1524
 1100TIP3    H224716   2.845   2.066  15.053 -0.2942 -0.8353 -0.2935
 1101TIP3   OH224717   1.176   2.841  13.819 -0.0227  0.0328 -0.3055
 1101TIP3    H124718   1.118   2.866  13.890 -0.5247 -0.7570 -0.4291
 1101TIP3    H224719   1.264   2.841  13.858 -0.3040 -0.4877  0.3379
 1102TIP3   OH224720   6.549   4.263  13.947 -0.4279  0.1724  0.2223
 1102TIP3    H124721   6.561   4.355  13.971 -1.0296  0.3897 -0.2969
 1102TIP3    H224722   6.637   4.226  13.950 -0.1773  0.7717  0.4110
 1103TIP3   OH224723   3.445   0.372   5.441  0.5701  0.1550 -0.0350
 1103TIP3    H124724   3.363   0.421   5.438  0.9021  0.6914 -0.5358
 1103TIP3    H224725   3.442   0.327   5.525 -0.0190  0.5480  0.1669
 1104TIP3   OH224726   3.678   1.065  14.532 -0.0533 -0.1377  0.5614
 1104TIP3    H124727   3.628   1.030  14.459  0.6204  1.0487 -0.5069
 1104TIP3    H224728   3.753   1.006  14.540  0.0758 -0.0490  0.0360
 1105TIP3   OH224729   4.206   0.791  12.064 -0.2767  0.2829  0.2187
 1105TIP3    H124730   4.280   0.774  12.123  0.3808  0.0981 -0.6360
 1105TIP3    H224731   4.153   0.712  12.070 -0.5053  0.4822  0.9634
 1106TIP3   OH224732   4.111   5.119   1.220 -0.1427 -0.3768  0.3597
 1106TIP3    H124733   4.042   5.117   1.286  0.7195  0.0805  1.3158
 1106TIP3    H224734   4.192   5.122   1.271  0.7034 -2.8288 -0.6969
 1107TIP3   OH224735   4.069   3.758   5.452 -0.8127 -1.0620  0.0174
 1107TIP3    H124736   4.019   3.806   5.387  0.1059 -2.0661 -1.4790
 1107TIP3    H224737   4.115   3.690   5.403  0.6525 -1.2721  1.5798
 1108TIP3   OH224738   3.578   1.431   0.924  0.0262 -0.0854  0.2246
 1108TIP3    H124739   3.546   1.435   1.014  0.3234 -0.0629  0.3310
 1108TIP3    H224740   3.499   1.422   0.870 -0.0720 -2.1298  0.6198
 1109TIP3   OH224741   1.495   1.483  15.292 -0.3466  0.3173  0.3334
 1109TIP3    H124742   1.575   1.535  15.299 -0.1352  0.1378 -0.5730
 1109TIP3    H224743   1.519   1.410  15.234 -0.9692 -0.1275  0.6236
 1110TIP3   OH224744   0.279   4.261  14.200 -0.5475  0.1106  0.2697
 1110TIP3    H124745   0.265   4.221  14.286 -2.8711  1.8436  0.7883
 1110TIP3    H224746   0.359   4.312  14.211 -0.5601 -0.0512  1.2893
 1111TIP3   OH224747   4.266   1.302  11.708 -0.7598 -0.9960 -0.0725
 1111TIP3    H124748   4.315   1.342  11.779 -1.7704 -0.2401  0.2146
 1111TIP3    H224749   4.289   1.209  11.713  1.0183 -0.6025 -0.2694
 1112TIP3   OH224750   6.545   4.043  15.145 -0.3905  0.0566  0.2545
 1112TIP3    H124751   6.629   4.022  15.104  0.2791  1.5202  0.8204
 1112TIP3    H224752   6.526   3.967  15.200  0.5152 -0.3249  0.0605
 1113TIP3   OH224753   5.131   4.740  13.218 -0.5075  0.3572  0.6138
 1113TIP3    H124754   5.140   4.676  13.147  1.3698  0.8542  0.3706
 1113TIP3    H224755   5.062   4.799  13.187 -0.8074 -0.3304 -0.0843
 1114TIP3   OH224756   0.983   4.542  15.956 -0.1815 -0.4301 -0.1273
 1114TIP3    H124757   1.034   4.496  16.023 -1.0508  0.3722  1.1344
 1114TIP3    H224758   1.049   4.583  15.899  0.7482  2.2292  2.5894
 1115TIP3   OH224759   3.287   1.493  11.511 -0.7590  0.1278  0.0436
 1115TIP3    H124760   3.277   1.575  11.559 -1.8543 -0.5207  0.9787
 1115TIP3    H224761   3.361   1.508  11.452 -1.0935  1.8553  0.0265
 1116TIP3   OH224762   2.842   4.841  13.637 -0.2305  0.0322  0.2151
 1116TIP3    H124763   2.871   4.888  13.715 -0.1460 -0.2804  0.3731
 1116TIP3    H224764   2.795   4.907  13.586  1.0736  0.6547 -0.2261
 1117TIP3   OH224765   5.601   3.159   0.124  0.2205  0.2312 -0.2101
 1117TIP3    H124766   5.523   3.189   0.170 -0.4027 -0.4393 -0.7928
 1117TIP3    H224767   5.567   3.112   0.047  1.2106  0.5416 -0.8617
 1118TIP3   OH224768   5.347   1.510   2.423 -0.0831 -0.2642  0.1957
 1118TIP3    H124769   5.382   1.430   2.461 -0.4177  0.0867  1.2860
 1118TIP3    H224770   5.338   1.491   2.330  1.6117 -0.8435  0.1246
 1119TIP3   OH224771   5.393   2.494   5.833 -0.1162  0.1536 -0.5463
 1119TIP3    H124772   5.403   2.403   5.806  2.7197  0.4511 -0.8073
 1119TIP3    H224773   5.393   2.543   5.751 -1.0339  0.4448 -0.3770
 1120TIP3   OH224774   5.401   3.435   2.259  0.3567  0.1658  0.5229
 1120TIP3    H124775   5.364   3.495   2.324 -0.6960 -0.7401  0.7837
 1120TIP3    H224776   5.334   3.367   2.247  1.6009 -1.1027  0.4344
 1121TIP3   OH224777   2.945   3.807   1.786  0.1384 -0.4266 -0.1817
 1121TIP3    H124778   2.901   3.820   1.870  1.0758  1.4644  0.0925
 1121TIP3    H224779   3.038   3.820   1.806  0.4226 -0.3842 -1.4334
 1122TIP3   OH224780   4.317   4.695   0.897  0.2063 -0.7037 -0.0299
 1122TIP3    H124781   4.309   4.674   0.804 -1.2814 -1.2514  0.1971
 1122TIP3    H224782   4.381   4.631   0.930  2.1824  0.6647 -0.9845
 1123TIP3   OH224783   3.759   3.304   4.201 -0.4382 -0.6146 -0.0169
 1123TIP3    H124784   3.813   3.350   4.136 -0.8629  0.9275  0.6718
 1123TIP3    H224785   3.823   3.263   4.260 -0.0276 -2.7739 -1.8133
 1124TIP3   OH224786   4.836   2.132   1.303 -0.0083 -0.0714 -0.6045
 1124TIP3    H124787   4.852   2.196   1.233  1.2020 -0.0940 -0.3708
 1124TIP3    H224788   4.919   2.128   1.351 -0.7629 -0.1887  0.7276
 1125TIP3   OH224789   5.912   2.282  16.070 -0.5590  0.1543 -0.3613
 1125TIP3    H124790   5.966   2.208  16.099 -0.9644  0.1595  0.4208
 1125TIP3    H224791   5.970   2.332  16.013 -0.0724 -0.4141 -0.3780
 1126TIP3   OH224792   2.767   4.908   2.052 -0.5159  0.9546 -0.1120
 1126TIP3    H124793   2.850   4.860   2.057 -1.5989 -0.9108  3.2766
 1126TIP3    H224794   2.792   4.998   2.032  2.1946  0.2427 -0.3075
 1127TIP3   OH224795   1.648   5.195  15.162  0.8325  0.2902 -0.3048
 1127TIP3    H124796   1.733   5.180  15.121  1.5062  0.0498  1.0966
 1127TIP3    H224797   1.612   5.107  15.177 -0.3645  0.4102 -2.2122
 1128TIP3   OH224798   3.323   6.197   1.379  0.9034 -0.2338  0.6739
 1128TIP3    H124799   3.246   6.185   1.434  0.7835 -1.1933  0.3246
 1128TIP3    H224800   3.381   6.253   1.431 -0.2791  1.0510  0.6651
 1129TIP3   OH224801   6.437   0.688  16.773 -0.4634  0.0122 -0.1545
 1129TIP3    H124802   6.416   0.645  16.690 -0.9274 -0.3345  0.1395
 1129TIP3    H224803   6.383   0.642  16.838 -0.9370  1.0113  0.1699
 1130TIP3   OH224804   6.440   6.084  12.786 -0.2197  0.0502  0.3785
 1130TIP3    H124805   6.435   6.085  12.882  1.7193  0.5521  0.5201
 1130TIP3    H224806   6.532   6.063  12.767 -0.8830 -1.5589 -1.4125
 1131TIP3   OH224807   4.660   3.187  11.783  0.4452  0.2570  0.1063
 1131TIP3    H124808   4.649   3.213  11.874  0.1330 -0.2653  0.2227
 1131TIP3    H224809   4.731   3.243  11.751  2.3387 -1.2669  1.3880
 1132TIP3   OH224810   2.196   4.374   0.161 -0.1452 -0.6126  0.1631
 1132TIP3    H124811   2.280   4.379   0.207  1.0832 -2.3589 -1.7566
 1132TIP3    H224812   2.149   4.304   0.206  0.4289 -1.2775 -0.2566
 1133TIP3   OH224813   1.002   4.645  16.433 -0.2100  0.0206  0.2833
 1133TIP3    H124814   0.978   4.613  16.520  1.2639  1.4137  1.2643
 1133TIP3    H224815   0.919   4.652  16.386 -1.5180  2.2887  2.6672
 1134TIP3   OH224816   5.129   4.561   6.029 -0.4681 -0.0451 -0.4548
 1134TIP3    H124817   5.091   4.550   6.116 -1.1297  1.6554 -0.4916
 1134TIP3    H224818   5.218   4.591   6.046  0.0280 -1.4722 -0.3859
 1135TIP3   OH224819   4.253   2.439  14.343 -0.5019  0.2428  0.0006
 1135TIP3    H124820   4.234   2.533  14.331 -3.5662 -0.5061 -2.1858
 1135TIP3    H224821   4.304   2.436  14.424  0.7742  3.8822 -0.4585
 1136TIP3   OH224822   3.996   2.299   2.734  0.6574  0.0719 -0.2459
 1136TIP3    H124823   4.034   2.303   2.822 -0.0689  0.2082  0.0663
 1136TIP3    H224824   3.975   2.207   2.722 -0.0595  0.1911  0.0773
 1137TIP3   OH224825   0.346   2.486   0.544 -0.1990 -0.4844  0.6403
 1137TIP3    H124826   0.426   2.441   0.571  0.8281 -0.5850 -2.2014
 1137TIP3    H224827   0.276   2.422   0.559  0.4782 -1.0385  1.5504
 1138TIP3   OH224828   4.659   5.053   4.009 -0.4055  0.3201 -0.3337
 1138TIP3    H124829   4.642   5.092   4.095 -1.3578 -0.1214 -0.3094
 1138TIP3    H224830   4.639   5.123   3.947 -0.2827  0.4565 -0.2215
 1139TIP3   OH224831   3.417   6.257   0.504 -0.4831  0.0947 -0.8638
 1139TIP3    H124832   3.490   6.316   0.523 -0.1027 -0.6218 -0.0850
 1139TIP3    H224833   3.421   6.244   0.409 -0.4850  1.1940 -1.0238
 1140TIP3   OH224834   6.358   0.048  11.762  0.2183 -0.2382 -0.4301
 1140TIP3    H124835   6.424   0.032  11.694  1.7234  0.5236  0.7829
 1140TIP3    H224836   6.337   0.141  11.753  1.8635  0.3636  1.2913
 1141TIP3   OH224837   4.622   1.768  14.422 -0.3487  0.8507  0.3197
 1141TIP3    H124838   4.540   1.817  14.432 -0.4747  1.0225 -1.3342
 1141TIP3    H224839   4.617   1.701  14.490 -1.5131  1.3197  0.7350
 1142TIP3   OH224840   5.404   4.493  15.188  0.1121 -0.0837 -0.0207
 1142TIP3    H124841   5.484   4.528  15.226 -0.5819  1.5655 -0.0298
 1142TIP3    H224842   5.414   4.506  15.094  0.5917 -1.5657 -0.2125
 1143TIP3   OH224843   3.562   1.009  11.635  0.0662  0.6281  0.1058
 1143TIP3    H124844   3.591   1.012  11.544 -0.4409  2.0983 -0.0326
 1143TIP3    H224845   3.517   1.093  11.649 -1.8032 -0.4745  1.0649
 1144TIP3   OH224846   0.522   5.940  15.230  0.3404  0.2823  0.0428
 1144TIP3    H124847   0.528   5.950  15.135  0.6885  0.4635  0.0809
 1144TIP3    H224848   0.436   5.900  15.245 -0.4482  1.7857 -0.2380
 1145TIP3   OH224849   3.174   4.511  13.877  0.2546 -0.2023 -0.0108
 1145TIP3    H124850   3.085   4.492  13.849  1.1113 -2.7725 -1.3221
 1145TIP3    H224851   3.181   4.473  13.965 -0.6679  2.5190  1.3536
 1146TIP3   OH224852   1.445   5.746  13.072 -0.6252 -0.0010 -0.3292
 1146TIP3    H124853   1.436   5.795  12.990  0.7379  1.5671  0.4180
 1146TIP3    H224854   1.539   5.738  13.085 -0.8288 -1.0057  0.6659
 1147TIP3   OH224855   4.832   2.416   2.635 -0.3295 -0.2926 -0.4163
 1147TIP3    H124856   4.781   2.367   2.700 -0.9266  2.1128  1.0490
 1147TIP3    H224857   4.913   2.438   2.681  1.5059 -2.7423 -2.2118
 1148TIP3   OH224858   3.572   6.567  13.532 -0.3364  0.1496  0.3713
 1148TIP3    H124859   3.510   6.559  13.460  0.9157  0.9889 -0.8602
 1148TIP3    H224860   3.652   6.599  13.491  0.5254  0.3398  2.1036
 1149TIP3   OH224861   1.028   6.708   5.440  0.1158 -0.4108  0.9461
 1149TIP3    H124862   0.981   6.743   5.515 -1.2145  0.5393 -0.2832
 1149TIP3    H224863   1.119   6.735   5.453 -0.7562  3.3322  0.2459
 1150TIP3   OH224864   4.279   2.671  16.778 -0.2866  0.0864 -0.7607
 1150TIP3    H124865   4.259   2.764  16.771  0.6428  0.5689  1.8719
 1150TIP3    H224866   4.238   2.631  16.701 -0.1157  2.7318 -2.3390
 1151TIP3   OH224867   2.245   6.734   0.111  0.0446  0.3738 -0.3147
 1151TIP3    H124868   2.150   6.739   0.102  0.2270  0.0107 -3.5254
 1151TIP3    H224869   2.279   6.762   0.026  2.6868 -2.1192 -0.2380
 1152TIP3   OH224870   0.489   6.040   3.654  0.2294  0.1478 -0.0666
 1152TIP3    H124871   0.438   6.059   3.733 -1.9605  0.7707 -1.5411
 1152TIP3    H224872   0.509   6.126   3.616  1.4895 -0.1326 -0.0856
 1153TIP3   OH224873   3.955   4.352  11.287 -0.6732 -0.3372 -0.4974
 1153TIP3    H124874   3.904   4.275  11.260 -0.1696 -1.6674  2.0592
 1153TIP3    H224875   4.018   4.318  11.351  0.0305  2.1016  0.2096
 1154TIP3   OH224876   4.758   4.431   5.071  0.8661 -0.4068 -0.2081
 1154TIP3    H124877   4.802   4.414   4.988  0.9584  1.8609 -0.6805
 1154TIP3    H224878   4.828   4.457   5.131  0.4735  1.0790 -0.3506
 1155TIP3   OH224879   1.654   0.193  13.925 -0.1587  0.2276 -0.6257
 1155TIP3    H124880   1.711   0.196  13.848  0.1760 -4.1281 -0.8063
 1155TIP3    H224881   1.568   0.219  13.891  0.7381  2.5708 -1.3481
 1156TIP3   OH224882   5.537   1.361   3.420 -0.3312  0.9819  0.2423
 1156TIP3    H124883   5.569   1.384   3.333  0.8848  0.4063  0.5157
 1156TIP3    H224884   5.470   1.427   3.440 -0.0348  1.6058 -0.7797
 1157TIP3   OH224885   1.817   5.501  10.700 -0.6488 -1.0461 -0.1849
 1157TIP3    H124886   1.800   5.503  10.606  2.0582  0.0886 -0.7271
 1157TIP3    H224887   1.881   5.431  10.712  0.9141  0.4013  0.3770
 1158TIP3   OH224888   4.021   5.739   0.737 -0.1149  0.0334  0.2938
 1158TIP3    H124889   3.936   5.777   0.713 -0.2152 -0.9447 -0.9864
 1158TIP3    H224890   4.000   5.675   0.805 -0.2887  0.3150  0.5106
 1159TIP3   OH224891   2.476   5.866   2.280  0.2534 -0.1900 -0.3652
 1159TIP3    H124892   2.522   5.795   2.234 -0.5194 -1.0935  0.2049
 1159TIP3    H224893   2.506   5.858   2.371 -0.8915 -0.7067 -0.0141
 1160TIP3   OH224894   5.964   6.185   5.557 -0.4623 -0.2073  0.3794
 1160TIP3    H124895   5.988   6.157   5.645 -0.3670 -0.0039  0.4180
 1160TIP3    H224896   5.870   6.201   5.562 -0.3817  0.2133  0.5536
 1161TIP3   OH224897   1.818   5.094   1.588  0.6519 -0.2508 -0.5015
 1161TIP3    H124898   1.836   5.003   1.613 -1.0507 -0.3573  0.5562
 1161TIP3    H224899   1.852   5.102   1.499  2.0581 -1.5137 -0.1099
 1162TIP3   OH224900   1.595   5.287   1.554  0.9208  0.3334  0.0521
 1162TIP3    H124901   1.678   5.252   1.585  0.2338 -0.0256  1.5965
 1162TIP3    H224902   1.606   5.382   1.559  2.2905  0.4202 -2.7930
 1163TIP3   OH224903   4.075   1.137  13.437  0.2075  0.3043 -0.7119
 1163TIP3    H124904   4.032   1.092  13.510  0.8359  1.4245  0.3906
 1163TIP3    H224905   4.162   1.097  13.432 -0.3251 -0.8033 -1.8604
 1164TIP3   OH224906   6.473   0.940  16.941 -0.0195 -0.3252  0.1063
 1164TIP3    H124907   6.468   0.873  16.872 -0.6334  0.1449 -0.3073
 1164TIP3    H224908   6.391   0.932  16.989  0.5007 -0.8065  0.9491
 1165TIP3   OH224909   6.406   0.323  14.987  0.0569  0.4481  0.2096
 1165TIP3    H124910   6.373   0.233  14.998 -0.9297  0.9968  2.3374
 1165TIP3    H224911   6.400   0.340  14.894 -0.3745 -1.4611 -0.1530
 1166TIP3   OH224912   0.098   0.715   4.534 -0.2358 -0.0264 -0.1345
 1166TIP3    H124913   0.123   0.739   4.623 -0.9480 -0.3410  0.1498
 1166TIP3    H224914   0.128   0.625   4.523  1.6291  0.6183 -0.9031
 1167TIP3   OH224915   3.519   4.268  15.311  0.2583 -0.0825 -0.2347
 1167TIP3    H124916   3.472   4.193  15.274 -0.4900  0.9623 -1.4769
 1167TIP3    H224917   3.602   4.231  15.342  0.0556 -1.3601 -1.1445
 1168TIP3   OH224918   0.869   1.920  15.903  0.2175  0.1798  0.3502
 1168TIP3    H124919   0.851   2.014  15.904 -0.4687  0.0552  0.9546
 1168TIP3    H224920   0.784   1.880  15.883  0.0362 -0.3875  2.1102
 1169TIP3   OH224921   4.284   5.903  14.540 -0.3920 -0.4733  0.4594
 1169TIP3    H124922   4.241   5.972  14.591  0.8975 -0.5847  1.7719
 1169TIP3    H224923   4.373   5.901  14.574  0.0403 -1.7017 -0.6901
 1170TIP3   OH224924   4.772   6.319  10.235 -0.1575 -0.0846  0.2380
 1170TIP3    H124925   4.800   6.310  10.326 -0.5708  0.4017  0.4224
 1170TIP3    H224926   4.759   6.230  10.204 -0.6909 -0.2371  0.8784
 1171TIP3   OH224927   4.106   4.763   5.614  0.1776  0.3449 -0.2459
 1171TIP3    H124928   4.150   4.778   5.698 -1.3901  1.9131  0.3743
 1171TIP3    H224929   4.026   4.716   5.638  0.6630 -1.0201 -1.1522
 1172TIP3   OH224930   0.595   2.667  12.024 -0.7116  0.4422 -0.6661
 1172TIP3    H124931   0.636   2.611  11.958 -0.7120  0.3450 -0.5826
 1172TIP3    H224932   0.633   2.638  12.107 -2.0775 -0.6688 -0.3976
 1173TIP3   OH224933   1.073   0.151   1.629 -0.1810 -0.2345 -0.7450
 1173TIP3    H124934   1.109   0.138   1.541  0.5624  1.2262 -0.6805
 1173TIP3    H224935   0.980   0.134   1.619 -0.3647  1.3670 -2.1794
 1174TIP3   OH224936   1.743   0.913  11.763 -0.0655  0.4063 -0.1411
 1174TIP3    H124937   1.683   0.881  11.695 -1.6031 -0.7114  1.6520
 1174TIP3    H224938   1.772   0.834  11.808 -1.4793  1.2187  2.4026
 1175TIP3   OH224939   4.199   5.399  11.943  0.6728 -0.4150  0.2024
 1175TIP3    H124940   4.247   5.391  12.026 -0.0854 -1.8158  0.5237
 1175TIP3    H224941   4.136   5.328  11.944 -0.2658  0.3546 -0.9952
 1176TIP3   OH224942   3.057   6.673   2.007 -0.3187 -0.0717  0.0063
 1176TIP3    H124943   3.068   6.692   2.100  1.9543 -2.2304  0.2917
 1176TIP3    H224944   2.992   6.603   2.004  0.4727 -0.8240  0.1074
 1177TIP3   OH224945   5.699   5.632   2.118 -0.0850 -0.2642  0.0806
 1177TIP3    H124946   5.627   5.595   2.168  0.6472 -1.1777  0.4913
 1177TIP3    H224947   5.660   5.704   2.068 -0.7722  0.8532  2.1415
 1178TIP3   OH224948   2.488   4.433   3.000  0.0287  0.0685  0.2670
 1178TIP3    H124949   2.431   4.454   3.073 -1.5324 -1.6213 -0.3870
 1178TIP3    H224950   2.436   4.450   2.922  0.6558 -0.7773 -0.3654
 1179TIP3   OH224951   4.155   6.760   1.559 -0.4896  0.0929  0.4881
 1179TIP3    H124952   4.163   6.709   1.639 -1.8223 -0.1318  0.4999
 1179TIP3    H224953   4.182   6.700   1.490  1.4742  0.5466  0.8049
 1180TIP3   OH224954   6.632   5.737   4.471 -0.7242  0.2112 -0.1795
 1180TIP3    H124955   6.550   5.700   4.439  0.0516 -1.3269 -0.5160
 1180TIP3    H224956   6.674   5.773   4.392 -0.3113 -0.5858 -0.3393
 1181TIP3   OH224957   1.828   1.162   3.309 -0.1361 -0.7783 -0.3551
 1181TIP3    H124958   1.823   1.203   3.395 -0.5745  0.6991 -1.0488
 1181TIP3    H224959   1.918   1.131   3.303  0.8194  1.7427 -0.4746
 1182TIP3   OH224960   4.407   4.596  12.636 -0.1057  1.0392  0.4884
 1182TIP3    H124961   4.429   4.507  12.664 -0.9381  0.5152 -0.4687
 1182TIP3    H224962   4.336   4.623  12.695 -0.9664  0.4327 -0.2433
 1183TIP3   OH224963   1.161   5.716  15.015  0.7833 -0.2589 -0.2606
 1183TIP3    H124964   1.166   5.743  14.923  2.5275  1.0611  0.1665
 1183TIP3    H224965   1.181   5.623  15.013 -0.5577 -0.5519 -1.3324
 1184TIP3   OH224966   5.845   5.974  10.974 -0.4934 -0.2668  0.0018
 1184TIP3    H124967   5.848   5.879  10.984 -1.2044 -0.1531  1.6436
 1184TIP3    H224968   5.756   5.998  11.000 -1.5685  0.5711 -3.7072
 1185TIP3   OH224969   3.166   5.893   1.164  0.4867  1.3353  0.3878
 1185TIP3    H124970   3.078   5.877   1.129  0.1415  0.7830  1.4339
 1185TIP3    H224971   3.223   5.892   1.088 -0.0788 -0.8862 -0.0812
 1186TIP3   OH224972   4.176   5.113   2.924  0.2565  0.2316 -0.3785
 1186TIP3    H124973   4.200   5.205   2.915 -0.2302  0.4015 -0.0085
 1186TIP3    H224974   4.253   5.072   2.963  0.8739  0.2627 -1.5544
 1187TIP3   OH224975   2.064   0.651  11.728 -0.0768  0.3987 -0.5614
 1187TIP3    H124976   2.125   0.634  11.800 -0.2331  0.0398 -0.5138
 1187TIP3    H224977   2.008   0.574  11.725 -0.0698  0.4097 -1.0747
 1188TIP3   OH224978   3.224   2.622   4.357 -0.3490 -0.4258  0.4048
 1188TIP3    H124979   3.259   2.705   4.389 -0.0727  0.1602 -1.3142
 1188TIP3    H224980   3.145   2.647   4.308  1.3842 -0.7275 -2.7871
 1189TIP3   OH224981   0.151   1.986   5.600 -0.0769 -0.2805 -0.3282
 1189TIP3    H124982   0.074   1.930   5.596 -0.0587 -0.2137 -2.8200
 1189TIP3    H224983   0.225   1.924   5.606 -0.2160 -0.3821  0.5052
 1190TIP3   OH224984   4.456   2.828   0.881  0.1166  0.0142  0.1364
 1190TIP3    H124985   4.522   2.856   0.945  1.3422  0.0366 -1.0855
 1190TIP3    H224986   4.387   2.788   0.934  1.3983 -0.5821  1.4343
 1191TIP3   OH224987   1.366   2.161  16.846  0.1139  0.0038 -0.8151
 1191TIP3    H124988   1.454   2.186  16.818 -0.1044  0.2994 -1.2483
 1191TIP3    H224989   1.359   2.069  16.820  0.4865 -0.1833 -0.2873
 1192TIP3   OH224990   1.945   4.163  11.146  0.6115  0.4198 -0.3461
 1192TIP3    H124991   2.014   4.215  11.105  0.5291 -0.2448 -1.3754
 1192TIP3    H224992   1.981   4.137  11.231  0.7537  1.8987  0.0834
 1193TIP3   OH224993   5.945   3.287   3.799 -0.6274  0.3249  0.3226
 1193TIP3    H124994   5.909   3.276   3.887  1.3932  3.5550  1.7152
 1193TIP3    H224995   6.024   3.234   3.798 -0.9017 -0.0849  0.2760
 1194TIP3   OH224996   3.337   1.567   4.117 -0.0029 -0.3055  0.4264
 1194TIP3    H124997   3.359   1.653   4.154 -1.8359 -0.0781  1.1143
 1194TIP3    H224998   3.272   1.587   4.049  0.7683 -1.0376 -0.5625
 1195TIP3   OH224999   1.156   2.324  10.515  0.1317 -0.0979 -0.0214
 1195TIP3    H125000   1.163   2.232  10.539 -0.6417  0.2665  1.7989
 1195TIP3    H225001   1.233   2.365  10.553 -0.0272  0.1560  0.0315
 1196TIP3   OH225002   6.565   3.439   4.716  0.2767  0.3874 -0.3679
 1196TIP3    H125003   6.559   3.440   4.621  0.5461  1.1141 -0.3789
 1196TIP3    H225004   6.475   3.427   4.746  0.1669  0.3614 -0.7043
 1197TIP3   OH225005   6.295   2.660  10.978  0.0328 -0.8736 -0.0089
 1197TIP3    H125006   6.314   2.619  10.894 -1.0906 -1.0745 -0.1882
 1197TIP3    H225007   6.326   2.750  10.968 -0.9278 -0.6277 -1.0018
 1198TIP3   OH225008   0.103   3.415   1.871 -0.1685  0.3072 -0.0745
 1198TIP3    H125009   0.105   3.367   1.788 -0.1599  0.3247 -0.0841
 1198TIP3    H225010   0.068   3.501   1.848  0.2496  0.4610 -0.1311
 1199TIP3   OH225011   2.362   0.289  14.485  0.0012 -0.0248 -0.3920
 1199TIP3    H125012   2.288   0.338  14.449 -0.8623 -0.8756  0.1703
 1199TIP3    H225013   2.420   0.355  14.521 -0.2595  0.6863 -1.2484
 1200TIP3   OH225014   5.236   3.899  11.104 -0.4420 -0.4393 -0.3808
 1200TIP3    H125015   5.268   3.869  11.019  1.9248 -0.3708  0.4083
 1200TIP3    H225016   5.255   3.993  11.105 -0.9919 -0.3278  0.0104
 1201TIP3   OH225017   0.498   1.469  10.723  0.3549 -0.2969  0.1782
 1201TIP3    H125018   0.466   1.404  10.660  0.8113 -1.4855  1.1345
 1201TIP3    H225019   0.420   1.496  10.771  0.2046 -0.3898 -0.0115
 1202TIP3   OH225020   2.682   4.972   4.127  0.3509 -0.3013 -0.1227
 1202TIP3    H125021   2.743   4.994   4.197  1.4509 -0.7778 -0.9080
 1202TIP3    H225022   2.672   5.053   4.076  0.2229 -0.1909  0.0772
 1203TIP3   OH225023   5.827   0.002   5.580  0.3820  0.1242 -0.3838
 1203TIP3    H125024   5.906  -0.051   5.593  0.2057 -0.0243  0.1010
 1203TIP3    H225025   5.770  -0.054   5.527  0.3116 -0.0620 -0.1153
 1204TIP3   OH225026   4.502   1.173   5.861 -0.3653  0.0357 -0.0992
 1204TIP3    H125027   4.471   1.225   5.787  0.1808  1.3289  0.5487
 1204TIP3    H225028   4.429   1.172   5.922  0.2466  1.7909  0.7547
 1205TIP3   OH225029   6.233   3.135  11.720 -0.4808 -0.3819  0.7099
 1205TIP3    H125030   6.292   3.065  11.693  0.5069 -0.4275  2.7793
 1205TIP3    H225031   6.289   3.213  11.723 -0.9259 -0.0710  1.0228
 1206TIP3   OH225032   3.343   4.297  14.591 -0.5874  0.1467 -0.2990
 1206TIP3    H125033   3.293   4.340  14.521 -0.5535 -0.3505 -0.6336
 1206TIP3    H225034   3.429   4.282  14.552 -0.3677  0.4393  0.0688
 1207TIP3   OH225035   5.863   6.750   3.838  0.1613 -0.1809  0.1129
 1207TIP3    H125036   5.793   6.740   3.774  2.1562 -1.1946 -2.0441
 1207TIP3    H225037   5.857   6.841   3.866 -0.3434  0.5290 -2.0875
 1208TIP3   OH225038   5.584   6.230   4.254 -0.0541  0.0918 -0.4654
 1208TIP3    H125039   5.630   6.269   4.329  2.0481 -0.6676 -1.2929
 1208TIP3    H225040   5.502   6.279   4.249 -0.4682 -0.0999  2.5460
 1209TIP3   OH225041   3.225   3.122  16.768 -0.6221  0.4869 -0.5650
 1209TIP3    H125042   3.285   3.049  16.756 -1.4285 -0.3324  0.2110
 1209TIP3    H225043   3.282   3.197  16.788  0.1855 -0.0210 -0.9332
 1210TIP3   OH225044   1.483   1.285  14.231 -0.8260 -0.1356 -0.1237
 1210TIP3    H125045   1.440   1.341  14.166 -2.0401 -1.0970 -0.1794
 1210TIP3    H225046   1.538   1.345  14.282 -0.6545  0.7936 -1.3621
 1211TIP3   OH225047   1.043   3.189  11.288 -0.0055 -0.5351  0.1538
 1211TIP3    H125048   1.018   3.240  11.365 -0.6173 -1.7798  0.8020
 1211TIP3    H225049   1.004   3.237  11.214  2.3504  1.8696  0.3015
 1212TIP3   OH225050   2.596   3.018  12.446 -0.2673 -0.5325 -0.0621
 1212TIP3    H125051   2.558   2.996  12.531 -0.9100 -0.6130 -0.3576
 1212TIP3    H225052   2.689   3.001  12.455 -0.1140  0.8208  1.0643
 1213TIP3   OH225053   2.807   4.168   4.596  0.1798 -0.4049  0.1383
 1213TIP3    H125054   2.801   4.263   4.590 -1.1804 -0.4771  0.1188
 1213TIP3    H225055   2.901   4.150   4.599  0.4582  0.9106 -0.2346
 1214TIP3   OH225056   5.839   2.085  14.762 -0.2245  0.1669 -0.9251
 1214TIP3    H125057   5.888   2.052  14.687 -0.1819 -0.7288 -0.5186
 1214TIP3    H225058   5.866   2.176  14.771  2.5047 -0.6642  0.1572
 1215TIP3   OH225059   6.242   0.911  12.160  0.2757  0.6416 -0.0008
 1215TIP3    H125060   6.158   0.955  12.148 -0.7212 -0.6075  1.8705
 1215TIP3    H225061   6.230   0.826  12.119 -0.0007 -0.1618  1.6462
 1216TIP3   OH225062   4.172   6.386   2.269  0.2451 -0.0292  0.4483
 1216TIP3    H125063   4.215   6.317   2.217  2.3501  0.9454  0.7894
 1216TIP3    H225064   4.122   6.437   2.205  1.1869 -0.0351 -0.3171
 1217TIP3   OH225065   1.773   6.225   1.376 -0.4649 -0.2305  0.2739
 1217TIP3    H125066   1.719   6.149   1.353 -0.9832  0.0713  0.4778
 1217TIP3    H225067   1.733   6.260   1.456  1.3708 -1.3191  1.7274
 1218TIP3   OH225068   2.312   5.592  14.806 -0.1491 -0.6763 -0.6163
 1218TIP3    H125069   2.316   5.687  14.814  0.2461 -0.8150  1.4556
 1218TIP3    H225070   2.231   5.575  14.758  0.1791  0.7102 -1.7061
 1219TIP3   OH225071   2.286   2.895   0.448  0.2117  0.4790 -0.6963
 1219TIP3    H125072   2.244   2.837   0.512  1.1138 -1.3962 -1.7259
 1219TIP3    H225073   2.377   2.898   0.475  0.0093  2.3904 -0.0248
 1220TIP3   OH225074   3.486   2.235   1.983 -0.4896  0.0207 -0.2802
 1220TIP3    H125075   3.525   2.270   2.063 -0.4748 -1.0245  0.1720
 1220TIP3    H225076   3.400   2.204   2.009 -0.9824  0.8048 -0.9363
 1221TIP3   OH225077   5.018   1.164   4.920  0.0728  0.4618  0.0777
 1221TIP3    H125078   4.940   1.109   4.927  1.1961 -1.1013  0.6821
 1221TIP3    H225079   5.083   1.109   4.878  0.7343  1.9189 -0.8847
 1222TIP3   OH225080   4.837   0.350  13.975  0.0585  0.0029  0.3283
 1222TIP3    H125081   4.761   0.374  13.922 -0.5532 -0.7933  0.8347
 1222TIP3    H225082   4.837   0.255  13.977 -0.8210 -0.0339  2.9748
 1223TIP3   OH225083   2.074   1.037  14.909  0.1984 -0.5184  0.1230
 1223TIP3    H125084   2.040   1.053  14.821 -0.0782  1.2539  0.5118
 1223TIP3    H225085   1.997   1.047  14.966  0.4863 -1.0793  0.6199
 1224TIP3   OH225086   5.687   5.727  14.651  0.1675 -0.5714 -0.2333
 1224TIP3    H125087   5.602   5.761  14.623 -0.4416 -1.6936  0.1856
 1224TIP3    H225088   5.720   5.793  14.712 -1.6047 -1.2603  1.6347
 1225TIP3   OH225089   4.985   2.220   5.515 -0.2893 -0.4699 -0.0428
 1225TIP3    H125090   4.977   2.196   5.608  0.1649 -2.0934 -0.3870
 1225TIP3    H225091   4.945   2.306   5.509 -0.5764 -0.4494  1.6165
 1226TIP3   OH225092   3.659   3.783   6.343 -0.2498  0.2388 -0.7078
 1226TIP3    H125093   3.664   3.843   6.417 -1.2975  1.7473 -1.7812
 1226TIP3    H225094   3.585   3.815   6.291  0.4568 -0.7352 -2.4143
 1227TIP3   OH225095   0.701   0.319  10.581 -0.1009  0.0250 -0.0613
 1227TIP3    H125096   0.733   0.404  10.609  0.0929 -0.2420  0.5492
 1227TIP3    H225097   0.780   0.269  10.559 -0.1483 -0.2943  0.4638
 1228TIP3   OH225098   0.069   2.982   6.037 -0.0913  0.2808 -0.0629
 1228TIP3    H125099   0.155   2.994   6.077  0.0496  0.1749 -0.3276
 1228TIP3    H225100   0.007   2.986   6.110  0.2906 -1.7884  0.4320
 1229TIP3   OH225101   1.573   2.082   2.369 -0.6067 -0.5097 -0.6170
 1229TIP3    H125102   1.649   2.041   2.330  0.9197 -1.0757  2.6011
 1229TIP3    H225103   1.572   2.171   2.333  2.0203 -0.2757 -0.2921
 1230TIP3   OH225104   3.492   6.299   0.261  0.0139 -0.1059  0.0834
 1230TIP3    H125105   3.576   6.345   0.264 -0.6403  1.1088  0.8158
 1230TIP3    H225106   3.470   6.295   0.168  0.3635  0.5498 -0.0356
 1231TIP3   OH225107   5.531   5.753   3.325 -0.0943  0.0163  0.6054
 1231TIP3    H125108   5.437   5.734   3.320 -0.6196  2.4932 -0.9477
 1231TIP3    H225109   5.561   5.748   3.234  0.9860  0.5269  0.9242
 1232TIP3   OH225110   1.146   4.657  13.040 -0.0190  0.2346 -0.0254
 1232TIP3    H125111   1.125   4.628  12.951 -0.5611 -0.7298  0.4049
 1232TIP3    H225112   1.235   4.626  13.056 -0.1292 -0.0816 -0.0283
 1233TIP3   OH225113   2.531   5.550   6.341 -0.6645  0.3740  0.0318
 1233TIP3    H125114   2.534   5.645   6.354 -1.0113  0.4931 -0.7058
 1233TIP3    H225115   2.438   5.531   6.325 -0.6728 -0.1626  0.6912
 1234TIP3   OH225116   1.249   0.766  13.530 -0.0781  0.3891  0.4794
 1234TIP3    H125117   1.286   0.791  13.615  1.3841  1.2268 -0.3629
 1234TIP3    H225118   1.316   0.712  13.489 -0.7352  0.0552 -0.1892
 1235TIP3   OH225119   3.875   4.916  11.915 -0.6012  0.4689 -0.2144
 1235TIP3    H125120   3.799   4.930  11.858 -1.7367 -2.3656  0.4135
 1235TIP3    H225121   3.839   4.880  11.996  1.3102  0.1519  0.5661
 1236TIP3   OH225122   1.475   3.385  13.807 -0.1705  0.2395  0.2790
 1236TIP3    H125123   1.385   3.420  13.804 -0.3204 -0.1400  0.3546
 1236TIP3    H225124   1.472   3.307  13.752 -0.0378 -0.1205  0.7721
 1237TIP3   OH225125   0.955   0.499   5.006  0.2461 -0.2192  0.0476
 1237TIP3    H125126   0.867   0.464   4.991  0.1315 -0.2396  0.7591
 1237TIP3    H225127   0.999   0.433   5.060  0.7936 -0.3386 -0.5301
 1238TIP3   OH225128   5.096   3.640   1.723 -0.3230  0.0180 -0.1637
 1238TIP3    H125129   5.083   3.600   1.638 -1.7538 -1.4759  0.7063
 1238TIP3    H225130   5.191   3.639   1.735 -0.1860 -1.0127 -1.1628
 1239TIP3   OH225131   0.587   4.148   6.208  0.2210 -0.2453  0.1978
 1239TIP3    H125132   0.512   4.089   6.223 -0.2103  0.3098  0.2691
 1239TIP3    H225133   0.663   4.091   6.213 -0.2188 -0.9089 -0.3300
 1240TIP3   OH225134   4.064   2.699  15.506 -0.9150 -0.3768  0.1243
 1240TIP3    H125135   4.088   2.630  15.568  1.9504  1.2827  1.0837
 1240TIP3    H225136   4.071   2.780  15.557 -0.4849  0.8920 -1.8379
 1241TIP3   OH225137   1.734   3.091   3.120  0.3617 -0.0303  0.3229
 1241TIP3    H125138   1.649   3.061   3.087 -0.9542  1.1897  2.3995
 1241TIP3    H225139   1.778   3.126   3.043 -1.5152  0.3670 -0.6318
 1242TIP3   OH225140   0.823   3.033  11.598 -0.0982 -0.7239  0.2497
 1242TIP3    H125141   0.825   3.014  11.692  2.4044  0.9065  0.6259
 1242TIP3    H225142   0.838   3.128  11.593 -1.2121 -0.6107 -1.7819
 1243TIP3   OH225143   6.208   4.603   1.961  0.2612  0.1288 -0.6316
 1243TIP3    H125144   6.117   4.574   1.963 -0.3584  1.9334  0.4444
 1243TIP3    H225145   6.210   4.672   1.894  0.8542  0.0631 -0.6880
 1244TIP3   OH225146   1.258   2.134  16.348 -0.2041  0.7405 -0.1827
 1244TIP3    H125147   1.314   2.063  16.317 -0.0820  1.3444 -1.3827
 1244TIP3    H225148   1.318   2.193  16.395 -0.2829  0.1366  0.6956
 1245TIP3   OH225149   4.078   6.373  12.444 -0.3099  0.4742  0.8182
 1245TIP3    H125150   4.005   6.381  12.382  0.0268  0.8082  0.4572
 1245TIP3    H225151   4.138   6.311  12.403  1.4939  3.0874 -0.8278
 1246TIP3   OH225152   3.773   0.280  12.124  0.2006 -0.4628 -0.7323
 1246TIP3    H125153   3.814   0.203  12.163  0.6793 -0.5866 -1.4468
 1246TIP3    H225154   3.804   0.280  12.033  2.1019  1.8401 -0.1927
 1247TIP3   OH225155   5.374   4.003  11.387 -0.4148 -0.1135  0.2783
 1247TIP3    H125156   5.376   3.925  11.443 -0.4614 -0.5557 -0.3179
 1247TIP3    H225157   5.282   4.013  11.363 -0.6031  0.8711  1.3515
 1248TIP3   OH225158   0.732   3.874  13.547 -0.4454  0.3087  0.4912
 1248TIP3    H125159   0.798   3.915  13.602 -1.6037  1.4552  1.0867
 1248TIP3    H225160   0.677   3.947  13.518 -1.4583 -0.6132  0.0459
 1249TIP3   OH225161   3.499   6.495  11.313  0.1097  0.9326 -0.1170
 1249TIP3    H125162   3.550   6.511  11.393  2.0732 -0.0919 -1.1021
 1249TIP3    H225163   3.564   6.499  11.243 -1.5705  1.7854 -1.6847
 1250TIP3   OH225164   3.593   4.410  16.113  0.3211 -0.6960  0.1605
 1250TIP3    H125165   3.564   4.483  16.167 -1.5189 -1.8281  0.7782
 1250TIP3    H225166   3.543   4.419  16.031  1.1215 -0.4929 -0.3170
 1251TIP3   OH225167   5.271   4.231  11.909  0.2593 -0.1539 -0.0422
 1251TIP3    H125168   5.344   4.268  11.960  0.2016  0.2267 -0.2304
 1251TIP3    H225169   5.206   4.301  11.907 -0.1260 -0.5027  0.1498
 1252TIP3   OH225170   5.098   3.298  14.383 -0.1339  0.1583  0.1798
 1252TIP3    H125171   5.038   3.331  14.450  1.4862 -1.4092  2.5508
 1252TIP3    H225172   5.170   3.260  14.432  0.9963 -1.4126 -2.4938
 1253TIP3   OH225173   2.422   2.344  16.035 -0.3255  0.0338 -0.0619
 1253TIP3    H125174   2.512   2.317  16.057 -0.1111  0.1124 -0.8106
 1253TIP3    H225175   2.382   2.365  16.119  0.4956  0.4067  0.2435
 1254TIP3   OH225176   5.779   2.603   0.569 -0.2422  0.2424 -0.1357
 1254TIP3    H125177   5.734   2.623   0.651  1.0360  0.3216  0.5685
 1254TIP3    H225178   5.855   2.661   0.569 -0.4786  0.5897 -1.6257
 1255TIP3   OH225179   0.115   1.805   6.519 -0.4209 -0.4708  0.3785
 1255TIP3    H125180   0.030   1.809   6.561 -0.9816  0.6488 -0.7873
 1255TIP3    H225181   0.152   1.892   6.530 -0.5149 -0.1887 -1.2334
 1256TIP3   OH225182   1.518   4.263   3.020 -0.3404 -0.2209  0.6272
 1256TIP3    H125183   1.580   4.194   2.994 -2.1434 -0.6181 -3.3832
 1256TIP3    H225184   1.495   4.241   3.110  0.4305 -3.9237  0.1184
 1257TIP3   OH225185   2.380   3.270  12.952 -0.0563  0.3151  0.6852
 1257TIP3    H125186   2.312   3.324  12.912 -1.6445  0.4912  3.4098
 1257TIP3    H225187   2.447   3.332  12.981  0.3457  0.3301 -0.2418
 1258TIP3   OH225188   2.832   1.998  13.286  0.2367  0.3310  0.0600
 1258TIP3    H125189   2.854   1.910  13.318 -1.9343  0.1739  1.2393
 1258TIP3    H225190   2.917   2.041  13.275  1.3762 -1.9690 -0.8084
 1259TIP3   OH225191   0.593   0.905  11.505  0.0730  0.0872 -0.3302
 1259TIP3    H125192   0.663   0.840  11.496  0.0402  0.1461 -1.0436
 1259TIP3    H225193   0.525   0.875  11.446 -0.4426  0.1305  0.2307
 1260TIP3   OH225194   3.557   2.386   2.676 -0.3529  0.4308 -0.0375
 1260TIP3    H125195   3.643   2.403   2.636  0.6090  1.8603  2.4346
 1260TIP3    H225196   3.494   2.409   2.607  1.2074  1.2129 -1.2711
 1261TIP3   OH225197   1.585   2.313   2.622  0.1915 -0.2474 -0.3729
 1261TIP3    H125198   1.592   2.382   2.687  0.8042 -0.1358 -0.5498
 1261TIP3    H225199   1.674   2.281   2.612 -0.2588 -2.0356  0.7560
 1262TIP3   OH225200   6.778   0.914  15.044  0.3288  0.2231  0.8354
 1262TIP3    H125201   6.732   0.935  15.125 -0.4695 -0.3883  0.5666
 1262TIP3    H225202   6.716   0.939  14.975  0.6852  0.0263  0.4426
 1263TIP3   OH225203   4.829   1.169  10.854 -0.0077  0.0643 -0.3795
 1263TIP3    H125204   4.876   1.130  10.781  0.8196 -0.0525  0.2072
 1263TIP3    H225205   4.853   1.262  10.852 -1.0977  0.3545 -1.0956
 1264TIP3   OH225206   0.813   4.510   3.957 -0.1488  0.2595  0.1941
 1264TIP3    H125207   0.825   4.603   3.978  1.1806 -0.1437  1.3843
 1264TIP3    H225208   0.723   4.491   3.982  0.2303  0.7297  2.0932
 1265TIP3   OH225209   1.807   0.992  10.552  0.6908 -0.1410 -0.2289
 1265TIP3    H125210   1.758   1.037  10.482 -1.5294  1.9929  2.4382
 1265TIP3    H225211   1.784   0.900  10.542 -0.2334  0.2243 -1.7997
 1266TIP3   OH225212   5.814   4.190   1.034 -0.4512 -0.0626 -0.4719
 1266TIP3    H125213   5.818   4.261   0.971  2.6689 -0.9951 -1.5428
 1266TIP3    H225214   5.820   4.232   1.119  2.1752  1.0391 -1.1076
 1267TIP3   OH225215   5.664   4.370   2.264  0.1721 -0.6275 -0.6097
 1267TIP3    H125216   5.667   4.281   2.298 -1.1001  0.2606  2.1425
 1267TIP3    H225217   5.750   4.407   2.285  0.8122 -1.2317 -2.0268
 1268TIP3   OH225218   6.323   3.355   4.794  0.1788  0.0521  0.6946
 1268TIP3    H125219   6.288   3.330   4.708 -2.3441  3.1810  0.6313
 1268TIP3    H225220   6.323   3.273   4.844 -1.6385 -1.2555 -1.2312
 1269TIP3   OH225221   3.550   5.134   4.377 -0.4016 -0.7448  0.1492
 1269TIP3    H125222   3.538   5.153   4.284 -0.7328  0.6020  0.4387
 1269TIP3    H225223   3.594   5.212   4.411 -1.6604 -0.5438  1.3997
 1270TIP3   OH225224   5.490   1.212   5.114  0.0936  0.2080  0.3041
 1270TIP3    H125225   5.561   1.276   5.116 -0.7243  1.2217 -1.2453
 1270TIP3    H225226   5.443   1.225   5.197  0.3101  1.1646  0.2792
 1271TIP3   OH225227   3.842   6.316   3.301 -0.4211 -0.1371 -0.0485
 1271TIP3    H125228   3.747   6.307   3.291 -0.6965  2.8341 -1.1440
 1271TIP3    H225229   3.852   6.362   3.385 -0.0807  0.7632 -0.5674
 1272TIP3   OH225230   3.320   4.854   1.376  0.3446  0.0557  0.3248
 1272TIP3    H125231   3.303   4.946   1.358 -0.6687  0.6195  3.6128
 1272TIP3    H225232   3.242   4.809   1.342  0.7801  0.3471 -1.1594
 1273TIP3   OH225233   4.743   6.044  12.542  0.1440  0.5668 -0.2764
 1273TIP3    H125234   4.745   6.080  12.454 -0.9217 -1.7553 -1.3540
 1273TIP3    H225235   4.826   5.997  12.551  0.2151  0.7302 -0.0786
 1274TIP3   OH225236   6.382   4.056   0.637  0.1144  0.2808 -0.0871
 1274TIP3    H125237   6.459   4.022   0.592  1.4892  1.4888  1.2395
 1274TIP3    H225238   6.322   3.982   0.641  1.4540 -0.8828 -0.6135
 1275TIP3   OH225239   6.239   3.217   1.110 -0.1102 -0.7872 -0.4463
 1275TIP3    H125240   6.253   3.228   1.204 -0.7395 -0.2897 -0.4121
 1275TIP3    H225241   6.187   3.137   1.103 -2.6162  0.7237 -0.1550
 1276TIP3   OH225242   3.005   1.620  16.873  0.2482  0.1424 -0.1023
 1276TIP3    H125243   3.067   1.585  16.810  0.8927 -1.5110  1.3803
 1276TIP3    H225244   3.021   1.715  16.872 -0.6544  0.3767 -3.2674
 1277TIP3   OH225245   4.500   5.870   6.052  0.2571 -0.6307  0.0825
 1277TIP3    H125246   4.450   5.834   5.979 -0.8558 -0.5974  0.8195
 1277TIP3    H225247   4.573   5.808   6.063  0.1560 -0.9103 -0.7097
 1278TIP3   OH225248   3.150   4.202   4.134  0.0523  0.6673 -0.0895
 1278TIP3    H125249   3.111   4.120   4.106 -1.4937  1.8056 -1.4833
 1278TIP3    H225250   3.212   4.224   4.064  0.2240  0.8414  0.1134
 1279TIP3   OH225251   4.286   3.058  12.817 -0.4335  0.0051 -0.0227
 1279TIP3    H125252   4.270   3.146  12.850  0.7074  0.1179  0.2586
 1279TIP3    H225253   4.381   3.052  12.809 -0.5188 -1.0767 -0.3908
 1280TIP3   OH225254   1.711   6.116   5.067  0.5072  0.0236 -0.7343
 1280TIP3    H125255   1.701   6.176   5.141  0.4519  0.9820 -1.4947
 1280TIP3    H225256   1.671   6.162   4.993 -2.6057 -2.2803 -0.7019
 1281TIP3   OH225257   1.630   2.781  14.917 -0.3179  0.3560 -0.2657
 1281TIP3    H125258   1.705   2.767  14.975 -0.2015  0.4133 -0.3993
 1281TIP3    H225259   1.656   2.856  14.863 -0.6875  0.7082  0.0445
 1282TIP3   OH225260   0.583   1.616   0.430  0.1419 -0.2022 -0.2188
 1282TIP3    H125261   0.579   1.651   0.341  2.0921  0.0765 -0.2425
 1282TIP3    H225262   0.598   1.522   0.419 -3.1881 -0.8609 -0.1401
 1283TIP3   OH225263   4.511   4.762  16.661  0.8698 -0.5556  0.2147
 1283TIP3    H125264   4.548   4.796  16.580  0.0277  0.7396  0.3366
 1283TIP3    H225265   4.579   4.778  16.727 -0.7009  4.5009  1.0444
 1284TIP3   OH225266   6.021   3.659   1.648  0.6135  0.8917 -0.2362
 1284TIP3    H125267   6.111   3.636   1.625  0.5039  1.1328 -0.9260
 1284TIP3    H225268   5.971   3.638   1.569  0.0368  0.5980  0.2021
 1285TIP3   OH225269   0.379   4.556  11.399  0.1576 -0.1567 -0.0344
 1285TIP3    H125270   0.319   4.622  11.432 -0.0752  0.0099 -0.7702
 1285TIP3    H225271   0.455   4.561  11.456 -0.4725 -0.2798  0.8301
 1286TIP3   OH225272   0.560   6.288  14.366 -0.1349 -0.6995 -0.0961
 1286TIP3    H125273   0.641   6.330  14.394 -0.0301 -0.9229 -0.0587
 1286TIP3    H225274   0.550   6.314  14.274  1.0527 -2.2638 -0.7292
 1287TIP3   OH225275   1.167   3.650  12.536  0.2260  0.1151  0.3423
 1287TIP3    H125276   1.080   3.610  12.543  1.1343 -2.3794 -1.2790
 1287TIP3    H225277   1.149   3.742  12.518 -2.1224 -0.4699 -0.7418
 1288TIP3   OH225278   1.135   0.577   2.959 -0.2257 -0.5045  0.3236
 1288TIP3    H125279   1.088   0.577   3.042 -1.0946 -2.1202 -0.1445
 1288TIP3    H225280   1.092   0.645   2.907 -1.3669 -1.2457  0.2821
 1289TIP3   OH225281   1.711   3.430   4.692  0.2964  0.4524  0.5253
 1289TIP3    H125282   1.746   3.390   4.771 -0.3566 -2.7046 -0.6569
 1289TIP3    H225283   1.619   3.404   4.691  0.1871  0.8210 -1.0566
 1290TIP3   OH225284   2.310   3.528   6.068 -0.1684 -0.3996 -0.1127
 1290TIP3    H125285   2.258   3.594   6.115  1.5249 -0.0920  1.4476
 1290TIP3    H225286   2.323   3.567   5.982  0.0260  0.9205  0.4741
 1291TIP3   OH225287   6.411   1.524   4.969  0.5140 -0.3926  0.1285
 1291TIP3    H125288   6.462   1.539   4.890  0.3180  1.8126  0.3638
 1291TIP3    H225289   6.461   1.457   5.017  1.4851 -0.5872 -1.1007
 1292TIP3   OH225290   1.454   2.064   3.019  0.3772  0.3758  0.0305
 1292TIP3    H125291   1.522   2.063   2.951  0.5557 -1.6847  0.1777
 1292TIP3    H225292   1.489   2.010   3.089 -0.2214  1.6855  1.3891
 1293TIP3   OH225293   3.842   1.165  12.167  0.0753 -0.0040 -0.0037
 1293TIP3    H125294   3.812   1.147  12.078  0.7790  0.0187 -0.2513
 1293TIP3    H225295   3.923   1.114  12.176 -0.1379 -0.2230  0.7175
 1294TIP3   OH225296   2.858   5.534  11.804 -0.2664  0.2957 -0.1295
 1294TIP3    H125297   2.905   5.573  11.730 -2.1897  1.0914 -0.9995
 1294TIP3    H225298   2.830   5.608  11.857  0.2068 -0.2168  0.8681
 1295TIP3   OH225299   6.725   1.427   0.310  0.7020 -0.3048  0.1859
 1295TIP3    H125300   6.793   1.464   0.366  0.3375 -0.5785  0.8167
 1295TIP3    H225301   6.667   1.380   0.370 -0.0151 -0.1241 -0.3452
 1296TIP3   OH225302   5.769   4.457  16.872 -0.1161 -0.2395 -0.1183
 1296TIP3    H125303   5.788   4.538  16.824 -0.7692  1.1991  1.8989
 1296TIP3    H225304   5.772   4.388  16.806  0.8786  1.3717 -1.8434
 1297TIP3   OH225305   2.350   6.177  16.689 -0.2703 -0.1976  0.6454
 1297TIP3    H125306   2.331   6.088  16.718 -1.1518 -0.2999 -0.1813
 1297TIP3    H225307   2.294   6.233  16.743 -0.3512 -0.2154  0.5806
 1298TIP3   OH225308   0.760   5.547   5.188 -0.3181 -0.3181  0.3077
 1298TIP3    H125309   0.744   5.519   5.099 -0.9954 -1.2433  0.7065
 1298TIP3    H225310   0.673   5.557   5.227 -0.0338  0.0732  0.8678
 1299TIP3   OH225311   0.463   6.218   5.840  0.5472 -0.6357 -0.3833
 1299TIP3    H125312   0.379   6.228   5.887  0.6859  1.1985 -0.4310
 1299TIP3    H225313   0.517   6.165   5.899 -0.1007 -0.4426  0.4182
 1300TIP3   OH225314   2.157   4.938  15.603  0.0203  0.7032 -0.1929
 1300TIP3    H125315   2.226   4.936  15.537  0.0328 -0.2023 -0.1577
 1300TIP3    H225316   2.194   4.991  15.674  0.7515  0.1043 -0.1082
 1301TIP3   OH225317   1.308   6.452   4.418  0.7163 -0.4240 -0.6150
 1301TIP3    H125318   1.399   6.447   4.449  0.0225 -1.1306  1.4527
 1301TIP3    H225319   1.262   6.501   4.486 -0.5916 -0.6636 -1.2999
 1302TIP3   OH225320   5.836   0.984   3.127 -0.1735  0.2357  0.1279
 1302TIP3    H125321   5.847   1.056   3.065 -1.0928  0.3759  0.1121
 1302TIP3    H225322   5.755   1.005   3.174 -1.5797 -1.7838 -1.2589
 1303TIP3   OH225323   5.523   1.585  15.405  0.1738 -0.0706  0.0475
 1303TIP3    H125324   5.433   1.591  15.437 -0.0427  1.6479 -0.7568
 1303TIP3    H225325   5.567   1.529  15.468 -1.3120 -0.4671  0.7857
 1304TIP3   OH225326   5.212   3.150  15.200  0.0680  0.1694 -0.2617
 1304TIP3    H125327   5.271   3.205  15.251  1.0495  0.2849 -1.4667
 1304TIP3    H225328   5.127   3.161  15.241  0.7395  0.5677  1.0819
 1305TIP3   OH225329   6.107   5.405  14.106 -0.4389 -0.1038  0.2205
 1305TIP3    H125330   6.071   5.459  14.035 -1.0938  0.6997  1.1274
 1305TIP3    H225331   6.134   5.469  14.172 -0.6784 -0.8724  1.0723
 1306TIP3   OH225332   5.683   4.995   2.713 -0.4661 -0.1664  0.8284
 1306TIP3    H125333   5.774   4.984   2.739  0.3178  1.8531 -0.8421
 1306TIP3    H225334   5.678   5.083   2.677 -2.7432 -0.7497 -0.4973
 1307TIP3   OH225335   1.544   1.513   1.029  0.4989  0.6412 -0.0784
 1307TIP3    H125336   1.528   1.556   0.945 -0.3051 -0.5786 -0.5859
 1307TIP3    H225337   1.572   1.583   1.087  0.8310  1.5548 -1.3014
 1308TIP3   OH225338   0.902   5.829  11.271 -0.0805 -0.1953  0.4940
 1308TIP3    H125339   0.833   5.764  11.277 -0.9196  0.5043 -0.9833
 1308TIP3    H225340   0.967   5.790  11.213  0.2341 -0.4034  0.9854
 1309TIP3   OH225341   2.169   0.095   1.810  0.0537 -0.2665  0.1500
 1309TIP3    H125342   2.126   0.177   1.836  0.0797 -0.6259  1.3638
 1309TIP3    H225343   2.113   0.061   1.740 -1.0596 -0.1851  0.9642
 1310TIP3   OH225344   0.464   0.983   5.222  0.1014  0.0210  0.1279
 1310TIP3    H125345   0.535   1.001   5.161 -0.8225  2.7725 -0.2824
 1310TIP3    H225346   0.507   0.950   5.300  1.5138 -1.3456 -1.1686
 1311TIP3   OH225347   3.624   0.586  16.142 -0.4754 -0.1205  0.1934
 1311TIP3    H125348   3.647   0.617  16.229  0.0285  0.3539 -0.1020
 1311TIP3    H225349   3.644   0.492  16.144 -0.1362 -0.0437  0.4797
 1312TIP3   OH225350   5.017   0.799  11.525  0.0097  0.9527 -0.3432
 1312TIP3    H125351   5.100   0.849  11.527  0.9736 -0.5468 -1.2029
 1312TIP3    H225352   5.042   0.710  11.546 -1.8168  0.9046  1.9897
 1313TIP3   OH225353   4.689   6.199  13.557 -0.3634  0.5468  0.9451
 1313TIP3    H125354   4.757   6.171  13.495 -1.3752  1.3852 -0.6125
 1313TIP3    H225355   4.736   6.213  13.639  1.0261 -0.6401  0.3993
 1314TIP3   OH225356   0.712   1.931  16.889 -0.0594  0.2825 -0.2725
 1314TIP3    H125357   0.728   2.011  16.939  0.4342 -0.7730  1.3556
 1314TIP3    H225358   0.747   1.861  16.944  0.7333 -0.9535 -2.2495
 1315TIP3   OH225359   3.177   4.608  16.644 -0.0430 -0.3450  0.1948
 1315TIP3    H125360   3.226   4.552  16.704  0.7030  0.8184  0.7038
 1315TIP3    H225361   3.239   4.677  16.619 -0.8421  0.0895 -0.6500
 1316TIP3   OH225362   1.077   2.969  14.539  0.7307 -0.4575 -0.3979
 1316TIP3    H125363   1.093   2.917  14.618  0.0595 -1.9434 -1.2029
 1316TIP3    H225364   1.016   3.038  14.567  1.0914 -0.5033  0.5351
 1317TIP3   OH225365   4.523   2.127  14.003  0.3172 -0.5511 -0.1714
 1317TIP3    H125366   4.534   2.146  13.910 -2.1403  0.9926 -0.2281
 1317TIP3    H225367   4.524   2.031  14.008 -1.1455 -0.7253 -2.0514
 1318TIP3   OH225368   4.163   5.366   5.074  0.0614  0.2043  0.0375
 1318TIP3    H125369   4.137   5.310   5.147  0.0424 -0.2163 -0.2863
 1318TIP3    H225370   4.254   5.342   5.057  0.5623  1.3892  0.9115
 1319TIP3   OH225371   1.566   5.332   4.010 -0.4068  0.3177 -0.8566
 1319TIP3    H125372   1.654   5.302   3.989  0.5945  0.9324  2.0085
 1319TIP3    H225373   1.512   5.253   4.004  1.0677 -0.9093  0.7683
 1320TIP3   OH225374   1.489   5.077   5.659 -0.0824  0.2151 -0.0989
 1320TIP3    H125375   1.536   5.038   5.732  0.3150  0.4582 -0.2227
 1320TIP3    H225376   1.405   5.106   5.697  0.3014  0.7499  0.3680
 1321TIP3   OH225377   5.114   5.257   0.364 -0.2715 -0.1186  0.6605
 1321TIP3    H125378   5.199   5.299   0.349 -0.1484 -0.4734  0.3512
 1321TIP3    H225379   5.116   5.178   0.309 -0.1989 -0.9434  1.8075
 1322TIP3   OH225380   1.457   4.037   5.605  0.1730  0.2458  0.1069
 1322TIP3    H125381   1.493   3.954   5.572 -1.6833 -0.6739  0.2349
 1322TIP3    H225382   1.526   4.101   5.589  1.0091 -0.9875 -1.6114
 1323TIP3   OH225383   5.239   4.682  13.534  0.5856  0.1239 -0.2560
 1323TIP3    H125384   5.211   4.660  13.445 -0.9955 -2.7572  0.8058
 1323TIP3    H225385   5.174   4.745  13.565  0.3079  0.0476 -0.6754
 1324TIP3   OH225386   3.609   2.566   2.887  0.1056  0.6172  0.8270
 1324TIP3    H125387   3.646   2.489   2.845  1.6103  2.7221 -2.0312
 1324TIP3    H225388   3.519   2.540   2.909  0.0393 -1.4776 -1.4521
 1325TIP3   OH225389   5.687   0.043  11.209 -0.4280 -0.8775 -0.3409
 1325TIP3    H125390   5.631   0.057  11.285  2.9372 -0.3228  2.2839
 1325TIP3    H225391   5.639  -0.021  11.156 -4.8209  1.7137  0.0286
 1326TIP3   OH225392   6.545   1.154  16.102  0.7380 -0.1862 -0.6411
 1326TIP3    H125393   6.594   1.124  16.026  0.8093  0.9450 -1.0541
 1326TIP3    H225394   6.509   1.074  16.140 -1.7901 -0.5802 -3.5342
 1327TIP3   OH225395   2.302   6.013   2.856 -0.4071  0.1527  0.6619
 1327TIP3    H125396   2.357   5.953   2.805  0.1327 -0.7532  2.2482
 1327TIP3    H225397   2.316   6.099   2.814  0.9727 -0.3348  0.0541
 1328TIP3   OH225398   6.801   5.795   5.404 -0.1229 -0.1911  0.3605
 1328TIP3    H125399   6.786   5.789   5.309 -2.1568 -1.2753  0.6836
 1328TIP3    H225400   6.823   5.887   5.419  2.0481 -0.3626 -1.3476
 1329TIP3   OH225401   0.110   0.681  12.927  0.0753 -0.0911 -0.2857
 1329TIP3    H125402   0.089   0.750  12.990 -0.1701 -0.7874  0.4109
 1329TIP3    H225403   0.068   0.602  12.963 -0.7210 -0.3535 -1.7002
 1330TIP3   OH225404   4.939   1.956  15.204 -0.8263 -0.5022  0.1141
 1330TIP3    H125405   5.012   2.015  15.222  1.1058 -2.6859 -0.1544
 1330TIP3    H225406   4.862   2.013  15.203  0.9734  2.0778 -0.7689
 1331TIP3   OH225407   4.292   1.928   3.219 -0.0542 -0.1453  0.9157
 1331TIP3    H125408   4.323   1.945   3.308 -0.6898 -1.5784  1.4557
 1331TIP3    H225409   4.276   1.833   3.218  1.1436 -0.3742 -1.1195
 1332TIP3   OH225410   3.137   6.019  11.109  0.2227  0.1846  0.2770
 1332TIP3    H125411   3.088   5.964  11.048 -1.5745 -0.9334  2.5709
 1332TIP3    H225412   3.079   6.093  11.126  0.4839  0.2354  0.9723
 1333TIP3   OH225413   2.568   3.385  14.985 -0.2133  0.0841 -0.1716
 1333TIP3    H125414   2.531   3.429  14.909 -2.0528  0.7380  1.0382
 1333TIP3    H225415   2.492   3.359  15.037  0.9931 -0.1660  1.5405
 1334TIP3   OH225416   1.324   0.974  11.054  0.4422 -0.1016  0.1839
 1334TIP3    H125417   1.241   0.936  11.080  0.5368  0.0410  0.7062
 1334TIP3    H225418   1.303   1.065  11.032 -0.1708 -0.8712 -3.0411
 1335TIP3   OH225419   4.650   4.804   3.334  0.5216 -0.1511 -0.3913
 1335TIP3    H125420   4.690   4.811   3.421  1.6576  0.6897 -0.9524
 1335TIP3    H225421   4.560   4.833   3.347  1.5251  3.2884 -0.0474
 1336TIP3   OH225422   5.722   1.244   0.772  1.1671 -0.1414 -0.2239
 1336TIP3    H125423   5.730   1.231   0.866  0.8198  0.9480 -0.0322
 1336TIP3    H225424   5.671   1.169   0.741  0.2295  0.1217  0.6385
 1337TIP3   OH225425   6.125   1.476  14.652 -0.0332 -0.3274 -0.9883
 1337TIP3    H125426   6.088   1.473  14.564 -0.1353 -1.2049 -0.9171
 1337TIP3    H225427   6.085   1.553  14.692  0.1548  0.1900 -1.7669
 1338TIP3   OH225428   0.542   1.924  15.309 -0.0310 -0.2328  0.2200
 1338TIP3    H125429   0.589   1.870  15.246 -1.0701 -1.2918  0.3261
 1338TIP3    H225430   0.605   1.939  15.379  0.7141 -0.1220 -0.4552
 1339TIP3   OH225431   2.674   4.667   2.339  0.6266  0.5583 -0.5638
 1339TIP3    H125432   2.756   4.635   2.300  1.2745 -0.8781  1.7320
 1339TIP3    H225433   2.624   4.588   2.357 -0.3181  1.2731  0.0383
 1340TIP3   OH225434   6.536   3.690   0.994  0.1456  0.4813  0.5585
 1340TIP3    H125435   6.487   3.613   1.024  0.5230 -0.6546 -1.5194
 1340TIP3    H225436   6.471   3.746   0.953  0.1133  0.4750  0.6011
 1341TIP3   OH225437   2.197   3.251   6.674 -0.2141  0.4521 -0.7501
 1341TIP3    H125438   2.203   3.326   6.616  0.9543  0.2090 -0.9693
 1341TIP3    H225439   2.267   3.265   6.739 -0.2601 -0.2193 -0.5424
 1342TIP3   OH225440   4.028   3.231  11.001  0.2408 -0.5716  0.5495
 1342TIP3    H125441   3.983   3.163  11.051 -2.2112 -0.1479 -0.9483
 1342TIP3    H225442   3.985   3.231  10.916  0.1572  2.8243  0.4734
 1343TIP3   OH225443   0.752   6.337  16.059 -0.2004 -0.1896  0.0069
 1343TIP3    H125444   0.802   6.378  16.130 -0.0240  2.0620 -1.3117
 1343TIP3    H225445   0.811   6.271  16.023  0.1836 -0.4792  1.1144
 1344TIP3   OH225446   6.006   2.986  16.912 -0.5238 -0.0002 -0.3980
 1344TIP3    H125447   5.962   2.905  16.887  0.3952 -0.6317 -0.0188
 1344TIP3    H225448   6.073   2.999  16.846 -0.4815  0.3065 -0.3004
 1345TIP3   OH225449   1.856   4.088   5.454  0.2556  0.3710 -0.5220
 1345TIP3    H125450   1.821   4.171   5.485 -0.4764 -0.0220 -0.2562
 1345TIP3    H225451   1.831   4.025   5.522  0.4925 -0.1287 -0.8886
 1346TIP3   OH225452   5.161   1.514  11.926 -0.0330 -0.5564 -0.2280
 1346TIP3    H125453   5.184   1.499  11.835  2.6215 -1.5328  0.4926
 1346TIP3    H225454   5.152   1.426  11.963  0.0120 -0.1945  0.6743
 1347TIP3   OH225455   1.426   0.859  12.230  0.2067 -0.4265  0.4430
 1347TIP3    H125456   1.515   0.850  12.198  1.2620 -0.5741  3.1589
 1347TIP3    H225457   1.433   0.920  12.304 -2.1857  0.6128 -0.0831
 1348TIP3   OH225458   0.379   1.319  11.640  0.1652 -0.0424 -0.4348
 1348TIP3    H125459   0.299   1.290  11.685  0.9966 -0.2308  0.9775
 1348TIP3    H225460   0.349   1.387  11.580 -0.9442  0.5425  0.7267
 1349TIP3   OH225461   0.983   3.176   5.494 -0.6585 -0.6178 -0.0447
 1349TIP3    H125462   0.925   3.252   5.500 -0.3207 -0.2805 -0.9180
 1349TIP3    H225463   0.967   3.128   5.575 -2.4065 -0.7073 -0.3937
 1350TIP3   OH225464   3.323   2.141   2.475 -0.0697 -0.0756  0.6208
 1350TIP3    H125465   3.392   2.088   2.514  1.6906  1.1871 -0.6714
 1350TIP3    H225466   3.348   2.232   2.493  0.3372  0.5482 -2.4690
 1351TIP3   OH225467   0.635   4.107  12.713  0.1006  0.6699 -0.2337
 1351TIP3    H125468   0.696   4.037  12.690 -0.4759  0.5835 -1.6134
 1351TIP3    H225469   0.638   4.112  12.809  2.3365  0.7541 -0.2744
 1352TIP3   OH225470   4.751   4.801  15.674  0.1963  0.2586 -0.3705
 1352TIP3    H125471   4.744   4.715  15.631  3.3904 -0.0591 -0.5307
 1352TIP3    H225472   4.690   4.796  15.747 -0.4132 -1.7871 -0.9314
 1353TIP3   OH225473   3.772   2.258  14.362  0.3687  0.0979 -0.5561
 1353TIP3    H125474   3.854   2.219  14.393 -0.5820  0.5890  3.0143
 1353TIP3    H225475   3.745   2.316  14.434 -3.1827 -0.1643 -1.5079
 1354TIP3   OH225476   0.510   6.070  15.488  0.0464  0.2691 -0.2185
 1354TIP3    H125477   0.503   6.024  15.404 -0.4655  0.7670 -0.4589
 1354TIP3    H225478   0.421   6.100  15.505  0.1862  0.3301  0.4167
 1355TIP3   OH225479   5.859   2.875  15.227 -0.2371  0.5152 -0.0450
 1355TIP3    H125480   5.924   2.944  15.212 -1.0782  1.1839 -0.7942
 1355TIP3    H225481   5.890   2.828  15.303  1.2591  0.6552 -0.5427
 1356TIP3   OH225482   1.976   3.639  12.079 -0.0119  0.8683  0.1095
 1356TIP3    H125483   2.061   3.652  12.038  0.2811  0.3607  0.5432
 1356TIP3    H225484   1.991   3.573  12.147 -0.9179  0.1739 -0.3360
 1357TIP3   OH225485   5.267   4.114  10.676  0.4640 -0.1450  0.3652
 1357TIP3    H125486   5.345   4.064  10.702  0.6883  0.5820  1.1577
 1357TIP3    H225487   5.302   4.189  10.629  0.1003 -0.9729 -1.3054
 1358TIP3   OH225488   2.469   6.156  13.382 -0.1796 -0.0643 -0.0028
 1358TIP3    H125489   2.492   6.210  13.306  0.8754 -3.4151 -2.2824
 1358TIP3    H225490   2.506   6.203  13.457 -1.4576  3.5094 -1.3932
 1359TIP3   OH225491   0.394   1.814   0.013 -0.2608 -0.1287 -0.3066
 1359TIP3    H125492   0.434   1.897  -0.011 -0.5635 -0.5491 -2.5035
 1359TIP3    H225493   0.328   1.837   0.078 -0.1903  1.3141 -0.7080
 1360TIP3   OH225494   5.519   4.223   4.539  0.0103 -0.5711  0.2844
 1360TIP3    H125495   5.481   4.138   4.516 -0.8809 -0.5567  1.5976
 1360TIP3    H225496   5.459   4.287   4.501 -1.2966 -0.5489  2.2547
 1361TIP3   OH225497   0.198   5.971  13.615 -0.3496 -0.2063  0.1319
 1361TIP3    H125498   0.135   5.914  13.659 -1.3309  2.7604  3.0625
 1361TIP3    H225499   0.164   5.981  13.526  0.1156 -4.2477 -0.6971
 1362TIP3   OH225500   1.623   6.003   5.790  0.5325 -0.4433 -0.0900
 1362TIP3    H125501   1.537   5.979   5.824  0.2288  0.0600 -0.4823
 1362TIP3    H225502   1.677   6.015   5.868  0.6850 -2.2870  0.1194
 1363TIP3   OH225503   0.561   5.055  15.778 -0.2840 -0.2805  0.1261
 1363TIP3    H125504   0.548   5.037  15.685  0.7622 -0.5857  0.0266
 1363TIP3    H225505   0.650   5.091  15.783  0.2517 -1.6455  1.1752
 1364TIP3   OH225506   3.390   3.348   1.631 -0.3960  0.5580 -0.0097
 1364TIP3    H125507   3.325   3.418   1.637 -1.2760 -0.1257 -1.1665
 1364TIP3    H225508   3.415   3.331   1.722 -0.7450  1.8221  0.3483
 1365TIP3   OH225509   6.475   2.219  16.708  0.0662 -0.2647 -0.0515
 1365TIP3    H125510   6.490   2.283  16.638 -0.5441 -0.0619 -0.0037
 1365TIP3    H225511   6.561   2.209  16.749  0.1810  0.4939 -0.0865
 1366TIP3   OH225512   2.031   0.341  15.119  0.1180  0.7094  0.1281
 1366TIP3    H125513   2.077   0.406  15.172 -0.9325  0.8509  0.8904
 1366TIP3    H225514   2.010   0.271  15.180  1.1948 -0.3600 -0.6765
 1367TIP3   OH225515   3.095   1.091   2.361 -0.0922 -0.3196  0.1081
 1367TIP3    H125516   3.067   1.041   2.284 -0.3874 -0.7815  0.5086
 1367TIP3    H225517   3.190   1.096   2.353 -0.2057  0.7990 -0.9861
 1368TIP3   OH225518   1.982   1.180  11.237 -0.2830  0.3077  0.1099
 1368TIP3    H125519   2.075   1.171  11.216 -0.0444 -0.0963  1.2706
 1368TIP3    H225520   1.975   1.267  11.277  0.2616 -0.9118  3.1261
 1369TIP3   OH225521   6.170   4.980   1.531  0.1485  0.1343 -0.3527
 1369TIP3    H125522   6.174   5.059   1.584  0.4980  0.1495 -0.3985
 1369TIP3    H225523   6.222   5.000   1.453 -2.4493  1.0449 -1.9641
 1370TIP3   OH225524   4.654   0.407   4.080 -0.2121  0.1061 -0.8606
 1370TIP3    H125525   4.574   0.378   4.036 -0.5142 -0.7910  0.2254
 1370TIP3    H225526   4.624   0.449   4.160  0.2858  2.4677 -1.8236
 1371TIP3   OH225527   1.488   2.745  11.887  0.0429  0.0576 -0.2059
 1371TIP3    H125528   1.545   2.783  11.820 -1.5007 -1.6081 -2.6304
 1371TIP3    H225529   1.400   2.774  11.862 -0.6437 -1.1249  0.7661
 1372TIP3   OH225530   3.919   2.690  13.199  0.2862 -0.7199  0.0935
 1372TIP3    H125531   3.997   2.711  13.148 -0.9076  2.2408 -0.7682
 1372TIP3    H225532   3.861   2.646  13.136 -0.9842  2.4785 -1.2231
 1373TIP3   OH225533   6.739   1.718  12.785  0.1888  0.1759  0.0937
 1373TIP3    H125534   6.740   1.752  12.875 -0.5809  0.3958  0.0296
 1373TIP3    H225535   6.787   1.635  12.790  0.2204  0.2261  0.6977
 1374TIP3   OH225536   2.211   4.726   1.363 -0.0038  0.3074  0.5507
 1374TIP3    H125537   2.278   4.752   1.426  2.3712  0.1926 -1.7830
 1374TIP3    H225538   2.216   4.790   1.293 -0.2701 -1.3590 -1.0772
 1375TIP3   OH225539   0.622   2.052   4.560  0.0608 -0.2057  0.0490
 1375TIP3    H125540   0.588   1.973   4.519  0.0729  0.2062 -0.7740
 1375TIP3    H225541   0.638   2.112   4.487  0.8780  0.2413  0.5779
 1376TIP3   OH225542   4.658   4.543  13.000  0.0637  0.1638 -0.8056
 1376TIP3    H125543   4.750   4.515  13.004 -0.0205  0.0042  0.3163
 1376TIP3    H225544   4.608   4.467  13.029 -0.5939 -0.3789 -3.1539
 1377TIP3   OH225545   0.246   2.522   3.099 -0.0994 -0.0268  0.0829
 1377TIP3    H125546   0.204   2.608   3.089 -0.1404 -0.1925 -1.2207
 1377TIP3    H225547   0.338   2.543   3.110 -0.1284  0.1890 -0.0669
 1378TIP3   OH225548   5.394   6.469  14.270  0.1428 -0.0546  0.0674
 1378TIP3    H125549   5.456   6.469  14.343  0.1312 -0.6083  0.0823
 1378TIP3    H225550   5.428   6.402  14.211 -0.8213 -0.8587  0.4059
 1379TIP3   OH225551   0.562   5.745   4.731 -0.2078 -0.0823  0.0982
 1379TIP3    H125552   0.499   5.757   4.660 -0.3528 -0.1069  0.2209
 1379TIP3    H225553   0.509   5.748   4.811 -0.3576 -2.1012  0.1298
 1380TIP3   OH225554   1.025   3.304   4.668 -0.4543 -0.3786 -0.1572
 1380TIP3    H125555   1.041   3.258   4.750 -0.8002  1.6088  1.1103
 1380TIP3    H225556   1.113   3.319   4.632 -0.2401 -0.5407  0.2906
 1381TIP3   OH225557   0.825   6.175  14.935  0.3450 -0.1402 -0.0783
 1381TIP3    H125558   0.908   6.217  14.960  0.2302 -0.4444  0.8408
 1381TIP3    H225559   0.765   6.248  14.919  0.3966  0.0658  0.6357
 1382TIP3   OH225560   3.950   2.540  16.356  0.8357 -0.0987 -0.1921
 1382TIP3    H125561   3.919   2.616  16.405  1.0620 -0.1981  0.1142
 1382TIP3    H225562   3.891   2.469  16.382 -0.0486  0.2074 -1.3021
 1383TIP3   OH225563   4.405   1.309  14.229  0.0047 -0.8140 -0.1208
 1383TIP3    H125564   4.336   1.367  14.261 -0.9783 -1.6003 -0.7673
 1383TIP3    H225565   4.444   1.272  14.308 -1.3153 -1.4923  0.2336
 1384TIP3   OH225566   3.872   2.780  16.461 -0.0117 -0.0151  0.5127
 1384TIP3    H125567   3.782   2.787  16.428  0.3209 -1.3705 -0.8023
 1384TIP3    H225568   3.879   2.848  16.527 -1.1538  2.0075 -1.3119
 1385TIP3   OH225569   0.708   2.073   4.812 -0.2673 -0.2872 -0.0476
 1385TIP3    H125570   0.659   2.052   4.733 -0.6452 -2.5973  0.7249
 1385TIP3    H225571   0.798   2.046   4.792  0.2771  1.7682 -0.6297
 1386TIP3   OH225572   5.850   4.272   2.488 -0.4207  0.8920 -0.1675
 1386TIP3    H125573   5.855   4.323   2.407  0.1453 -1.0156 -1.4021
 1386TIP3    H225574   5.925   4.212   2.483 -1.0495 -0.0505  1.2055
 1387TIP3   OH225575   1.188   5.688  14.458  0.2947  0.5069  0.0551
 1387TIP3    H125576   1.150   5.672  14.544  0.6900 -1.6526 -0.1177
 1387TIP3    H225577   1.183   5.783  14.446 -0.0443  0.8105  2.3100
 1388TIP3   OH225578   5.016   5.432   2.569  0.1851  0.4758 -0.0811
 1388TIP3    H125579   5.045   5.517   2.602  2.6917 -0.0642 -0.6643
 1388TIP3    H225580   4.986   5.451   2.480  0.3824  0.8273 -0.0778
 1389TIP3   OH225581   5.118   1.061  15.407 -0.3599  0.1856  0.5123
 1389TIP3    H125582   5.049   0.995  15.418  0.0815  0.0639  3.1578
 1389TIP3    H225583   5.197   1.010  15.388 -0.5821  0.1895 -0.4705
 1390TIP3   OH225584   2.990   5.744   5.104  0.1570 -0.2119  0.2016
 1390TIP3    H125585   2.954   5.688   5.172  0.9475  1.2867  1.9266
 1390TIP3    H225586   3.084   5.748   5.123  0.0699  1.9882  0.3776
 1391TIP3   OH225587   2.507   6.164  14.892  0.9981  0.7455  0.4536
 1391TIP3    H125588   2.497   6.251  14.855  0.1045  1.9272  3.2055
 1391TIP3    H225589   2.424   6.148  14.937  1.1348 -1.5805  0.0021
 1392TIP3   OH225590   0.229   3.883   1.466  0.1282  0.1503 -0.1499
 1392TIP3    H125591   0.242   3.872   1.560 -2.1021  0.1801  0.2318
 1392TIP3    H225592   0.242   3.976   1.450  2.4711 -0.1509 -0.2836
 1393TIP3   OH225593   5.751   1.330   2.041  0.2780 -0.3150  0.6212
 1393TIP3    H125594   5.716   1.272   1.973 -0.1980 -0.0502  0.6353
 1393TIP3    H225595   5.707   1.413   2.026  2.2695  0.6014 -0.5362
 1394TIP3   OH225596   3.658   0.777  13.179 -0.0246 -0.4220 -0.1006
 1394TIP3    H125597   3.598   0.851  13.176  1.0349  0.7746  3.5199
 1394TIP3    H225598   3.601   0.702  13.199 -0.8153 -0.1722 -1.3290
 1395TIP3   OH225599   2.284   5.150   4.213  0.5344  0.1037  0.2756
 1395TIP3    H125600   2.316   5.065   4.182 -0.7898 -0.5281  0.5721
 1395TIP3    H225601   2.284   5.206   4.135  1.1793 -0.2284  0.0265
 1396TIP3   OH225602   4.735   4.556   0.995  0.6924 -0.4046  0.4700
 1396TIP3    H125603   4.710   4.465   0.980  1.7839 -0.5985 -0.2822
 1396TIP3    H225604   4.733   4.566   1.090 -1.6078 -0.5652  0.4821
 1397TIP3   OH225605   2.801   6.742   4.721 -0.3963  0.2067 -0.0535
 1397TIP3    H125606   2.836   6.829   4.703 -0.3617  0.3171  0.5491
 1397TIP3    H225607   2.842   6.716   4.803  0.7513 -0.9915 -0.9557
 1398TIP3   OH225608   2.492   2.003   3.166  0.0897 -0.1215 -0.4469
 1398TIP3    H125609   2.528   1.983   3.079 -0.2138 -1.6221 -0.2583
 1398TIP3    H225610   2.534   1.940   3.224  0.7655  1.2879  0.6237
 1399TIP3   OH225611   3.644   3.288  11.199 -0.1895 -0.8107 -0.3130
 1399TIP3    H125612   3.562   3.337  11.208 -0.9501 -1.9960 -0.5178
 1399TIP3    H225613   3.708   3.352  11.170 -0.3398  0.7852  2.5049
 1400TIP3   OH225614   1.408   4.161   0.858  0.2809  1.3923  0.4014
 1400TIP3    H125615   1.487   4.191   0.903  1.5707  0.3344 -1.0685
 1400TIP3    H225616   1.438   4.092   0.799 -2.0705 -0.6310  1.3561
 1401TIP3   OH225617   2.891   6.258  15.483  0.6137 -0.1397  0.5343
 1401TIP3    H125618   2.811   6.245  15.431  0.3378 -0.0868  0.9433
 1401TIP3    H225619   2.937   6.175  15.476 -0.6088 -1.0093  2.2275
 1402TIP3   OH225620   6.266   6.435  11.504 -0.1685  0.5894 -0.3300
 1402TIP3    H125621   6.208   6.474  11.570  0.8146 -1.7751  2.1082
 1402TIP3    H225622   6.353   6.465  11.529  0.0700  1.1340 -1.7255
 1403TIP3   OH225623   4.190   6.341  16.313  0.1074  0.0526  0.2370
 1403TIP3    H125624   4.254   6.287  16.360 -0.4141  0.8799  2.0096
 1403TIP3    H225625   4.242   6.412  16.275  0.4405 -0.1434  0.3265
 1404TIP3   OH225626   0.133   2.106   4.460  0.5483  0.0421  0.1237
 1404TIP3    H125627   0.078   2.167   4.510  1.3933  1.2435 -0.3837
 1404TIP3    H225628   0.219   2.113   4.501  0.8802 -0.1028 -0.5483
 1405TIP3   OH225629   4.321   3.768  15.831  0.1318  0.4627  0.5958
 1405TIP3    H125630   4.330   3.708  15.906 -0.1402 -2.3391 -1.4598
 1405TIP3    H225631   4.227   3.789  15.829 -0.1311 -0.6581  0.2403
 1406TIP3   OH225632   0.841   2.339   4.204  0.0683 -0.2250 -0.2140
 1406TIP3    H125633   0.902   2.403   4.241  0.5457 -0.9308  0.2192
 1406TIP3    H225634   0.864   2.335   4.111  0.0134  0.2554 -0.2517
 1407TIP3   OH225635   2.822   4.156  12.101 -0.2207 -0.5351  0.2086
 1407TIP3    H125636   2.864   4.237  12.128  2.5898 -1.3726 -1.3176
 1407TIP3    H225637   2.757   4.139  12.169  0.8162  1.6956  1.8595
 1408TIP3   OH225638   5.792   6.227  13.320  0.0862 -0.2363  0.4276
 1408TIP3    H125639   5.867   6.252  13.373  0.3327 -0.3734  0.1466
 1408TIP3    H225640   5.825   6.226  13.230 -0.2381 -0.3467  0.3064
 1409TIP3   OH225641   0.234   6.510  16.795 -0.2643  0.1206 -0.1608
 1409TIP3    H125642   0.252   6.428  16.841 -1.6995  0.3711  0.9254
 1409TIP3    H225643   0.319   6.553  16.788  0.1900 -0.4973  1.1925
 1410TIP3   OH225644   0.404   4.146   1.703 -0.1066 -0.0897 -0.3195
 1410TIP3    H125645   0.376   4.193   1.624 -1.4813 -0.7800 -0.2791
 1410TIP3    H225646   0.439   4.063   1.670 -0.2532 -0.1844 -0.2381
 1411TIP3   OH225647   5.168   1.492   5.190 -0.4611 -0.1225  0.3447
 1411TIP3    H125648   5.154   1.536   5.273 -1.6213 -0.4073  0.3152
 1411TIP3    H225649   5.157   1.399   5.209 -2.2326 -0.1047 -0.3762
 1412TIP3   OH225650   1.956   0.352   3.892  0.0718  0.3292 -0.0909
 1412TIP3    H125651   2.020   0.418   3.866  0.9453 -0.0056  1.0900
 1412TIP3    H225652   1.914   0.389   3.970  0.2947 -0.3360  0.3488
 1413TIP3   OH225653   6.190   3.425   5.750  0.0640  0.3509 -0.1037
 1413TIP3    H125654   6.278   3.399   5.723  0.2206  1.0188 -0.2475
 1413TIP3    H225655   6.190   3.520   5.744 -1.1051  0.3116 -1.5283
 1414TIP3   OH225656   1.864   3.745   1.595 -0.2861  0.1574  0.1461
 1414TIP3    H125657   1.838   3.672   1.540 -0.6333  1.3361 -1.2986
 1414TIP3    H225658   1.843   3.717   1.684  1.6182 -2.3708 -0.1100
 1415TIP3   OH225659   1.340   1.874  16.828  0.6681  0.1552 -0.1066
 1415TIP3    H125660   1.365   1.791  16.869 -0.8560  0.5426  1.7838
 1415TIP3    H225661   1.251   1.890  16.859  0.1658  1.5154 -2.0813
 1416TIP3   OH225662   5.439   4.876  17.000 -0.0308 -0.2508  0.4808
 1416TIP3    H125663   5.528   4.908  17.010  0.0585 -0.6588  1.0421
 1416TIP3    H225664   5.384   4.945  17.037 -0.2096  1.4708 -2.6758
 1417TIP3   OH225665   1.089   4.422   1.346  0.3353 -0.1486  0.0425
 1417TIP3    H125666   0.995   4.409   1.328  0.7502 -0.3992 -2.2466
 1417TIP3    H225667   1.106   4.512   1.320  0.9498 -0.4393 -0.5637
 1418TIP3   OH225668   0.737   5.072   0.102 -0.3696  0.6306  0.5920
 1418TIP3    H125669   0.828   5.094   0.081 -0.1017 -1.7778 -1.2149
 1418TIP3    H225670   0.742   5.027   0.186  0.6870 -2.3220 -0.9142
 1419TIP3   OH225671   4.247   1.117  12.819 -0.1599  0.2519 -0.3390
 1419TIP3    H125672   4.174   1.067  12.784  2.0773 -2.0165 -2.1720
 1419TIP3    H225673   4.233   1.120  12.913 -1.2947 -2.3728 -0.3629
 1420TIP3   OH225674   1.384   2.596  14.783 -0.3482 -0.1583  0.6024
 1420TIP3    H125675   1.425   2.511  14.800  1.6958  1.0824  2.3927
 1420TIP3    H225676   1.379   2.637  14.869  0.1328  2.1186 -0.3926
 1421TIP3   OH225677   4.883   0.654  16.307 -0.0928 -0.5750  0.1251
 1421TIP3    H125678   4.847   0.628  16.222 -0.9218  2.0206 -0.3981
 1421TIP3    H225679   4.829   0.608  16.371 -0.5030 -1.2984 -0.7234
 1422TIP3   OH225680   5.701   4.945   0.044 -0.4266  0.2180  0.3510
 1422TIP3    H125681   5.735   4.998  -0.028 -1.8019  0.7485  0.0495
 1422TIP3    H225682   5.765   4.875   0.056  0.7520  1.1950 -0.1371
 1423TIP3   OH225683   2.601   4.408   0.415 -0.1416 -0.0338 -0.0306
 1423TIP3    H125684   2.536   4.347   0.380  0.6255 -0.3592 -0.9350
 1423TIP3    H225685   2.673   4.404   0.352  0.6860  0.4372  0.8725
 1424TIP3   OH225686   0.383   2.348  13.993 -0.4578  0.6218 -0.2940
 1424TIP3    H125687   0.458   2.374  13.939  0.3331  0.2586  0.5981
 1424TIP3    H225688   0.407   2.373  14.082 -1.3133  0.3075  0.0389
 1425TIP3   OH225689   3.774   3.353  12.591 -0.0836 -1.0903  0.1188
 1425TIP3    H125690   3.786   3.445  12.568  0.4790 -0.9068  1.0728
 1425TIP3    H225691   3.831   3.306  12.530  0.1968 -0.7435  0.1063
 1426TIP3   OH225692   0.179   4.142  16.492 -0.1124  0.1847 -0.1378
 1426TIP3    H125693   0.233   4.121  16.416 -2.3730  0.1228 -1.8385
 1426TIP3    H225694   0.136   4.059  16.514  0.3937  0.2367  1.1603
 1427TIP3   OH225695   3.752   3.052  12.359  0.1608  0.6297 -0.6497
 1427TIP3    H125696   3.663   3.060  12.392  0.9032  1.2276  1.3630
 1427TIP3    H225697   3.771   3.137  12.319  0.5009  1.2603  0.7952
 1428TIP3   OH225698   0.751   0.632  11.569  0.5262  0.0266 -0.2472
 1428TIP3    H125699   0.664   0.639  11.608  0.6632  0.6920 -0.0440
 1428TIP3    H225700   0.811   0.651  11.642  0.7895  1.0477 -0.7087
 1429TIP3   OH225701   3.429   0.496  14.193 -0.4130 -0.3458  0.3289
 1429TIP3    H125702   3.345   0.502  14.147 -0.0761  2.0936 -0.1559
 1429TIP3    H225703   3.407   0.503  14.285 -0.7714  0.6419  0.1887
 1430TIP3   OH225704   3.928   3.595  16.199  0.2656 -0.3582 -0.2603
 1430TIP3    H125705   3.925   3.652  16.122  2.9526  0.4512  0.1205
 1430TIP3    H225706   3.886   3.646  16.269  1.9666  0.9575 -0.1136
 1431TIP3   OH225707   4.755   4.549  15.562  0.2380 -0.0718  0.1140
 1431TIP3    H125708   4.794   4.480  15.507 -0.4093 -0.7120  0.4400
 1431TIP3    H225709   4.825   4.572  15.623  1.3493  1.4095 -1.6021
 1432TIP3   OH225710   6.762   4.118  13.243  0.0607  0.3392 -0.0784
 1432TIP3    H125711   6.764   4.177  13.319 -1.1411 -0.7485  0.8280
 1432TIP3    H225712   6.820   4.160  13.179  1.5086  1.0478  1.6045
 1433TIP3   OH225713   1.850   0.577  15.253 -0.1103 -0.0311  0.1144
 1433TIP3    H125714   1.938   0.614  15.259 -0.5209  0.9144  0.4903
 1433TIP3    H225715   1.861   0.486  15.281  0.8074 -0.0294 -0.1990
 1434TIP3   OH225716   0.300   2.260  12.693  0.2121  0.0790  0.2385
 1434TIP3    H125717   0.335   2.238  12.607 -0.2685  0.4951 -0.0723
 1434TIP3    H225718   0.344   2.200  12.753  1.3531  0.4895 -0.1470
 1435TIP3   OH225719   2.622   1.408  13.951  0.0041 -0.1271  0.2582
 1435TIP3    H125720   2.681   1.385  14.022  0.0236 -1.7469 -0.2439
 1435TIP3    H225721   2.562   1.334  13.944  0.3078 -0.2411 -1.7030
 1436TIP3   OH225722   2.566   1.186   1.581 -0.1449 -0.0758 -0.4805
 1436TIP3    H125723   2.602   1.158   1.497 -1.2190 -0.9113 -0.6987
 1436TIP3    H225724   2.480   1.223   1.558 -0.2941  0.0088  0.2029
 1437TIP3   OH225725   5.181   2.019   2.929 -0.2813  0.1115 -0.1133
 1437TIP3    H125726   5.244   2.060   2.989 -0.0327  0.9766 -0.9523
 1437TIP3    H225727   5.233   1.993   2.853 -0.5498 -1.2126  0.1298
 1438TIP3   OH225728   4.477   5.313  11.334  0.1825  0.1724  0.2831
 1438TIP3    H125729   4.540   5.255  11.378  0.0521 -0.5391 -0.4342
 1438TIP3    H225730   4.466   5.387  11.394  2.7661  1.0244 -0.1437
 1439TIP3   OH225731   5.735   0.917  14.269  0.2670 -0.5800  0.3119
 1439TIP3    H125732   5.765   1.008  14.266 -1.2085 -0.0685 -0.0419
 1439TIP3    H225733   5.811   0.866  14.243  1.2834  0.5043  1.0470
 1440TIP3   OH225734   3.206   6.776  12.264 -0.1256 -0.1986 -0.0677
 1440TIP3    H125735   3.167   6.826  12.192 -0.5850  1.7378  1.4370
 1440TIP3    H225736   3.172   6.687  12.253  0.3169 -0.1243 -2.5519
 1441TIP3   OH225737   5.739   4.436  14.029 -0.7843 -0.5024  0.5152
 1441TIP3    H125738   5.730   4.445  14.124  1.8253  0.1032  0.7823
 1441TIP3    H225739   5.795   4.359  14.018  1.6982  1.2923 -0.2877
 1442TIP3   OH225740   0.501   0.693  11.684  0.9213  0.1199 -0.3031
 1442TIP3    H125741   0.442   0.729  11.617  0.5839 -1.6306 -1.0117
 1442TIP3    H225742   0.452   0.701  11.766  0.8579  1.2378 -0.4384
 1443TIP3   OH225743   0.670   3.437   4.690  0.4338 -0.7317 -0.2471
 1443TIP3    H125744   0.747   3.485   4.722  0.1278 -0.2118 -0.2671
 1443TIP3    H225745   0.700   3.347   4.680  0.6578 -0.8221  1.0703
 1444TIP3   OH225746   4.748   1.641  16.197  0.4159  0.0993 -0.1728
 1444TIP3    H125747   4.724   1.549  16.214 -1.5785  0.9315  2.2078
 1444TIP3    H225748   4.841   1.646  16.219  0.8318 -1.5267 -1.3458
 1445TIP3   OH225749   2.103   5.051   2.294  0.0603 -0.3793  0.0995
 1445TIP3    H125750   2.194   5.066   2.267  0.9374 -1.2464  2.3561
 1445TIP3    H225751   2.051   5.103   2.232  2.0344 -0.2139 -1.5370
 1446TIP3   OH225752   2.379   5.662  16.694 -0.5409 -0.3704  0.0453
 1446TIP3    H125753   2.286   5.645  16.677  0.0344 -3.9527 -0.2758
 1446TIP3    H225754   2.411   5.581  16.735  1.7188  1.9893  3.4836
 1447TIP3   OH225755   2.928   4.872   5.487 -0.4200 -0.5221 -0.5644
 1447TIP3    H125756   2.924   4.878   5.392  0.7475  0.6963 -0.5681
 1447TIP3    H225757   2.966   4.956   5.515  0.2055 -1.2525  0.8961
 1448TIP3   OH225758   4.297   3.116   5.168  1.2034 -0.3232  0.3073
 1448TIP3    H125759   4.384   3.087   5.140  0.6900 -2.2800  0.6263
 1448TIP3    H225760   4.255   3.145   5.087  1.7588 -0.4430 -0.0296
 1449TIP3   OH225761   0.819   5.628   1.025 -0.3002  0.0496  0.0639
 1449TIP3    H125762   0.841   5.665   1.111 -0.6822  1.4278 -0.4037
 1449TIP3    H225763   0.877   5.674   0.964 -0.5441 -0.3872 -0.5054
 1450TIP3   OH225764   4.257   2.765  10.393 -0.1056 -0.3159 -0.5611
 1450TIP3    H125765   4.328   2.804  10.443 -0.7238  0.4033 -0.2210
 1450TIP3    H225766   4.196   2.837  10.377 -2.5735 -1.5098  2.3377
 1451TIP3   OH225767   4.038   1.770   2.278  0.1115 -0.2597  0.3867
 1451TIP3    H125768   4.053   1.854   2.234  1.5751 -0.6653  0.0568
 1451TIP3    H225769   4.064   1.786   2.369  2.5719 -0.8953 -0.1326
 1452TIP3   OH225770   3.122   0.565  16.990  0.1865  0.3267 -0.2526
 1452TIP3    H125771   3.093   0.547  17.080  1.8020  0.0477  0.2616
 1452TIP3    H225772   3.105   0.483  16.943  0.5189  0.0203  0.1453
 1453TIP3   OH225773   4.871   4.651  12.421  0.5598 -0.5856 -0.6139
 1453TIP3    H125774   4.896   4.562  12.396 -0.9475 -1.0707 -0.4962
 1453TIP3    H225775   4.847   4.644  12.514  0.3951 -0.0580 -0.6136
 1454TIP3   OH225776   6.190   4.674   0.673  0.2062 -0.4333  0.2608
 1454TIP3    H125777   6.264   4.626   0.637  0.2811 -0.0668 -0.0913
 1454TIP3    H225778   6.202   4.764   0.641 -0.4601 -0.4008  0.0748
 1455TIP3   OH225779   2.346   6.706   5.043  0.1506 -0.9930 -0.1872
 1455TIP3    H125780   2.386   6.633   5.089 -0.8961 -1.2992  0.2466
 1455TIP3    H225781   2.252   6.697   5.058  0.0840  1.7396  1.9094
 1456TIP3   OH225782   0.970   0.014   5.670  0.4038 -0.1207 -0.1605
 1456TIP3    H125783   0.968   0.102   5.708  0.1944 -0.1843 -0.0252
 1456TIP3    H225784   0.932  -0.042   5.737  1.8608 -0.5456  0.3514
 1457TIP3   OH225785   2.312   3.213  14.140  0.3186  0.1983  0.3969
 1457TIP3    H125786   2.372   3.230  14.067  0.3056  2.5400  0.8498
 1457TIP3    H225787   2.367   3.214  14.218 -0.0720  0.7746  0.6745
 1458TIP3   OH225788   0.773   4.682  12.812  0.2818  0.1016 -0.5861
 1458TIP3    H125789   0.726   4.630  12.746 -1.2668  0.5172  0.1635
 1458TIP3    H225790   0.753   4.640  12.895  1.6777 -0.0106 -0.2734
 1459TIP3   OH225791   1.013   5.830   0.906  0.0048 -0.1540 -0.3993
 1459TIP3    H125792   1.071   5.864   0.975 -2.6703  2.2183  0.8683
 1459TIP3    H225793   0.994   5.906   0.851 -0.7776 -1.1985 -1.6355
 1460TIP3   OH225794   3.375   1.972   1.568 -0.3162  0.1808  0.7257
 1460TIP3    H125795   3.385   1.890   1.616  0.2097 -0.4577 -0.4049
 1460TIP3    H225796   3.461   1.986   1.527 -1.0849  0.0197 -1.0230
 1461TIP3   OH225797   2.219   2.686   4.306  0.0130  0.0696 -0.2006
 1461TIP3    H125798   2.258   2.705   4.391 -1.1750  0.1677  0.3373
 1461TIP3    H225799   2.222   2.591   4.299  0.3955  0.0774 -0.2015
 1462TIP3   OH225800   1.542   6.697   4.874  0.1121 -0.0908 -0.6694
 1462TIP3    H125801   1.454   6.664   4.891  0.8914 -1.8234  0.2767
 1462TIP3    H225802   1.578   6.715   4.960  0.5299  1.1354 -1.0724
 1463TIP3   OH225803   0.923   5.391  11.738  0.2695  0.3872 -0.5392
 1463TIP3    H125804   0.973   5.318  11.702 -2.2191 -0.5178 -2.4155
 1463TIP3    H225805   0.851   5.351  11.786  0.8131  1.6487  1.4467
 1464TIP3   OH225806   0.500   5.303  16.408 -0.2300  0.2207 -0.6700
 1464TIP3    H125807   0.501   5.258  16.492 -0.1400  2.0313  0.3319
 1464TIP3    H225808   0.577   5.268  16.362 -0.2161 -0.7052  0.0219
 1465TIP3   OH225809   1.002   3.974  14.666  0.1426 -0.2420  0.5004
 1465TIP3    H125810   1.001   3.896  14.720 -1.7358 -0.9738 -0.4930
 1465TIP3    H225811   0.964   4.042  14.721  1.2801 -0.1344  1.1827
 1466TIP3   OH225812   5.586   3.545   1.820 -0.5542  0.6200 -0.0723
 1466TIP3    H125813   5.514   3.573   1.877  0.2660 -0.9445  1.8907
 1466TIP3    H225814   5.661   3.594   1.851 -0.1198 -0.1636  0.1478
 1467TIP3   OH225815   5.206   1.696   1.661  0.0280  0.3949  0.4961
 1467TIP3    H125816   5.169   1.670   1.576 -1.8357  0.5263  1.2207
 1467TIP3    H225817   5.184   1.625   1.720  1.9778 -0.0514  0.7650
 1468TIP3   OH225818   0.927   5.634  12.639  0.3263  0.0156  0.6646
 1468TIP3    H125819   0.929   5.565  12.705 -0.6244  1.0152  1.7587
 1468TIP3    H225820   0.905   5.588  12.558  2.4130 -1.3690  0.7933
 1469TIP3   OH225821   0.443   5.224   5.469  0.1455  0.0044 -0.2690
 1469TIP3    H125822   0.497   5.172   5.529 -0.9854  0.8389  1.5454
 1469TIP3    H225823   0.425   5.164   5.396  1.7129 -0.9901  0.1058
 1470TIP3   OH225824   4.192   5.122   5.997  0.2340  0.3996  0.0391
 1470TIP3    H125825   4.131   5.177   5.949 -1.4556 -2.3859 -1.2850
 1470TIP3    H225826   4.241   5.076   5.929  2.2174  0.8598  1.0846
 1471TIP3   OH225827   2.907   2.197  16.794 -0.1382  0.1078  0.2863
 1471TIP3    H125828   2.897   2.290  16.814 -0.3391  0.1079  0.1909
 1471TIP3    H225829   2.835   2.155  16.842 -1.9909  0.3298 -2.1292
 1472TIP3   OH225830   0.930   2.218   5.317 -0.4661  0.3158 -0.0671
 1472TIP3    H125831   0.978   2.283   5.266  3.3031 -1.7682  0.5004
 1472TIP3    H225832   0.887   2.164   5.251  2.7230 -1.1486 -1.1298
 1473TIP3   OH225833   3.673   3.686   3.032  0.1022 -0.3329  0.6874
 1473TIP3    H125834   3.633   3.770   3.008  0.6523  0.0682  1.1369
 1473TIP3    H225835   3.710   3.702   3.119  1.4220 -0.6252  0.1981
 1474TIP3   OH225836   3.890   0.112   2.702 -0.0192 -0.3749  0.1009
 1474TIP3    H125837   3.842   0.035   2.672 -0.5914 -0.0711  0.2051
 1474TIP3    H225838   3.875   0.178   2.635  0.3455 -0.3084  0.0839
 1475TIP3   OH225839   2.477   0.928  11.275 -0.2303  0.0290 -0.1294
 1475TIP3    H125840   2.564   0.888  11.278  0.0232  0.5102 -0.8344
 1475TIP3    H225841   2.494   1.021  11.258 -0.8702  0.1690 -0.0282
 1476TIP3   OH225842   4.729   3.172   0.848 -0.5201 -0.4818 -0.7259
 1476TIP3    H125843   4.735   3.087   0.804  0.7029 -0.8368  0.0854
 1476TIP3    H225844   4.726   3.150   0.941  1.9007  0.4032 -0.3872
 1477TIP3   OH225845   5.854   4.148   5.356  0.0793  0.7116 -0.4332
 1477TIP3    H125846   5.843   4.104   5.272  2.1024  0.9994 -0.9073
 1477TIP3    H225847   5.948   4.146   5.372 -0.3501 -0.5669  2.5429
 1478TIP3   OH225848   2.601   1.530   2.090  0.2434 -0.1652  0.7952
 1478TIP3    H125849   2.577   1.623   2.089 -0.7371 -0.3574 -1.7227
 1478TIP3    H225850   2.517   1.484   2.095  0.3810 -0.8521 -1.7451
 1479TIP3   OH225851   0.946   1.767  13.902  0.4879  0.6417  0.5010
 1479TIP3    H125852   0.891   1.836  13.937  0.7146  0.5982  0.9512
 1479TIP3    H225853   0.887   1.693  13.888  0.3326  0.7756  0.4517
 1480TIP3   OH225854   6.529   0.866   4.920  0.2155  0.3076 -0.2761
 1480TIP3    H125855   6.488   0.780   4.921  2.0670 -0.6185  1.3972
 1480TIP3    H225856   6.493   0.911   4.996  0.8924  0.1880  0.1164
 1481TIP3   OH225857   3.718   0.847   2.502  0.2247  0.5778 -0.0235
 1481TIP3    H125858   3.698   0.842   2.596  0.8944  2.6619  0.2801
 1481TIP3    H225859   3.797   0.901   2.498  0.9180 -0.4993 -1.7305
 1482TIP3   OH225860   2.191   4.156  13.275  0.5839 -0.3184  0.0884
 1482TIP3    H125861   2.172   4.244  13.307  1.0144 -0.2294  0.1013
 1482TIP3    H225862   2.113   4.105  13.297  0.2819  0.0871 -0.0274
 1483TIP3   OH225863   0.773   6.010   2.787  0.1477  0.4001 -0.0234
 1483TIP3    H125864   0.815   6.088   2.823  0.4455  0.5594 -0.6972
 1483TIP3    H225865   0.687   6.007   2.829 -0.1738  1.5259 -0.5453
 1484TIP3   OH225866   5.012   1.324   3.567  0.2979  0.2489 -0.1195
 1484TIP3    H125867   4.930   1.369   3.546 -0.0391 -0.4799 -0.3956
 1484TIP3    H225868   5.022   1.259   3.498 -0.5018 -1.7894  1.5851
 1485TIP3   OH225869   4.780   1.191  14.581  0.0866  0.4118 -0.1703
 1485TIP3    H125870   4.741   1.149  14.657 -1.1349 -0.5996 -1.2995
 1485TIP3    H225871   4.716   1.179  14.511  1.6146  0.3893 -1.6404
 1486TIP3   OH225872   2.307   3.460  11.304 -0.0424 -0.3721  0.5826
 1486TIP3    H125873   2.324   3.391  11.239 -0.6807 -2.3660  2.4150
 1486TIP3    H225874   2.212   3.460  11.314 -0.1119  1.2595  0.1657
 1487TIP3   OH225875   5.326   0.676   3.080 -0.6977  0.0312 -0.5641
 1487TIP3    H125876   5.286   0.694   2.995 -0.6432  1.7729 -0.2561
 1487TIP3    H225877   5.414   0.714   3.073  0.0840 -1.6682 -0.4210
 1488TIP3   OH225878   1.212   0.075   2.941  0.0755 -0.4394 -0.0358
 1488TIP3    H125879   1.199  -0.007   2.894 -0.2671 -1.3152  1.5159
 1488TIP3    H225880   1.151   0.137   2.900  0.0561 -1.0514 -0.9575
 1489TIP3   OH225881   2.287   0.087   2.201  0.5438 -0.3258  0.7144
 1489TIP3    H125882   2.261  -0.000   2.173 -0.2606 -0.3991  1.6286
 1489TIP3    H225883   2.297   0.080   2.296  2.7851  0.0087  0.5702
 1490TIP3   OH225884   1.628   2.633  12.281  0.0859 -0.1292  0.0139
 1490TIP3    H125885   1.564   2.566  12.256 -0.5301  0.0103  1.1176
 1490TIP3    H225886   1.708   2.608  12.235 -0.0021 -1.8778  0.7075
 1491TIP3   OH225887   3.972   4.313   1.755 -0.3545 -0.3070  0.3972
 1491TIP3    H125888   4.008   4.342   1.671 -1.5145 -0.0889 -0.0555
 1491TIP3    H225889   4.047   4.309   1.814  0.1493  1.9822  0.0328
 1492TIP3   OH225890   1.395   2.037   5.990 -0.2901  0.3467 -0.0420
 1492TIP3    H125891   1.306   2.016   5.962 -0.4451 -0.8414  1.2514
 1492TIP3    H225892   1.433   2.085   5.916 -1.0270 -1.6852 -1.8157
 1493TIP3   OH225893   1.293   0.151  11.979  0.0759  0.4129 -0.2192
 1493TIP3    H125894   1.284   0.245  11.999 -2.0443  0.9566 -3.0193
 1493TIP3    H225895   1.386   0.138  11.964  0.5773  1.7608  1.4747
 1494TIP3   OH225896   6.350   0.622   1.046  0.0865 -0.2390 -0.1106
 1494TIP3    H125897   6.285   0.655   0.984 -0.0560 -0.2484  0.0314
 1494TIP3    H225898   6.372   0.534   1.015 -1.0428 -0.8116  0.6436
 1495TIP3   OH225899   1.387   4.979   3.725 -0.1528  0.4020  0.0336
 1495TIP3    H125900   1.346   4.966   3.811  1.2317 -4.2948  0.2740
 1495TIP3    H225901   1.324   4.942   3.663  1.4448 -2.3276 -0.1131
 1496TIP3   OH225902   3.803   3.847  11.570 -0.0973 -0.1482  0.3492
 1496TIP3    H125903   3.776   3.887  11.653 -0.1991 -0.8146  0.6455
 1496TIP3    H225904   3.722   3.842  11.519  0.0380  0.6263  0.0475
 1497TIP3   OH225905   3.496   1.875   0.103 -0.4034  0.4184 -0.4508
 1497TIP3    H125906   3.473   1.853   0.193 -1.2497 -3.6878 -1.4654
 1497TIP3    H225907   3.418   1.852   0.053  1.2288 -0.8927 -2.5574
 1498TIP3   OH225908   5.096   5.782   5.326 -0.5427  0.3921  0.3289
 1498TIP3    H125909   5.063   5.807   5.412  0.8067 -0.0231  0.9940
 1498TIP3    H225910   5.187   5.810   5.325 -0.2049 -0.6215 -0.5298
 1499TIP3   OH225911   5.933   3.863   0.921  0.5168 -0.5888  0.1350
 1499TIP3    H125912   6.004   3.859   0.985 -0.5962 -0.0818  1.4593
 1499TIP3    H225913   5.858   3.897   0.971  0.3917  2.9028 -2.1292
 1500TIP3   OH225914   2.916   1.332   2.458 -0.0443  0.8270 -0.3066
 1500TIP3    H125915   2.928   1.264   2.525  1.1816 -0.1000 -1.4017
 1500TIP3    H225916   2.990   1.320   2.398 -1.4186  1.1875 -2.1928
 1501TIP3   OH225917   4.753   2.768  14.224 -0.0364 -0.1879 -0.3812
 1501TIP3    H125918   4.679   2.764  14.163  0.2073  0.0193 -0.6939
 1501TIP3    H225919   4.744   2.690  14.278 -0.1521 -0.4711 -0.8050
 1502TIP3   OH225920   1.359   0.169   5.227  0.5387 -0.3274 -0.0180
 1502TIP3    H125921   1.430   0.211   5.178  0.6984  0.8111  1.1430
 1502TIP3    H225922   1.342   0.088   5.179 -0.0492  1.1976 -2.5758
 1503TIP3   OH225923   4.492   0.833  15.601 -0.0565  0.1925 -0.0662
 1503TIP3    H125924   4.416   0.803  15.651  0.5067 -0.7083  0.2825
 1503TIP3    H225925   4.456   0.861  15.516 -0.8111  0.1305  0.2270
 1504TIP3   OH225926   3.262   4.282  15.072 -0.4290  0.4395 -0.6110
 1504TIP3    H125927   3.339   4.239  15.035  0.1296 -0.3985  1.3599
 1504TIP3    H225928   3.188   4.231  15.038  0.0339 -0.1012 -0.8305
 1505TIP3   OH225929   0.883   1.369   3.535 -0.5459 -0.1970 -1.1549
 1505TIP3    H125930   0.787   1.377   3.531 -0.4959  0.4586 -1.0882
 1505TIP3    H225931   0.898   1.306   3.606 -0.8871  0.7093 -0.2597
 1506TIP3   OH225932   2.297   1.632   5.968  0.5691 -0.0065  0.6679
 1506TIP3    H125933   2.381   1.656   6.006 -0.1643  0.7415  1.9075
 1506TIP3    H225934   2.247   1.594   6.040 -0.7184  1.0454  0.3808
 1507TIP3   OH225935   2.660   1.587   4.758  0.1814  0.0073  0.1444
 1507TIP3    H125936   2.598   1.635   4.704  0.2669 -0.5076 -0.4147
 1507TIP3    H225937   2.727   1.652   4.781  1.0568 -0.1529 -1.7660
 1508TIP3   OH225938   4.710   1.270  12.247 -0.3604 -0.3347 -0.2250
 1508TIP3    H125939   4.660   1.234  12.174  0.6309 -0.1763 -0.9982
 1508TIP3    H225940   4.783   1.209  12.260  0.3851  0.4851 -0.4450
 1509TIP3   OH225941   0.299   5.563   4.700  0.3511  0.3193 -0.0256
 1509TIP3    H125942   0.212   5.600   4.687  0.0904  0.0131  0.7556
 1509TIP3    H225943   0.295   5.523   4.787  1.5918  1.2212  0.4876
 1510TIP3   OH225944   0.162   5.974   0.599  0.3542 -0.2074 -0.5385
 1510TIP3    H125945   0.191   5.987   0.509  1.3666  1.2908 -0.0427
 1510TIP3    H225946   0.244   5.969   0.649 -0.1798  1.5717  0.5975
 1511TIP3   OH225947   4.074   0.693  16.729  0.6567  0.3129 -0.3552
 1511TIP3    H125948   4.112   0.760  16.673  0.1420  1.7712  0.9724
 1511TIP3    H225949   4.148   0.657  16.777  0.8140  0.6101 -0.3742
 1512TIP3   OH225950   0.108   3.121   2.617  0.2494 -0.3841  0.1443
 1512TIP3    H125951   0.079   3.104   2.527 -0.4239 -0.3478  0.3506
 1512TIP3    H225952   0.037   3.088   2.672 -0.5018  1.8025  0.6028
 1513TIP3   OH225953   3.420   1.653   1.501  0.2460  0.0562 -0.0128
 1513TIP3    H125954   3.355   1.648   1.430  0.3186  0.6131 -0.1169
 1513TIP3    H225955   3.502   1.623   1.460 -0.0917 -1.4450  0.3248
 1514TIP3   OH225956   4.742   4.689   1.716  0.0960 -0.2238 -0.0924
 1514TIP3    H125957   4.706   4.702   1.628 -0.5226 -3.6831 -0.4852
 1514TIP3    H225958   4.669   4.706   1.775  0.1655  0.8771 -0.3099
 1515TIP3   OH225959   6.508   0.652  11.176 -0.0298 -0.3940  0.1331
 1515TIP3    H125960   6.494   0.669  11.270  0.1093 -0.2601  0.1301
 1515TIP3    H225961   6.485   0.735  11.133  0.5816 -0.2332  0.1121
 1516TIP3   OH225962   5.106   4.881  12.904 -0.4814  0.1172  0.1413
 1516TIP3    H125963   5.162   4.805  12.915  0.8872  1.0533 -0.0576
 1516TIP3    H225964   5.050   4.860  12.829  0.2327 -0.4798 -0.2304
 1517TIP3   OH225965   3.746   5.373  10.605  0.0346 -0.2334  0.3490
 1517TIP3    H125966   3.670   5.337  10.559  0.5603 -0.1748 -0.5753
 1517TIP3    H225967   3.817   5.368  10.542  1.2040 -1.7581  1.7067
 1518TIP3   OH225968   2.688   0.005  11.077  0.5674 -0.9079 -0.1603
 1518TIP3    H125969   2.737  -0.077  11.069  1.5142 -0.4871  1.0390
 1518TIP3    H225970   2.743   0.070  11.033 -0.1650 -0.8910 -1.0800
 1519TIP3   OH225971   2.009   3.493  17.026  0.2043 -0.4352 -0.0167
 1519TIP3    H125972   2.049   3.451  17.102 -0.9287 -1.5546 -0.0150
 1519TIP3    H225973   1.915   3.490  17.044 -0.1829 -1.8704 -2.0162
 1520TIP3   OH225974   3.676   3.896  16.130  0.3034  0.4383  0.2732
 1520TIP3    H125975   3.763   3.858  16.121  0.0486 -0.5080  1.5178
 1520TIP3    H225976   3.692   3.982  16.168  0.7703  0.9436 -0.9888
 1521TIP3   OH225977   0.212   5.829  12.300  0.4272 -0.3218 -0.4183
 1521TIP3    H125978   0.133   5.870  12.265  0.9883  0.0850 -1.2476
 1521TIP3    H225979   0.205   5.737  12.275  0.2468 -0.2771 -0.5316
 1522TIP3   OH225980   1.167   6.375   0.724  0.2882 -0.2849  0.2252
 1522TIP3    H125981   1.263   6.370   0.725  0.2822 -0.3754  0.3020
 1522TIP3    H225982   1.146   6.448   0.781  0.2220 -1.5364  1.8835
 1523TIP3   OH225983   3.914   1.296   0.508  0.8016 -0.0772  0.3543
 1523TIP3    H125984   3.883   1.272   0.420  0.7008  0.2026  0.3123
 1523TIP3    H225985   3.834   1.299   0.561  0.4144  2.8417 -0.2462
 1524TIP3   OH225986   1.056   1.656   1.098 -0.3121 -0.6186  0.2908
 1524TIP3    H125987   1.080   1.744   1.127  1.5848 -0.5168 -1.3567
 1524TIP3    H225988   1.041   1.607   1.179  1.2933  0.5355  1.3545
 1525TIP3   OH225989   0.878   5.901   1.447  0.3813 -0.6930  0.4523
 1525TIP3    H125990   0.841   5.963   1.509 -0.6066  0.1574 -0.9332
 1525TIP3    H225991   0.963   5.938   1.424  0.5533 -0.7769  0.9402
 1526TIP3   OH225992   5.024   3.636   5.083 -0.1885 -0.2308 -0.4365
 1526TIP3    H125993   5.033   3.664   4.992  2.6776  0.6511  0.0407
 1526TIP3    H225994   5.052   3.544   5.083 -1.5824 -0.6838 -0.6259
 1527TIP3   OH225995   5.720   0.063  15.781 -0.2383  0.0966  0.2786
 1527TIP3    H125996   5.690  -0.028  15.783  0.7741 -0.2685 -0.4714
 1527TIP3    H225997   5.751   0.079  15.870 -0.2773 -0.3402  0.3751
 1528TIP3   OH225998   2.393   2.755  15.382 -0.2172  0.4993  0.2204
 1528TIP3    H125999   2.465   2.804  15.341 -0.5310 -1.1411 -2.5055
 1528TIP3    H226000   2.437   2.692  15.439  0.4974 -0.0225 -0.8733
 1529TIP3   OH226001   2.572   4.470   3.612  0.4110 -1.3510  0.0484
 1529TIP3    H126002   2.531   4.531   3.550  0.3166 -0.7840  0.6569
 1529TIP3    H226003   2.650   4.439   3.567  0.6611 -0.4892 -0.1280
 1530TIP3   OH226004   2.866   5.199   1.475 -0.3929 -0.0481  0.5743
 1530TIP3    H126005   2.921   5.242   1.541 -2.0536  0.8679  1.4317
 1530TIP3    H226006   2.868   5.258   1.400 -0.2332  0.0026  0.6187
 1531TIP3   OH226007   4.366   5.454   3.411 -0.1505 -0.0209  0.2853
 1531TIP3    H126008   4.297   5.468   3.345  0.2692  1.5172  0.1212
 1531TIP3    H226009   4.447   5.480   3.367  0.3806 -0.6702  0.8554
 1532TIP3   OH226010   1.980   1.408  12.114  0.6254  0.2016 -0.0798
 1532TIP3    H126011   2.024   1.417  12.030  2.2116 -1.3040  0.5321
 1532TIP3    H226012   1.964   1.498  12.143  1.1169  0.7438 -1.4343
 1533TIP3   OH226013   1.686   6.337   2.878  0.0361 -0.3857  0.1965
 1533TIP3    H126014   1.679   6.267   2.943  1.9547  0.1849  1.0976
 1533TIP3    H226015   1.675   6.417   2.928 -0.9067  0.0059 -0.6192
 1534TIP3   OH226016   5.155   0.367   0.208  0.4804 -0.2959  0.2677
 1534TIP3    H126017   5.154   0.307   0.133 -0.1348 -0.0703  0.0891
 1534TIP3    H226018   5.185   0.450   0.171  1.2941 -0.4706  0.5076
 1535TIP3   OH226019   1.926   2.392   5.479 -0.9415  0.2189  0.2734
 1535TIP3    H126020   1.981   2.451   5.529 -0.8463  1.3941 -1.1375
 1535TIP3    H226021   1.895   2.445   5.405 -1.1565 -1.3763 -0.8467
 1536TIP3   OH226022   0.784   6.165   1.422 -0.1104  0.4940 -0.4015
 1536TIP3    H126023   0.861   6.222   1.414 -0.1480  0.3641 -1.9891
 1536TIP3    H226024   0.753   6.153   1.333 -1.3051 -0.4049  0.0980
 1537TIP3   OH226025   2.870   3.097  15.914  0.2960 -0.4877 -0.7984
 1537TIP3    H126026   2.824   3.062  15.838 -2.3963 -0.4927  0.7143
 1537TIP3    H226027   2.884   3.190  15.893  0.8316 -0.7836 -1.8216
 1538TIP3   OH226028   0.774   0.931  13.939 -0.5022  0.1338 -0.7782
 1538TIP3    H126029   0.692   0.896  13.904 -2.1139  2.7362  0.0917
 1538TIP3    H226030   0.785   1.015  13.893  0.7191  0.6508  0.3985
 1539TIP3   OH226031   0.242   2.102   0.508  0.6380  0.0005 -0.1939
 1539TIP3    H126032   0.173   2.154   0.550  0.3952  0.6702 -1.3637
 1539TIP3    H226033   0.303   2.168   0.474 -0.8217 -0.2796 -3.7041
 1540TIP3   OH226034   2.291   6.434  12.492 -0.0651 -0.1030  0.1615
 1540TIP3    H126035   2.377   6.422  12.533  0.1946 -2.8946 -0.9471
 1540TIP3    H226036   2.309   6.431  12.398 -1.2131  1.1622 -0.1322
 1541TIP3   OH226037   2.467   0.652   4.402 -0.5945 -0.2157 -0.2964
 1541TIP3    H126038   2.493   0.626   4.490  1.2387  0.6366 -0.5478
 1541TIP3    H226039   2.371   0.653   4.405 -0.5713 -0.3561  1.6354
 1542TIP3   OH226040   6.589   2.201   0.623  0.2876 -0.1861 -0.1749
 1542TIP3    H126041   6.551   2.125   0.579 -1.6756  0.3718  0.4379
 1542TIP3    H226042   6.598   2.267   0.554 -0.1448 -0.2337 -0.2777
 1543TIP3   OH226043   3.761   5.336  16.036 -0.0872  0.3525 -0.5713
 1543TIP3    H126044   3.734   5.417  15.993  0.2727  0.3768 -0.7543
 1543TIP3    H226045   3.777   5.362  16.127 -3.3628 -0.1922  0.2750
 1544TIP3   OH226046   5.239   2.238   4.833 -0.0122  0.0335 -0.5647
 1544TIP3    H126047   5.190   2.215   4.912 -1.7178  0.2965 -1.4994
 1544TIP3    H226048   5.175   2.281   4.776  1.5414  1.2214 -1.4902
 1545TIP3   OH226049   2.708   1.824   1.874  0.5415 -0.2474  0.3760
 1545TIP3    H126050   2.644   1.826   1.946 -0.1581 -0.4356 -0.2325
 1545TIP3    H226051   2.745   1.736   1.877 -0.0097 -0.4917  0.0559
 1546TIP3   OH226052   0.229   5.534  12.291  0.0011 -0.0649  0.6220
 1546TIP3    H126053   0.299   5.512  12.352 -1.1563 -2.0723  1.3110
 1546TIP3    H226054   0.200   5.450  12.256 -0.8682  0.8672 -1.0183
 1547TIP3   OH226055   6.547   3.511  13.371 -0.2997  0.1908 -0.2811
 1547TIP3    H126056   6.584   3.453  13.305  1.4369 -0.3720  1.1083
 1547TIP3    H226057   6.510   3.584  13.321  1.1768 -0.0863 -1.8569
 1548TIP3   OH226058   3.817   1.056  12.699 -0.2577  0.0806 -0.6941
 1548TIP3    H126059   3.802   0.999  12.775  2.6137  0.3165  0.1912
 1548TIP3    H226060   3.800   1.001  12.623 -1.3994 -0.7281  0.1215
 1549TIP3   OH226061   5.577   2.717   1.822 -0.6578  0.6432 -0.5152
 1549TIP3    H126062   5.498   2.724   1.768 -0.6544  0.4748 -0.5412
 1549TIP3    H226063   5.584   2.802   1.865 -0.4183  0.9342 -1.1158
 1550TIP3   OH226064   6.134   2.436   3.498  0.0088 -0.2080 -0.1619
 1550TIP3    H126065   6.133   2.509   3.560 -1.1502 -0.3397 -0.0003
 1550TIP3    H226066   6.222   2.436   3.462  0.7843 -0.2380  1.6273
 1551TIP3   OH226067   1.547   4.362   4.971  0.0714  0.0533 -0.2327
 1551TIP3    H126068   1.562   4.374   5.065 -0.3818  0.7808 -0.2435
 1551TIP3    H226069   1.460   4.322   4.965  0.7312 -1.4241 -0.2893
 1552TIP3   OH226070   2.788   1.952  13.806  0.3150 -0.1916 -0.4326
 1552TIP3    H126071   2.779   1.992  13.720  2.0124  0.3478 -0.4003
 1552TIP3    H226072   2.768   1.860  13.792 -2.5121  0.3967 -0.7443
 1553TIP3   OH226073   4.343   5.167  10.428 -0.3166  0.6145  0.0672
 1553TIP3    H126074   4.437   5.183  10.427 -0.3660  1.0798  1.4103
 1553TIP3    H226075   4.331   5.097  10.492 -0.8221  0.1102 -0.5690
 1554TIP3   OH226076   5.444   1.481  12.152 -0.4054  0.7666  0.1616
 1554TIP3    H126077   5.363   1.453  12.109 -0.4737 -0.6497  1.1332
 1554TIP3    H226078   5.514   1.449  12.095 -0.5153  0.7983  0.0081
 1555TIP3   OH226079   3.787   4.055   5.005 -0.0209  0.1855  0.1026
 1555TIP3    H126080   3.799   3.961   4.998 -1.2798 -0.1075  1.3684
 1555TIP3    H226081   3.832   4.080   5.086 -1.3002  0.3273  0.7930
 1556TIP3   OH226082   3.037   3.798  13.970 -0.4301  0.4540  0.1436
 1556TIP3    H126083   3.028   3.715  13.923 -0.4437  0.5205  0.0290
 1556TIP3    H226084   3.114   3.785  14.026 -0.5212  0.3109  0.2384
 1557TIP3   OH226085   1.488   6.749  11.157 -0.2172 -0.4277 -0.2508
 1557TIP3    H126086   1.485   6.769  11.063 -2.1700  0.4900 -0.0412
 1557TIP3    H226087   1.483   6.654  11.161 -1.1718 -0.4355 -1.0779
 1558TIP3   OH226088   2.773   3.219  14.147  0.1549  0.2372  0.3819
 1558TIP3    H126089   2.860   3.237  14.182  0.5072 -1.1157  0.2759
 1558TIP3    H226090   2.789   3.162  14.072 -0.7501  1.0132 -0.4174
 1559TIP3   OH226091   0.248   1.849  15.110  0.2605  0.2075  0.1514
 1559TIP3    H126092   0.235   1.757  15.132  2.4344 -0.0598  0.5278
 1559TIP3    H226093   0.263   1.892  15.194  1.4660  0.4883 -0.1937
 1560TIP3   OH226094   5.384   3.263  15.407 -0.3114 -0.6865 -0.4544
 1560TIP3    H126095   5.395   3.171  15.433 -0.9645 -1.2720 -2.1088
 1560TIP3    H226096   5.345   3.305  15.483  0.1785 -1.7293  0.3994
 1561TIP3   OH226097   5.931   5.260   0.654 -0.1053 -0.0162  0.3711
 1561TIP3    H126098   5.940   5.185   0.595 -1.8657 -0.8851  1.1227
 1561TIP3    H226099   5.866   5.317   0.611  0.2333  0.4278  0.4384
 1562TIP3   OH226100   0.972   6.111   1.199 -0.1462 -0.0007  0.1839
 1562TIP3    H126101   0.958   6.201   1.169 -0.0092 -0.4408 -1.2842
 1562TIP3    H226102   0.884   6.079   1.219 -0.4212 -0.1676 -1.2195
 1563TIP3   OH226103   5.012   3.960   6.257  0.6600 -0.2851 -0.1294
 1563TIP3    H126104   4.951   3.893   6.288 -0.0601  0.4815  0.1585
 1563TIP3    H226105   5.031   3.936   6.167 -0.9913  0.0908 -0.6146
 1564TIP3   OH226106   1.549   2.562   5.378  0.2464  0.0328  0.3861
 1564TIP3    H126107   1.576   2.470   5.380  0.3077 -0.0344 -1.3560
 1564TIP3    H226108   1.540   2.587   5.470  1.1260 -1.4433  0.9110
 1565TIP3   OH226109   0.344   0.555   2.414  0.1726  0.3507 -0.4699
 1565TIP3    H126110   0.365   0.462   2.403  0.5475  0.3460  0.2431
 1565TIP3    H226111   0.313   0.563   2.504 -1.4942  0.6348 -1.0332
 1566TIP3   OH226112   6.258   6.816  11.407  0.5331 -0.5735 -0.0898
 1566TIP3    H126113   6.184   6.850  11.457  0.5705 -1.3456  0.5027
 1566TIP3    H226114   6.269   6.879  11.335  0.2572  0.3666  0.6611
 1567TIP3   OH226115   6.420   6.265   4.949 -0.3192 -0.1053 -0.3662
 1567TIP3    H126116   6.351   6.247   5.013  1.2750  0.8350  1.7496
 1567TIP3    H226117   6.391   6.222   4.869 -1.7858 -2.5326  1.3571
 1568TIP3   OH226118   0.233   5.673   3.670  0.3530  0.2955 -0.1284
 1568TIP3    H126119   0.156   5.714   3.710 -0.2788 -1.0682  0.1018
 1568TIP3    H226120   0.231   5.583   3.702  0.4177 -0.5697 -2.4020
 1569TIP3   OH226121   4.430   0.082  13.799 -0.0800 -0.2330  0.1190
 1569TIP3    H126122   4.349   0.125  13.827  1.1816  3.0361 -0.7305
 1569TIP3    H226123   4.435   0.003  13.852 -3.0118  0.2436  1.3123
 1570TIP3   OH226124   5.352   0.169  15.695  0.0253 -0.2816  0.2633
 1570TIP3    H126125   5.437   0.212  15.679  0.4905 -1.3224 -0.1445
 1570TIP3    H226126   5.291   0.215  15.638  0.4961 -0.1002 -0.1058
 1571TIP3   OH226127   4.780   6.434  15.369 -0.3133 -0.1236 -0.0068
 1571TIP3    H126128   4.869   6.412  15.397 -0.6610 -0.8574  0.5633
 1571TIP3    H226129   4.734   6.453  15.451 -0.7503 -0.0127 -0.2754
 1572TIP3   OH226130   5.533   3.506   0.609 -0.4884  0.1012 -0.6221
 1572TIP3    H126131   5.528   3.465   0.695  0.7792 -0.2117 -0.6689
 1572TIP3    H226132   5.465   3.573   0.609  1.3997  2.2558  1.8159
 1573TIP3   OH226133   3.447   2.593  11.088 -0.0421  0.3591  0.5647
 1573TIP3    H126134   3.477   2.505  11.066  0.5677  0.9153 -0.9742
 1573TIP3    H226135   3.519   2.650  11.061 -1.4471  1.5434 -0.8894
 1574TIP3   OH226136   0.378   4.040   2.296 -0.2051  0.3413 -1.1015
 1574TIP3    H126137   0.382   4.107   2.364  0.2316  0.3983 -1.1761
 1574TIP3    H226138   0.406   3.959   2.340  0.7898  0.5193 -1.3727
 1575TIP3   OH226139   2.175   4.793  13.481  0.3834  0.0018  0.1009
 1575TIP3    H126140   2.223   4.725  13.529 -1.0519  0.2091  1.9247
 1575TIP3    H226141   2.086   4.759  13.472 -0.5214  1.8038  1.5551
 1576TIP3   OH226142   0.820   3.098   3.103  0.1372  0.4505 -0.2221
 1576TIP3    H126143   0.783   3.132   3.184  0.6943 -0.1032  0.2668
 1576TIP3    H226144   0.904   3.062   3.128 -0.1236 -0.6392 -0.8600
 1577TIP3   OH226145   1.858   0.338  11.304  0.1688  0.3176  0.2055
 1577TIP3    H126146   1.814   0.311  11.223 -0.0082 -1.8671  0.9712
 1577TIP3    H226147   1.922   0.403  11.275 -0.7795  0.5683 -1.4913
 1578TIP3   OH226148   0.754   4.306  11.551  0.0618 -0.0183  0.1777
 1578TIP3    H126149   0.782   4.329  11.462 -0.9750  0.9174  0.0700
 1578TIP3    H226150   0.835   4.301  11.601  0.6575 -0.4428 -0.7853
 1579TIP3   OH226151   3.862   1.025   2.186  0.1725  0.7232 -0.6955
 1579TIP3    H126152   3.921   1.058   2.119  0.9869  1.9594  0.5694
 1579TIP3    H226153   3.917   0.969   2.241 -0.9551 -2.0470 -2.1972
 1580TIP3   OH226154   3.781   0.360  15.598  0.1097  0.0841 -0.1579
 1580TIP3    H126155   3.772   0.454  15.585 -2.1240 -0.1961 -1.1068
 1580TIP3    H226156   3.771   0.347  15.692  3.3054  0.9799  0.4188
 1581TIP3   OH226157   1.815   0.452  14.371 -0.4556 -0.8710 -0.3618
 1581TIP3    H126158   1.733   0.495  14.345  0.1880 -0.6230 -2.0588
 1581TIP3    H226159   1.843   0.501  14.449 -1.7902 -0.8211  0.1163
 1582TIP3   OH226160   0.445   0.194  10.616  0.2250  0.4584 -0.0700
 1582TIP3    H126161   0.400   0.248  10.551  0.7856  0.9860 -0.0413
 1582TIP3    H226162   0.530   0.238  10.628  0.4600 -0.1080  0.3917
 1583TIP3   OH226163   2.934   6.665  15.559 -0.2756  0.1554 -0.2549
 1583TIP3    H126164   2.853   6.621  15.533  0.6619 -0.7151 -1.8937
 1583TIP3    H226165   2.990   6.659  15.482  1.3210  0.8320  0.7951
 1584TIP3   OH226166   0.187   3.184   3.595  0.5352  0.3790 -0.0490
 1584TIP3    H126167   0.154   3.264   3.553 -2.5387 -1.2532 -1.0603
 1584TIP3    H226168   0.196   3.121   3.523  2.5880 -0.3487  0.7659
 1585TIP3   OH226169   6.326   6.467  16.239 -0.1325 -0.4226 -0.2014
 1585TIP3    H126170   6.292   6.421  16.163 -0.5875 -1.5975  0.6914
 1585TIP3    H226171   6.251   6.515  16.274 -0.3080 -1.1459  0.4172
 1586TIP3   OH226172   4.471   1.538  15.096 -0.0463 -0.7979 -0.1209
 1586TIP3    H126173   4.383   1.501  15.093 -0.9772  1.1534  0.9520
 1586TIP3    H226174   4.521   1.477  15.149 -0.6408 -2.0941 -0.9930
 1587TIP3   OH226175   2.558   4.512  14.218  0.1818  0.4032 -0.2186
 1587TIP3    H126176   2.500   4.436  14.228  0.9824 -0.7785 -3.4695
 1587TIP3    H226177   2.641   4.485  14.257 -0.1451  0.4535  0.5307
 1588TIP3   OH226178   6.350   3.670   1.851  0.0661  0.1411 -0.1483
 1588TIP3    H126179   6.326   3.668   1.758 -0.7846  0.7393  0.0586
 1588TIP3    H226180   6.311   3.750   1.885  2.0035  0.9557  0.3054
 1589TIP3   OH226181   2.797   3.992  15.681 -0.2664 -0.5220 -0.5422
 1589TIP3    H126182   2.769   3.907  15.645 -0.6836 -0.8640  0.5557
 1589TIP3    H226183   2.839   3.970  15.764 -0.1919  0.3377 -0.3474
 1590TIP3   OH226184   0.906   5.549   0.117  0.5596 -0.4051  0.3437
 1590TIP3    H126185   0.816   5.518   0.109  0.4013 -0.0845  0.7971
 1590TIP3    H226186   0.958   5.470   0.127  0.6297 -0.7648 -2.2533
 1591TIP3   OH226187   3.807   2.327  16.419 -0.5404  0.1023  0.3691
 1591TIP3    H126188   3.862   2.282  16.484 -1.0613  2.8547  2.9213
 1591TIP3    H226189   3.718   2.318  16.453 -0.8976  1.1367 -0.2655
 1592TIP3   OH226190   3.141   2.807  12.264 -0.2671  0.0484  0.1041
 1592TIP3    H126191   3.160   2.899  12.281  1.3017 -0.2141 -0.0426
 1592TIP3    H226192   3.079   2.782  12.333  0.8436  0.7042  1.3972
 1593TIP3   OH226193   6.297   5.616   5.750 -0.3553 -0.3298 -0.2442
 1593TIP3    H126194   6.230   5.651   5.809  0.1934  0.6294 -0.1798
 1593TIP3    H226195   6.367   5.585   5.808 -0.9753 -1.9037 -0.2780
 1594TIP3   OH226196   0.475   4.177  12.126  0.0014  0.3230  0.1098
 1594TIP3    H126197   0.520   4.254  12.093  0.1034  1.2592  2.2682
 1594TIP3    H226198   0.545   4.112  12.139  0.2237  0.5698  0.1610
 1595TIP3   OH226199   5.488   6.583  12.886  0.2737 -0.4542 -0.3333
 1595TIP3    H126200   5.583   6.576  12.887  1.1431  5.6424  2.0307
 1595TIP3    H226201   5.463   6.582  12.979 -1.8036 -0.6306 -0.8476
 1596TIP3   OH226202   5.349   4.230   1.888  0.2279  0.3732  0.5196
 1596TIP3    H126203   5.325   4.186   1.806 -0.6554  0.1546  0.8859
 1596TIP3    H226204   5.426   4.183   1.919 -0.2984 -0.4765  0.5554
 1597TIP3   OH226205   1.265   5.532   6.088  0.0009 -0.3240 -0.4225
 1597TIP3    H126206   1.257   5.556   6.180  0.0667 -1.4749 -0.0920
 1597TIP3    H226207   1.339   5.584   6.056  0.1290 -0.0877  0.2414
 1598TIP3   OH226208   5.887   5.167   4.807 -0.7438 -0.1105 -0.2717
 1598TIP3    H126209   5.941   5.245   4.803 -0.4282 -0.3334 -0.3975
 1598TIP3    H226210   5.863   5.160   4.899 -0.8419  0.1802 -0.2738
 1599TIP3   OH226211   1.467   3.585  15.080  0.0237 -0.2431  0.1331
 1599TIP3    H126212   1.518   3.505  15.064  0.0533 -0.0345 -0.8635
 1599TIP3    H226213   1.532   3.654  15.089 -0.0654  0.0141 -1.0854
 1600TIP3   OH226214   2.937   4.567  13.771 -0.5511  0.7115 -0.3029
 1600TIP3    H126215   2.894   4.652  13.786 -1.8839  0.1509 -0.7706
 1600TIP3    H226216   2.977   4.575  13.685 -0.5337  0.9301 -0.2744
 1601TIP3   OH226217   4.185   5.184   1.686  0.0196 -0.0362  0.1857
 1601TIP3    H126218   4.240   5.171   1.763  0.5034  1.2371  0.0850
 1601TIP3    H226219   4.185   5.278   1.672 -0.4594 -0.1978 -1.0808
 1602TIP3   OH226220   5.618   0.678   1.562 -0.1788  0.0830 -0.2425
 1602TIP3    H126221   5.655   0.712   1.643  2.0287 -2.4779 -0.0067
 1602TIP3    H226222   5.662   0.727   1.492 -0.5809  0.8916  0.0586
 1603TIP3   OH226223   3.899   6.201   2.488  0.0984 -0.1222 -0.1897
 1603TIP3    H126224   3.955   6.174   2.415 -0.2670 -2.8650  0.4448
 1603TIP3    H226225   3.959   6.210   2.562 -0.1261 -3.0167  0.4798
 1604TIP3   OH226226   6.127   1.129  14.626 -1.0653  0.9063 -0.1675
 1604TIP3    H126227   6.054   1.180  14.589 -0.8204  1.7425  0.4669
 1604TIP3    H226228   6.201   1.147  14.568 -1.3953 -0.1357 -0.9541
 1605TIP3   OH226229   4.525   1.444   3.771 -0.2136 -0.2527  0.1317
 1605TIP3    H126230   4.604   1.425   3.823 -0.5014 -0.9909  0.3138
 1605TIP3    H226231   4.467   1.489   3.832  1.2771  3.3304 -0.8485
 1606TIP3   OH226232   2.892   1.638   2.708  0.2153  0.7324 -0.2034
 1606TIP3    H126233   2.851   1.551   2.711  0.2358  0.6238 -2.0907
 1606TIP3    H226234   2.820   1.698   2.728  0.2804  0.3183  1.5110
 1607TIP3   OH226235   5.055   1.114  11.696 -0.4101  0.1690 -0.2553
 1607TIP3    H126236   4.976   1.156  11.661  0.3732  2.4953  0.5790
 1607TIP3    H226237   5.034   1.098  11.788  0.0908  0.8942 -0.0038
 1608TIP3   OH226238   3.564   5.790  13.149  0.2523 -0.6897  0.0454
 1608TIP3    H126239   3.636   5.814  13.209 -0.0525  2.3207 -0.6233
 1608TIP3    H226240   3.502   5.863  13.156 -0.9345 -1.3935 -2.1933
 1609TIP3   OH226241   5.225   6.208   4.822 -0.2254 -0.1568  0.1346
 1609TIP3    H126242   5.245   6.272   4.755  0.6027  0.3569  0.8560
 1609TIP3    H226243   5.132   6.221   4.842  0.0746  1.2202  0.6880
 1610TIP3   OH226244   6.035   4.779   5.890  0.0212 -0.3030  0.5744
 1610TIP3    H126245   6.092   4.845   5.851 -1.2793 -0.3169 -1.5109
 1610TIP3    H226246   6.013   4.815   5.976  0.8275  1.0931  0.2390
 1611TIP3   OH226247   0.832   3.807  15.031  0.0333 -0.2216 -0.1275
 1611TIP3    H126248   0.809   3.718  15.057  2.3139 -0.6502  0.6426
 1611TIP3    H226249   0.854   3.850  15.114  2.9000 -0.2027 -0.8177
 1612TIP3   OH226250   3.641   2.541   6.762 -0.5890 -0.2143 -0.4083
 1612TIP3    H126251   3.711   2.606   6.752 -0.9971 -0.0291 -2.2391
 1612TIP3    H226252   3.560   2.590   6.747 -1.0235 -0.7950 -0.0223
 1613TIP3   OH226253   2.228   2.062   1.762  0.6253 -0.1588  0.4479
 1613TIP3    H126254   2.155   2.099   1.812  1.1047  0.2459  0.8597
 1613TIP3    H226255   2.276   2.138   1.729  1.7834 -0.3752  1.5342
 1614TIP3   OH226256   5.433   1.839   4.234  0.3712 -0.0371 -0.0820
 1614TIP3    H126257   5.397   1.759   4.273 -0.0121 -0.7917 -1.8792
 1614TIP3    H226258   5.526   1.835   4.254  0.4133 -1.1301 -0.4177
 1615TIP3   OH226259   1.608   5.460  16.869  0.2652  0.4000  0.6907
 1615TIP3    H126260   1.577   5.434  16.956  0.7326 -0.7711  0.5223
 1615TIP3    H226261   1.626   5.378  16.824  0.7047  1.0051 -0.2789
 1616TIP3   OH226262   1.812   0.203  10.683  0.1408 -0.3468 -0.0514
 1616TIP3    H126263   1.878   0.183  10.749  1.3694 -0.0781 -1.1670
 1616TIP3    H226264   1.818   0.298  10.671 -0.4782 -0.3151 -0.1277
 1617TIP3   OH226265   3.681   4.238   6.965 -0.0224  0.0745 -0.1842
 1617TIP3    H126266   3.733   4.306   6.923 -0.1133  0.3780  0.1994
 1617TIP3    H226267   3.636   4.195   6.892  0.7152 -0.1596 -0.5127
 1618TIP3   OH226268   2.514   1.588  15.911 -0.3603  0.1205  0.0905
 1618TIP3    H126269   2.428   1.602  15.872 -0.3658 -0.9851 -0.3127
 1618TIP3    H226270   2.496   1.539  15.991  0.0453 -2.1098 -1.1238
 1619TIP3   OH226271   1.816   1.757  13.499  0.4322 -0.2563 -0.8989
 1619TIP3    H126272   1.722   1.757  13.481  0.1600  0.1041  0.4372
 1619TIP3    H226273   1.851   1.824  13.441 -0.3354  0.5106 -0.5038
 1620TIP3   OH226274   1.778   5.229  12.898  0.1877  0.2710 -0.2356
 1620TIP3    H126275   1.829   5.301  12.861  0.4121  0.0430 -0.3781
 1620TIP3    H226276   1.716   5.205  12.829  1.2642 -0.8131 -0.8877
 1621TIP3   OH226277   3.954   5.159  15.316 -0.6937 -0.2607 -0.2811
 1621TIP3    H126278   3.921   5.208  15.391  1.9179  0.3574  0.5772
 1621TIP3    H226279   3.978   5.073  15.352 -0.0977 -0.2111 -0.5454
 1622TIP3   OH226280   5.886   3.972   3.993  0.1322  0.1547  0.3424
 1622TIP3    H126281   5.907   4.051   4.043  0.6254  0.0236  0.3451
 1622TIP3    H226282   5.870   4.002   3.904  3.3336 -0.0465 -0.4109
 1623TIP3   OH226283   0.142   4.170   2.830  0.1769 -0.8670 -0.5370
 1623TIP3    H126284   0.131   4.218   2.912 -0.2331 -1.1403 -0.4275
 1623TIP3    H226285   0.151   4.238   2.763  0.2320 -0.6406 -0.3012
 1624TIP3   OH226286   6.416   6.653   4.374 -0.1802  0.0604 -0.0516
 1624TIP3    H126287   6.506   6.630   4.398 -0.4381 -0.7355  0.1939
 1624TIP3    H226288   6.388   6.714   4.442  0.2903  0.5874 -0.3274
 1625TIP3   OH226289   2.383   3.575   5.522  0.0788  0.4327  0.4810
 1625TIP3    H126290   2.345   3.586   5.435  0.2650  0.2876  0.3786
 1625TIP3    H226291   2.368   3.483   5.543  2.6919 -0.3807 -0.7064
 1626TIP3   OH226292   3.455   0.855  11.182 -0.2257  0.1130 -0.1858
 1626TIP3    H126293   3.415   0.889  11.262  1.5429  0.6109  0.5187
 1626TIP3    H226294   3.417   0.767  11.173 -1.0525  0.3486  0.7368
 1627TIP3   OH226295   0.254   4.598  13.817  0.1838  0.4493 -0.4982
 1627TIP3    H126296   0.325   4.630  13.873 -2.3076  1.3876  2.3476
 1627TIP3    H226297   0.291   4.520  13.775  3.3996  1.7875 -0.4651
 1628TIP3   OH226298   2.585   5.607   5.281  0.3980  0.1015 -0.3722
 1628TIP3    H126299   2.626   5.628   5.365  1.3692 -0.8484 -0.5929
 1628TIP3    H226300   2.590   5.512   5.275 -1.5487 -0.0248 -0.5722
 1629TIP3   OH226301   6.778   0.161   4.694  0.8224 -0.8722 -0.1295
 1629TIP3    H126302   6.708   0.142   4.757 -0.2376 -0.5526 -1.1682
 1629TIP3    H226303   6.812   0.075   4.670 -0.6635 -1.2354 -1.1537
 1630TIP3   OH226304   2.312   2.528   5.753  0.3979  0.2423 -0.2115
 1630TIP3    H126305   2.390   2.571   5.789  0.8010  0.5782 -1.4487
 1630TIP3    H226306   2.340   2.439   5.734  0.1209 -0.0024  0.4758
 1631TIP3   OH226307   6.430   2.027   2.744 -0.1803 -0.3747 -0.7279
 1631TIP3    H126308   6.503   2.078   2.710 -0.7675  0.6102 -0.5387
 1631TIP3    H226309   6.387   1.991   2.667 -0.7848  0.8511 -0.9862
 1632TIP3   OH226310   5.971   0.825   2.915 -0.3607 -0.7278  0.2396
 1632TIP3    H126311   5.932   0.887   2.977 -0.2965 -0.5278  0.0799
 1632TIP3    H226312   6.003   0.754   2.971  0.3657 -0.2004  0.5229
 1633TIP3   OH226313   4.497   0.574   5.895 -0.2278  0.2734  0.0822
 1633TIP3    H126314   4.454   0.639   5.838 -1.9243 -0.6934  0.2049
 1633TIP3    H226315   4.546   0.627   5.958 -3.3549  1.5749  1.5988
 1634TIP3   OH226316   5.635   1.358  15.550 -0.0011 -0.4192 -0.0748
 1634TIP3    H126317   5.726   1.332  15.561 -0.3402 -1.2865  0.8263
 1634TIP3    H226318   5.597   1.352  15.638 -0.9202 -0.0497 -0.4277
 1635TIP3   OH226319   1.438   6.358   0.768  0.0619 -0.8562 -0.6329
 1635TIP3    H126320   1.481   6.431   0.814  1.0132 -1.6126 -0.2985
 1635TIP3    H226321   1.504   6.290   0.764 -0.9992 -1.9252 -0.4358
 1636TIP3   OH226322   3.971   5.012   0.148 -0.5091 -0.3364  0.1855
 1636TIP3    H126323   4.026   5.087   0.123  0.4843 -1.2610 -0.5354
 1636TIP3    H226324   3.921   5.042   0.223  1.2189  0.4886  1.0646
 1637TIP3   OH226325   0.358   0.143   2.775 -0.2105 -0.3178  0.0328
 1637TIP3    H126326   0.425   0.076   2.788 -0.9720 -1.3349 -1.0626
 1637TIP3    H226327   0.312   0.148   2.859 -0.4783 -1.5669 -0.0219
 1638TIP3   OH226328   5.776   4.069   4.563  0.6445  0.8899  0.3471
 1638TIP3    H126329   5.687   4.105   4.556 -0.5448 -1.9034 -0.1756
 1638TIP3    H226330   5.823   4.133   4.616 -1.1348  3.3857 -0.8614
 1639TIP3   OH226331   4.324   0.320  16.377  0.2525  0.0399  0.1409
 1639TIP3    H126332   4.306   0.411  16.399  0.6753  0.3469 -0.7099
 1639TIP3    H226333   4.273   0.304  16.297  1.1774 -0.0560 -0.4475
 1640TIP3   OH226334   3.092   5.719  13.143  0.1985 -0.4762  0.4121
 1640TIP3    H126335   3.133   5.650  13.092 -0.8150 -0.6707 -0.1570
 1640TIP3    H226336   3.075   5.789  13.080  2.1420  0.7455  1.1655
 1641TIP3   OH226337   2.863   5.466  15.143 -0.3120  0.4695 -0.1964
 1641TIP3    H126338   2.843   5.533  15.208  2.8687  0.0761  1.3955
 1641TIP3    H226339   2.932   5.505  15.089 -0.9825 -0.2477 -1.6350
 1642TIP3   OH226340   5.667   3.660   3.780  0.9303  0.0035  0.5202
 1642TIP3    H126341   5.609   3.588   3.754  0.9135  0.1671  0.0924
 1642TIP3    H226342   5.608   3.729   3.810  0.9835 -0.5098  1.8615
 1643TIP3   OH226343   3.772   3.399   5.398  0.4237 -0.5267 -0.1589
 1643TIP3    H126344   3.785   3.344   5.475 -1.7203 -1.1635 -0.1871
 1643TIP3    H226345   3.686   3.439   5.411  0.0689 -0.5299 -2.1212
 1644TIP3   OH226346   4.063   5.491  15.313 -0.0480  0.3668  0.2893
 1644TIP3    H126347   4.061   5.395  15.315 -0.6704  0.3833  1.1717
 1644TIP3    H226348   3.971   5.517  15.314  0.1249  0.9821  0.6511
 1645TIP3   OH226349   6.512   3.310   0.190  0.0922  0.1194  0.0797
 1645TIP3    H126350   6.494   3.329   0.098 -0.3775  1.1715  0.3728
 1645TIP3    H226351   6.436   3.260   0.219 -0.2109  0.5997  0.1294
 1646TIP3   OH226352   2.023   2.204  15.107 -0.0672  0.0847  0.0681
 1646TIP3    H126353   2.069   2.137  15.157 -0.1393 -0.4176 -0.5203
 1646TIP3    H226354   2.091   2.265  15.079 -0.2378  1.3596  2.2248
 1647TIP3   OH226355   4.269   4.029  15.240 -0.1643  0.3598  0.2915
 1647TIP3    H126356   4.261   4.060  15.149 -0.2529 -2.7268 -0.8601
 1647TIP3    H226357   4.187   3.984  15.257  0.5523 -0.6056  1.2837
 1648TIP3   OH226358   3.188   3.092  12.230 -0.2186  0.2814  0.0728
 1648TIP3    H126359   3.130   3.106  12.306 -0.4437  0.3024 -0.1023
 1648TIP3    H226360   3.129   3.094  12.155 -0.5252 -2.9575  0.0918
 1649TIP3   OH226361   2.729   6.259   0.940 -0.1106  0.3495 -0.3699
 1649TIP3    H126362   2.761   6.290   0.855 -0.7930 -1.1296 -1.2090
 1649TIP3    H226363   2.806   6.218   0.980  0.3612  1.5568  0.0062
 1650TIP3   OH226364   4.442   5.166   0.053  0.4577 -0.1005  0.3442
 1650TIP3    H126365   4.508   5.098   0.069 -0.8390 -1.3967  0.3556
 1650TIP3    H226366   4.484   5.224  -0.010  2.1584 -0.0618  1.4505
 1651TIP3   OH226367   0.289   0.240  14.556 -0.1610  0.1357 -0.0960
 1651TIP3    H126368   0.381   0.215  14.549  0.1753  1.1104  0.6794
 1651TIP3    H226369   0.274   0.253  14.650 -2.0653 -3.4676  0.2653
 1652TIP3   OH226370   6.734   2.860   1.407  0.0968 -0.3198  0.6793
 1652TIP3    H126371   6.810   2.823   1.361  0.7872 -0.4823  1.8933
 1652TIP3    H226372   6.691   2.784   1.446 -0.5267 -0.1932  0.2572
 1653TIP3   OH226373   0.958   3.981  13.681  0.3393 -0.1101  0.5809
 1653TIP3    H126374   0.909   4.049  13.726 -0.3162  0.0859 -0.3951
 1653TIP3    H226375   1.033   4.027  13.642 -0.3068  0.1560 -0.3990
 1654TIP3   OH226376   1.311   3.633  10.200 -0.6384  0.1357  0.0885
 1654TIP3    H126377   1.287   3.547  10.167  0.4554 -0.2763  0.3288
 1654TIP3    H226378   1.230   3.667  10.240 -1.0020 -0.8939  0.2524
 1655TIP3   OH226379   2.965   3.656   3.780  0.2360  0.0904  0.7038
 1655TIP3    H126380   2.898   3.715   3.813  1.0931 -0.0200  2.7631
 1655TIP3    H226381   2.987   3.600   3.854  2.0946 -0.3456 -0.1199
 1656TIP3   OH226382   3.163   4.035  15.981  0.1307 -0.4472 -0.0033
 1656TIP3    H126383   3.079   4.048  16.024 -0.5032 -1.0042 -1.0296
 1656TIP3    H226384   3.224   4.015  16.052 -0.7550 -0.7553  0.6855
 1657TIP3   OH226385   1.038   3.218  14.700 -0.2797  0.2325 -0.4270
 1657TIP3    H126386   1.126   3.256  14.706  0.7696 -2.2602  1.2938
 1657TIP3    H226387   0.984   3.277  14.752  0.6578  1.0153 -0.3007
 1658TIP3   OH226388   1.851   2.438  13.302 -0.2027  0.3021 -0.4678
 1658TIP3    H126389   1.768   2.428  13.350 -0.3486  1.4567 -0.4568
 1658TIP3    H226390   1.890   2.350  13.303 -2.5871 -0.9357 -2.6560
 1659TIP3   OH226391   6.365   5.850  13.021 -0.0839  0.1092  0.2518
 1659TIP3    H126392   6.418   5.771  13.009  0.6279  0.6773 -0.5228
 1659TIP3    H226393   6.276   5.823  12.998  0.3433 -0.2134 -1.1336
 1660TIP3   OH226394   4.302   1.353   4.454 -0.5865  0.0023 -0.5995
 1660TIP3    H126395   4.260   1.429   4.494 -0.1518 -0.3481  0.5595
 1660TIP3    H226396   4.317   1.293   4.527  0.8929 -0.3591 -1.1642
 1661TIP3   OH226397   1.917   4.511   3.643  0.2139 -0.4295  0.2927
 1661TIP3    H126398   1.979   4.553   3.584  0.4628  0.5763  1.2310
 1661TIP3    H226399   1.972   4.464   3.706 -0.0458 -1.5127 -0.2662
 1662TIP3   OH226400   3.515   5.557  10.542  0.2123  0.3724 -0.1209
 1662TIP3    H126401   3.447   5.620  10.521 -1.4811 -1.5048 -0.5816
 1662TIP3    H226402   3.471   5.490  10.595  1.0637 -2.1307 -2.3586
 1663TIP3   OH226403   2.498   3.797  15.836 -0.6913  0.3988  0.0584
 1663TIP3    H126404   2.483   3.722  15.778 -0.1072  0.7829 -0.5984
 1663TIP3    H226405   2.411   3.816  15.873 -1.3280  0.8895 -1.6048
 1664TIP3   OH226406   2.425   5.263  11.419  0.0700  0.1102 -0.1579
 1664TIP3    H126407   2.354   5.207  11.450  0.0468 -1.3637 -2.5916
 1664TIP3    H226408   2.385   5.314  11.348  1.2810 -0.3433 -1.1887
 1665TIP3   OH226409   6.082   1.760   4.216 -0.0849 -0.4268 -0.4015
 1665TIP3    H126410   6.167   1.741   4.176 -0.4191  2.2649 -2.6996
 1665TIP3    H226411   6.019   1.747   4.145 -1.4460 -0.9629  0.8669
 1666TIP3   OH226412   6.594   5.758   3.244 -0.0463 -0.1704  0.2579
 1666TIP3    H126413   6.562   5.834   3.292  2.5898  0.5199  1.0507
 1666TIP3    H226414   6.598   5.688   3.309  1.4345  0.1704  0.5666
 1667TIP3   OH226415   6.229   6.613  10.309 -0.3071 -0.2602  0.6297
 1667TIP3    H126416   6.160   6.680  10.311 -0.2573 -0.2151  0.8173
 1667TIP3    H226417   6.266   6.614  10.397 -0.4483 -0.6838  0.6940
 1668TIP3   OH226418   5.530   3.309  16.190  0.1123  0.1916 -0.4517
 1668TIP3    H126419   5.554   3.382  16.134  0.3449 -0.5960 -1.4031
 1668TIP3    H226420   5.612   3.259  16.200  0.6186  1.3824  2.2750
 1669TIP3   OH226421   1.566   6.406   3.944  0.2866 -0.4517 -0.6799
 1669TIP3    H126422   1.480   6.365   3.938  0.3354 -1.0174  1.6629
 1669TIP3    H226423   1.626   6.341   3.907 -0.0236 -1.1077 -0.0576
 1670TIP3   OH226424   4.753   3.337   1.849  0.1982  0.2877  0.4823
 1670TIP3    H126425   4.764   3.248   1.815  0.1186  0.4943 -0.0995
 1670TIP3    H226426   4.778   3.394   1.776 -2.3913  0.7606 -0.1319
 1671TIP3   OH226427   1.041   5.289  11.004 -0.0517 -0.2573  0.5533
 1671TIP3    H126428   0.979   5.359  11.024 -1.3659 -1.0529 -0.5281
 1671TIP3    H226429   1.099   5.326  10.937  1.1429  0.7292  2.0805
 1672TIP3   OH226430   2.008   0.037  11.657  0.1663 -0.5680 -0.1218
 1672TIP3    H126431   2.090   0.057  11.701  0.6166 -0.9069 -0.7915
 1672TIP3    H226432   1.983   0.118  11.613 -0.0217 -0.3765  0.3347
 1673TIP3   OH226433   5.971   3.755   3.300 -0.5426  0.3120 -0.4220
 1673TIP3    H126434   5.921   3.691   3.352 -0.0632 -1.4798 -2.0660
 1673TIP3    H226435   5.922   3.763   3.219 -1.1501  2.9044  0.1172
 1674TIP3   OH226436   5.141   1.096   0.968 -0.4126 -0.1090 -0.0260
 1674TIP3    H126437   5.144   1.074   0.875 -1.6943 -0.9464  0.1017
 1674TIP3    H226438   5.101   1.019   1.010  0.2856  0.1859  1.2385
 1675TIP3   OH226439   4.528   4.889   0.694 -0.3608  0.0139 -0.0887
 1675TIP3    H126440   4.562   4.977   0.676 -1.3395  0.5034  0.3565
 1675TIP3    H226441   4.502   4.892   0.786 -0.9495 -0.5592 -0.2294
 1676TIP3   OH226442   4.998   2.143   2.757 -0.2643  0.0912 -0.4306
 1676TIP3    H126443   4.968   2.225   2.795  0.3531  1.4630 -2.6866
 1676TIP3    H226444   5.046   2.099   2.828  0.0686  2.0405  0.6091
 1677TIP3   OH226445   3.984   0.703  12.754 -0.3450  0.2990  0.1485
 1677TIP3    H126446   3.918   0.740  12.813 -0.9133 -0.0560 -0.2467
 1677TIP3    H226447   4.039   0.777  12.730 -0.1407  0.4601  1.0719
 1678TIP3   OH226448   4.784   1.409  11.267 -0.0427  0.0208  0.6738
 1678TIP3    H126449   4.774   1.500  11.295 -0.6447  0.8447 -1.9218
 1678TIP3    H226450   4.879   1.399  11.253 -0.0027  0.3272  0.7158
 1679TIP3   OH226451   6.193   4.221   4.781  0.1287 -0.1610 -0.4832
 1679TIP3    H126452   6.238   4.173   4.851  0.1969  0.5471 -0.0259
 1679TIP3    H226453   6.225   4.181   4.700  0.6867 -0.4479 -0.1305
 1680TIP3   OH226454   5.130   1.511   2.931  0.0031 -0.1455 -0.2684
 1680TIP3    H126455   5.053   1.460   2.956 -0.5280 -0.7189 -2.7926
 1680TIP3    H226456   5.095   1.594   2.898  0.6526  0.5458  0.7254
 1681TIP3   OH226457   1.596   1.527   5.514  0.1170  0.3448  0.1408
 1681TIP3    H126458   1.648   1.499   5.439 -0.6547 -0.8083  0.0167
 1681TIP3    H226459   1.508   1.542   5.478 -0.5324 -1.2325  0.9648
 1682TIP3   OH226460   5.944   1.461  10.743  0.0367 -0.1714  0.4639
 1682TIP3    H126461   5.885   1.511  10.687 -0.6008  2.1312  2.9873
 1682TIP3    H226462   6.030   1.471  10.702 -0.5927  0.2748 -0.8127
 1683TIP3   OH226463   3.572   5.427  12.199  0.2543 -0.5071 -0.1586
 1683TIP3    H126464   3.610   5.421  12.287  0.7177  0.2472 -0.2932
 1683TIP3    H226465   3.494   5.482  12.210 -0.5583 -1.6730  0.0374
 1684TIP3   OH226466   5.520   0.959   1.932  0.3238  0.7024  0.0431
 1684TIP3    H126467   5.534   1.054   1.939  0.7665  0.7264 -0.9570
 1684TIP3    H226468   5.567   0.922   2.006 -1.4895  1.3787  1.6188
 1685TIP3   OH226469   2.110   6.549   2.232  0.0473  0.0349 -0.4473
 1685TIP3    H126470   2.022   6.512   2.233 -0.0722  0.3215 -0.2118
 1685TIP3    H226471   2.104   6.623   2.172  0.3863 -0.5651 -1.2384
 1686TIP3   OH226472   2.599   0.193  14.153 -0.1594  0.2862 -0.0664
 1686TIP3    H126473   2.683   0.223  14.119 -0.7782  0.5117 -1.4606
 1686TIP3    H226474   2.542   0.270  14.150 -0.6577 -0.0721  0.0034
 1687TIP3   OH226475   3.357   0.469   0.141 -0.5565  0.2608  0.7278
 1687TIP3    H126476   3.352   0.422   0.224 -1.4471  1.0243  1.1263
 1687TIP3    H226477   3.340   0.561   0.164  0.3450  0.6640 -0.1390
 1688TIP3   OH226478   2.680   0.365   2.713 -0.0098 -0.7499  0.0250
 1688TIP3    H126479   2.636   0.287   2.747  0.5228 -0.8613  0.4621
 1688TIP3    H226480   2.771   0.340   2.704  0.2695 -0.0154  0.6891
 1689TIP3   OH226481   3.956   1.883  12.980 -0.0603  0.1507 -0.0515
 1689TIP3    H126482   3.979   1.881  13.073  2.5298 -0.1628 -0.6357
 1689TIP3    H226483   3.934   1.793  12.959 -0.0246  0.1010  0.1243
 1690TIP3   OH226484   6.630   2.852  11.003 -0.6747 -0.0866 -0.1813
 1690TIP3    H126485   6.672   2.935  11.026 -0.8546  0.5295 -1.8927
 1690TIP3    H226486   6.536   2.872  11.003 -0.6722  0.0310 -1.6265
 1691TIP3   OH226487   1.594   4.134  16.287 -0.6978  0.0238 -0.2996
 1691TIP3    H126488   1.565   4.189  16.215 -1.2523 -0.9450 -0.8392
 1691TIP3    H226489   1.537   4.057  16.283 -1.1882  0.2566  1.5943
 1692TIP3   OH226490   2.700   0.341  10.912 -0.2020  0.0687 -0.0164
 1692TIP3    H126491   2.691   0.369  10.821  0.8303 -2.0645 -0.8466
 1692TIP3    H226492   2.668   0.415  10.963 -0.2394  1.5729 -2.0869
 1693TIP3   OH226493   0.249   0.547  14.928  0.2100 -0.2902 -0.0110
 1693TIP3    H126494   0.217   0.458  14.918  1.6645 -1.4015  3.4755
 1693TIP3    H226495   0.335   0.546  14.886 -0.0726 -0.2934 -0.5985
 1694TIP3   OH226496   3.459   6.423  13.744 -0.2959 -0.3988 -0.1829
 1694TIP3    H126497   3.417   6.494  13.793  0.4098 -1.3559  1.8840
 1694TIP3    H226498   3.512   6.468  13.678 -1.4208  0.9220 -0.2329
 1695TIP3   OH226499   5.103   2.010   3.418 -0.4949  0.2808 -0.5677
 1695TIP3    H126500   5.189   2.023   3.457 -1.3145 -0.1916  1.4889
 1695TIP3    H226501   5.088   2.091   3.368  1.0679  0.4121 -0.8967
 1696TIP3   OH226502   0.860   0.620  12.839 -0.1192  0.3358 -0.0872
 1696TIP3    H126503   0.833   0.531  12.821 -0.7364  0.7657 -1.3822
 1696TIP3    H226504   0.785   0.674  12.814  0.4183  1.2544  0.2134
 1697TIP3   OH226505   0.029   1.422  12.838  0.0929  0.0050 -0.7024
 1697TIP3    H126506   0.120   1.453  12.840 -0.4587  1.6739 -0.7284
 1697TIP3    H226507   0.019   1.374  12.920  0.5536  1.1532  0.0459
 1698TIP3   OH226508   5.457   2.386   4.094 -0.2555 -0.6177  0.4135
 1698TIP3    H126509   5.465   2.393   4.189 -1.8053  1.2359  0.4848
 1698TIP3    H226510   5.428   2.473   4.067  1.6997 -0.6038 -1.9704
 1699TIP3   OH226511   3.259   5.835   0.356 -0.1079 -0.4832 -0.2409
 1699TIP3    H126512   3.190   5.769   0.358  1.5703 -2.3539  2.2071
 1699TIP3    H226513   3.221   5.911   0.400 -0.9666 -1.0917  0.1013
 1700TIP3   OH226514   1.243   1.074   5.631  0.0341 -0.1928  0.2642
 1700TIP3    H126515   1.271   0.994   5.676  1.4269  0.6250  0.9037
 1700TIP3    H226516   1.156   1.092   5.667  0.1620 -0.8136  0.9132
 1701TIP3   OH226517   0.550   0.050  14.920 -0.0112 -0.3947  0.1757
 1701TIP3    H126518   0.614   0.054  14.992  0.9123 -1.0491 -0.5847
 1701TIP3    H226519   0.465   0.039  14.964  0.4933 -0.4006  1.1794
 1702TIP3   OH226520   4.907   0.130  14.329  0.8537  0.2699  0.0513
 1702TIP3    H126521   4.985   0.179  14.354  0.6382  0.3460  0.5852
 1702TIP3    H226522   4.931   0.088  14.247  2.6543 -2.4041  1.7706
 1703TIP3   OH226523   4.281   1.196  13.093  0.1062 -0.3321 -0.7296
 1703TIP3    H126524   4.315   1.285  13.105 -0.2565 -0.3895  0.9591
 1703TIP3    H226525   4.358   1.141  13.090  0.2975 -0.0715 -0.6643
 1704TIP3   OH226526   6.551   2.434  14.705  0.1663 -0.0435 -0.3584
 1704TIP3    H126527   6.529   2.347  14.739  1.6220 -0.3117 -0.0308
 1704TIP3    H226528   6.634   2.421  14.658 -1.4574  0.4074 -3.6186
 1705TIP3   OH226529   1.059   5.812  16.012 -0.2411  0.0315 -0.0950
 1705TIP3    H126530   1.128   5.779  15.955 -0.0010 -0.1504  0.2948
 1705TIP3    H226531   0.980   5.767  15.981 -0.7109  2.1277 -2.2065
 1706TIP3   OH226532   0.291   6.181   5.283 -0.1812 -0.2089  0.1147
 1706TIP3    H126533   0.366   6.198   5.340 -0.0903  0.9108 -0.3099
 1706TIP3    H226534   0.262   6.268   5.255 -2.4510 -0.4997  1.2937
 1707TIP3   OH226535   2.989   1.290  13.468  0.5239 -0.4315  0.8484
 1707TIP3    H126536   2.988   1.194  13.466  1.7172 -0.4617 -1.9442
 1707TIP3    H226537   3.073   1.312  13.506  0.0831 -0.4555  1.8684
 1708TIP3   OH226538   4.281   3.396  16.920  0.3317 -0.5052 -0.3349
 1708TIP3    H126539   4.277   3.319  16.978  0.1973 -0.3547 -0.1415
 1708TIP3    H226540   4.367   3.433  16.936 -0.1750  0.2803  0.7433
 1709TIP3   OH226541   4.652   2.107  11.664  0.0273  0.5295  0.5405
 1709TIP3    H126542   4.723   2.077  11.606 -1.5589  0.5180 -1.4914
 1709TIP3    H226543   4.602   2.028  11.683 -2.3831  1.2120 -2.3168
 1710TIP3   OH226544   3.475   6.429  15.698 -0.3711  0.2816  0.0720
 1710TIP3    H126545   3.427   6.439  15.780 -0.9994  2.6999 -0.4932
 1710TIP3    H226546   3.409   6.442  15.629  0.8033  2.6132 -0.7226
 1711TIP3   OH226547   5.305   0.316   1.980 -0.2176  0.1206 -0.1939
 1711TIP3    H126548   5.342   0.389   2.030  1.2057 -1.9827  2.0868
 1711TIP3    H226549   5.210   0.324   1.992 -0.0272  1.0883  0.8034
 1712TIP3   OH226550   3.849   0.151  10.587 -0.4195 -0.3849 -0.2786
 1712TIP3    H126551   3.831   0.245  10.583 -1.6821 -0.4791  1.8841
 1712TIP3    H226552   3.847   0.122  10.496  1.3545  1.8903 -1.1349
 1713TIP3   OH226553   3.439   6.642  12.733  0.2946 -0.0119 -0.4826
 1713TIP3    H126554   3.372   6.700  12.769 -0.0180  0.0143 -1.0963
 1713TIP3    H226555   3.522   6.689  12.746  0.2855 -0.3268  0.8733
 1714TIP3   OH226556   3.401   6.360   4.972  0.1967 -0.7799  0.0807
 1714TIP3    H126557   3.417   6.335   4.881  0.5472  0.7909 -0.3141
 1714TIP3    H226558   3.479   6.409   4.999 -0.7167  0.4759  0.5638
 1715TIP3   OH226559   4.068   6.230  14.359 -0.0597 -0.5204  0.3175
 1715TIP3    H126560   4.123   6.308  14.354 -1.2142  0.2471 -1.2397
 1715TIP3    H226561   4.125   6.158  14.332  0.2040  0.2732 -1.3707
 1716TIP3   OH226562   1.005   3.758  15.494  0.5103 -0.2303 -0.0117
 1716TIP3    H126563   0.950   3.832  15.516  2.7378  2.0483 -1.4944
 1716TIP3    H226564   0.944   3.687  15.476 -1.7396  1.2435  1.3232
 1717TIP3   OH226565   2.081   5.910  11.659  0.1237  0.0356 -0.5421
 1717TIP3    H126566   1.987   5.931  11.660  0.0519 -0.2218  1.2624
 1717TIP3    H226567   2.087   5.827  11.612 -0.7277 -0.6327  0.4999
 1718TIP3   OH226568   6.802   2.201   3.298 -0.2748 -0.1843  0.0826
 1718TIP3    H126569   6.814   2.181   3.390  0.1516 -0.9491 -0.1306
 1718TIP3    H226570   6.775   2.118   3.258 -0.0152  0.0237 -0.5535
 1719TIP3   OH226571   0.636   2.403   0.705  0.2989 -0.4215  0.0967
 1719TIP3    H126572   0.584   2.394   0.785  0.9595  0.3161  0.6272
 1719TIP3    H226573   0.689   2.482   0.719  2.3093 -1.6677  0.0347
 1720TIP3   OH226574   1.387   0.652  12.031  0.6517 -0.5932  0.4562
 1720TIP3    H126575   1.391   0.744  12.004 -0.6286 -0.6984 -0.1434
 1720TIP3    H226576   1.353   0.654  12.120 -0.9978 -0.5473 -0.1460
 1721TIP3   OH226577   1.937   0.424   5.161 -0.0604  0.2197  0.1529
 1721TIP3    H126578   1.918   0.393   5.073  0.9073  1.2901 -0.4517
 1721TIP3    H226579   1.852   0.445   5.199 -0.7244 -2.4532  0.3633
 1722TIP3   OH226580   1.882   0.824  14.421 -0.3362 -0.7802  0.3923
 1722TIP3    H126581   1.854   0.916  14.411 -1.1017 -0.9616  0.7729
 1722TIP3    H226582   1.800   0.776  14.437 -0.1491 -1.7828 -1.4300
 1723TIP3   OH226583   4.201   5.449  14.004  0.8257 -0.2801 -0.2583
 1723TIP3    H126584   4.184   5.537  14.036  3.1167  0.2507 -0.2837
 1723TIP3    H226585   4.163   5.447  13.916  0.1241  0.4138  0.0207
 1724TIP3   OH226586   2.851   5.548   5.346  0.5035  0.6090  0.5001
 1724TIP3    H126587   2.858   5.479   5.412 -0.2297  0.7680  0.7559
 1724TIP3    H226588   2.902   5.516   5.272  0.2133 -0.1835  0.6373
 1725TIP3   OH226589   2.962   2.535  16.500 -0.1740 -0.5923  0.0463
 1725TIP3    H126590   2.902   2.521  16.573 -0.8523  1.1598 -0.1441
 1725TIP3    H226591   3.008   2.616  16.521  0.8423 -0.9430 -0.6924
 1726TIP3   OH226592   3.026   3.443   1.181  0.4404 -0.1286 -0.7764
 1726TIP3    H126593   3.101   3.429   1.123 -0.1036 -0.4533 -1.4224
 1726TIP3    H226594   2.950   3.418   1.128  0.0816 -3.1444  0.9111
 1727TIP3   OH226595   5.599   4.953   0.956 -0.0674 -0.1950 -0.4375
 1727TIP3    H126596   5.551   4.870   0.946 -0.7102  0.1403 -0.2211
 1727TIP3    H226597   5.607   4.987   0.867 -0.4316 -0.1503 -0.4572
 1728TIP3   OH226598   4.852   4.475  13.342 -0.0472  0.3184 -0.0493
 1728TIP3    H126599   4.758   4.487  13.356 -0.4295 -0.7454 -1.4855
 1728TIP3    H226600   4.859   4.392  13.294  1.6832 -0.0127  0.6884
 1729TIP3   OH226601   5.039   5.717   3.244  0.1077  0.2753 -0.1242
 1729TIP3    H126602   5.013   5.686   3.331 -0.2446  1.6108  0.2568
 1729TIP3    H226603   5.131   5.690   3.237 -0.3825 -1.5785 -0.1622
 1730TIP3   OH226604   5.808   0.404   2.602  0.3801  0.0211  0.0798
 1730TIP3    H126605   5.716   0.383   2.615  0.5194 -0.8941 -0.3570
 1730TIP3    H226606   5.808   0.496   2.576 -0.4141 -0.0028 -0.0356
 1731TIP3   OH226607   5.693   1.030   4.155  0.2438 -0.6222  0.1699
 1731TIP3    H126608   5.740   1.106   4.121 -0.2730 -1.1430 -1.8475
 1731TIP3    H226609   5.605   1.062   4.173 -0.5067 -1.0161 -2.3367
 1732TIP3   OH226610   3.706   5.552   4.179 -0.1943 -0.5366 -0.7564
 1732TIP3    H126611   3.650   5.511   4.245  0.3448 -1.8951 -1.0969
 1732TIP3    H226612   3.764   5.608   4.229 -0.1593 -1.1181 -0.1210
 1733TIP3   OH226613   0.419   3.376   2.749  0.2393  0.4105  0.0340
 1733TIP3    H126614   0.427   3.281   2.754  2.5981  0.4932 -0.8395
 1733TIP3    H226615   0.404   3.394   2.657 -0.7491  0.8804  0.2761
 1734TIP3   OH226616   0.064   0.630   1.091 -0.5466 -0.4321 -0.3456
 1734TIP3    H126617  -0.032   0.631   1.090 -0.5810 -1.8351 -0.5196
 1734TIP3    H226618   0.087   0.593   1.176 -0.2025 -1.7190 -0.9878
 1735TIP3   OH226619   0.236   2.865  15.076  0.3268 -0.0947 -0.0211
 1735TIP3    H126620   0.248   2.855  15.171  0.3290  1.3715  0.1624
 1735TIP3    H226621   0.184   2.945  15.067  2.1892  1.0679 -1.3176
 1736TIP3   OH226622   2.465   3.858   3.070  0.1624  0.1324 -0.0675
 1736TIP3    H126623   2.552   3.843   3.032 -0.0736  2.6122 -1.8246
 1736TIP3    H226624   2.423   3.919   3.010 -1.6253  1.4609  2.3541
 1737TIP3   OH226625   5.475   1.263  12.775 -0.0625  0.5483 -1.1086
 1737TIP3    H126626   5.534   1.339  12.781  0.8720 -0.2720  1.1255
 1737TIP3    H226627   5.390   1.298  12.802  0.1566  1.0011 -0.9858
 1738TIP3   OH226628   6.387   2.456   6.489  0.1979 -0.0187 -0.3371
 1738TIP3    H126629   6.432   2.506   6.558 -0.5810 -2.1668  1.8739
 1738TIP3    H226630   6.435   2.373   6.485 -0.6027 -0.4444 -1.4610
 1739TIP3   OH226631   0.423   0.036   0.165 -0.2562  0.1618  0.8542
 1739TIP3    H126632   0.421   0.026   0.260  2.0613 -0.3023  0.9344
 1739TIP3    H226633   0.507   0.081   0.148 -0.1563 -0.6427 -1.0123
 1740TIP3   OH226634   0.504   6.799   1.508 -0.4046  0.3275 -0.3628
 1740TIP3    H126635   0.517   6.879   1.458 -0.2784  0.0323 -0.8088
 1740TIP3    H226636   0.423   6.814   1.558  0.1122  1.0813  0.2643
 1741TIP3   OH226637   0.982   2.433  16.394  0.9460  0.0791 -0.0009
 1741TIP3    H126638   1.030   2.473  16.321 -0.1484  2.9167  0.7280
 1741TIP3    H226639   1.033   2.355  16.415  4.0515  1.7772 -0.6429
 1742TIP3   OH226640   2.188   6.165  12.740 -0.9616  0.3782 -0.3453
 1742TIP3    H126641   2.167   6.254  12.769 -1.9934 -0.2897  1.1099
 1742TIP3    H226642   2.283   6.159  12.749 -0.7440  1.6377 -1.4707
 1743TIP3   OH226643   3.148   6.278   2.341 -0.0388  0.0629  0.6439
 1743TIP3    H126644   3.206   6.316   2.275  0.4163 -0.6956  0.6005
 1743TIP3    H226645   3.206   6.253   2.413 -0.1459 -1.6136  0.1891
 1744TIP3   OH226646   4.022   3.455   0.161 -0.4874 -0.1215  0.1715
 1744TIP3    H126647   4.071   3.505   0.095 -1.7891  1.2291  0.1660
 1744TIP3    H226648   4.055   3.489   0.245  1.7148 -2.3699  0.3360
 1745TIP3   OH226649   6.080   4.836   5.228 -0.5413  0.7278 -0.5028
 1745TIP3    H126650   6.159   4.888   5.239  0.0056 -0.4604  2.1698
 1745TIP3    H226651   6.111   4.746   5.224 -1.6975  0.1684  1.3924
 1746TIP3   OH226652   2.639   2.058   0.567  0.4224  0.0621 -0.7034
 1746TIP3    H126653   2.685   1.977   0.545 -0.5354 -0.6402 -0.2135
 1746TIP3    H226654   2.707   2.117   0.599  1.3597 -0.0158 -2.4504
 1747TIP3   OH226655   6.585   6.798  11.597  0.5372  0.0112 -0.0856
 1747TIP3    H126656   6.605   6.882  11.639  0.9881 -0.1162 -0.0412
 1747TIP3    H226657   6.663   6.779  11.545  0.4042 -0.3447 -0.1506
 1748TIP3   OH226658   1.009   4.466   5.661 -0.1231 -0.1197 -1.2265
 1748TIP3    H126659   0.985   4.557   5.643 -2.7482 -0.6097 -0.6892
 1748TIP3    H226660   0.940   4.415   5.619 -0.6079 -1.6968  1.2838
 1749TIP3   OH226661   4.307   2.602  14.071 -0.0201 -0.4058 -0.4106
 1749TIP3    H126662   4.311   2.546  13.993 -1.1334  0.6166 -1.2234
 1749TIP3    H226663   4.232   2.658  14.057  0.3179  0.4421  0.9895
 1750TIP3   OH226664   4.128   6.121  12.292  0.0658 -0.3870 -0.4073
 1750TIP3    H126665   4.123   6.042  12.238  0.6513 -0.1872 -0.7742
 1750TIP3    H226666   4.221   6.129  12.314  0.8033  2.2232 -3.5661
 1751TIP3   OH226667   3.851   5.892   2.117 -0.4768 -0.0302 -0.1425
 1751TIP3    H126668   3.885   5.851   2.197  1.2396  0.2193 -0.6970
 1751TIP3    H226669   3.757   5.876   2.120 -0.6091  0.7716  2.3733
 1752TIP3   OH226670   2.586   6.086  11.498  0.2985 -0.5945 -0.2581
 1752TIP3    H126671   2.547   6.163  11.456 -0.7666 -0.9088  0.1078
 1752TIP3    H226672   2.680   6.103  11.496  0.0436  1.2557  0.8281
 1753TIP3   OH226673   3.219   2.951  15.433  0.3117 -0.4675  0.3709
 1753TIP3    H126674   3.204   2.942  15.527 -1.4442 -3.1717 -0.0654
 1753TIP3    H226675   3.176   3.033  15.409  0.2821 -0.0369  1.8264
 1754TIP3   OH226676   6.286   0.006  11.012 -0.1511 -0.2500  0.0699
 1754TIP3    H126677   6.255  -0.060  11.074  0.7934 -1.1124 -0.3515
 1754TIP3    H226678   6.252   0.089  11.046  0.7159 -0.6403  1.9968
 1755TIP3   OH226679   5.089   6.789  16.548  0.2615 -0.4116  0.4527
 1755TIP3    H126680   5.097   6.696  16.528 -1.6210 -0.6385  0.5757
 1755TIP3    H226681   5.017   6.819  16.493 -0.6566  0.4333  2.0619
 1756TIP3   OH226682   3.791   1.596   4.772  0.2508  0.3294 -0.1055
 1756TIP3    H126683   3.852   1.597   4.846  0.5084  1.6400 -0.3145
 1756TIP3    H226684   3.839   1.551   4.702  0.2831 -0.2595  0.2903
 1757TIP3   OH226685   2.532   0.279   3.550 -0.3436  0.9778 -0.1075
 1757TIP3    H126686   2.600   0.282   3.483  0.3991  0.3541  0.6072
 1757TIP3    H226687   2.509   0.371   3.564  2.5518  1.5282  1.8319
 1758TIP3   OH226688   0.138   6.001   6.464 -0.2870  0.3690  0.3980
 1758TIP3    H126689   0.139   5.958   6.379 -0.4500 -1.0071  1.0761
 1758TIP3    H226690   0.138   5.930   6.528 -1.3714  1.3519  1.5514
 1759TIP3   OH226691   6.605   4.010   4.953  0.1248  0.2116  0.2336
 1759TIP3    H126692   6.638   3.921   4.942 -0.0478 -0.2229  2.6497
 1759TIP3    H226693   6.678   4.066   4.926  0.5558 -0.6588 -0.4661
 1760TIP3   OH226694   3.708   4.072   0.704 -0.5239 -0.4784  0.6152
 1760TIP3    H126695   3.732   4.103   0.792  1.4936  2.7193 -0.8776
 1760TIP3    H226696   3.656   4.144   0.667 -0.7009 -1.4294 -1.0626
 1761TIP3   OH226697   0.877   4.285  14.170 -0.4690  0.4415  0.0903
 1761TIP3    H126698   0.972   4.300  14.171 -0.2045 -0.7821 -1.5567
 1761TIP3    H226699   0.848   4.318  14.085 -1.2625 -0.4731 -0.0193
 1762TIP3   OH226700   2.762   2.992   3.610 -0.0729 -0.3312 -0.9982
 1762TIP3    H126701   2.821   2.944   3.667 -0.5395  0.8043  0.4876
 1762TIP3    H226702   2.780   3.084   3.628 -0.5636  0.0572 -2.3462
 1763TIP3   OH226703   3.764   3.106  16.517 -0.5804 -0.1440  0.2896
 1763TIP3    H126704   3.813   3.043  16.570 -0.6143 -0.0373  0.4484
 1763TIP3    H226705   3.697   3.140  16.575  0.9904  1.9080  1.0203
 1764TIP3   OH226706   3.768   2.454   0.620  0.3621 -0.6474  0.6176
 1764TIP3    H126707   3.806   2.403   0.693  0.6072 -1.2066  0.1083
 1764TIP3    H226708   3.826   2.436   0.546 -0.3218 -0.6968  0.0857
 1765TIP3   OH226709   3.771   4.925  13.359  0.1161 -0.3124 -0.4292
 1765TIP3    H126710   3.789   4.851  13.301 -0.6852 -0.7866 -0.1023
 1765TIP3    H226711   3.842   4.987  13.343  0.5601 -0.9629 -1.0317
 1766TIP3   OH226712   2.207   2.091  15.996  0.5971  0.5567  0.0378
 1766TIP3    H126713   2.269   2.146  15.950 -2.1551  1.2328 -3.2946
 1766TIP3    H226714   2.158   2.151  16.052  0.4027  0.7737 -0.3576
 1767TIP3   OH226715   6.748   6.252  11.940  0.4520  0.6385  0.3318
 1767TIP3    H126716   6.713   6.249  11.851  1.6615  0.3242 -0.1627
 1767TIP3    H226717   6.840   6.276  11.927  0.8757 -0.3505  1.4370
 1768TIP3   OH226718   4.688   0.389  10.726 -0.4576 -0.8282 -0.0564
 1768TIP3    H126719   4.728   0.429  10.648  0.7385 -1.4016  0.2456
 1768TIP3    H226720   4.595   0.385  10.705 -0.1767 -0.8151 -1.3932
 1769TIP3   OH226721   0.165   4.845  16.681 -0.2748  0.1844  0.0682
 1769TIP3    H126722   0.186   4.768  16.734  1.0905  1.1906  1.0669
 1769TIP3    H226723   0.069   4.848  16.680 -0.3504 -0.2911  1.9105
 1770TIP3   OH226724   3.413   1.252   1.748 -0.2866  0.4765  0.5938
 1770TIP3    H126725   3.472   1.316   1.708  0.8937  0.4296  2.1935
 1770TIP3    H226726   3.469   1.176   1.766 -1.5920 -0.9311 -0.9806
 1771TIP3   OH226727   5.586   1.884  10.567 -0.0697 -0.1286  0.1416
 1771TIP3    H126728   5.499   1.924  10.558  0.2761  0.7565  0.5613
 1771TIP3    H226729   5.643   1.938  10.512  0.5374  0.4221  1.2705
 1772TIP3   OH226730   1.178   3.859  14.952 -0.5263 -0.0126  0.4767
 1772TIP3    H126731   1.106   3.815  14.907 -0.9973 -1.1118  2.2012
 1772TIP3    H226732   1.174   3.826  15.042  1.6845  0.4613  0.8097
 1773TIP3   OH226733   3.301   5.713  12.687 -0.0078  0.4125  0.3251
 1773TIP3    H126734   3.387   5.684  12.655 -0.6614 -1.5322  0.1949
 1773TIP3    H226735   3.241   5.693  12.615 -0.8884 -0.2941  1.2270
 1774TIP3   OH226736   1.284   4.731   2.091  0.6832  0.9306  1.0761
 1774TIP3    H126737   1.368   4.767   2.117  2.1942 -1.6761  0.1729
 1774TIP3    H226738   1.268   4.660   2.154  1.3782 -1.4242 -1.2633
 1775TIP3   OH226739   2.548   0.618  11.996 -0.0174  0.0760 -0.5974
 1775TIP3    H126740   2.620   0.558  11.980 -0.0948 -0.1297 -0.1882
 1775TIP3    H226741   2.574   0.667  12.074  0.0288  0.5483 -0.9027
 1776TIP3   OH226742   5.509   1.281  13.236 -0.2004  0.2418 -0.7134
 1776TIP3    H126743   5.575   1.330  13.286  0.1366 -1.9809  1.2018
 1776TIP3    H226744   5.516   1.315  13.147  0.2939  3.2875  0.3617
 1777TIP3   OH226745   1.345   5.496  16.986  0.0290  0.0865 -0.0405
 1777TIP3    H126746   1.284   5.568  16.971 -0.8924 -0.8755 -1.1076
 1777TIP3    H226747   1.337   5.441  16.908  1.6717 -0.5047  0.1610
 1778TIP3   OH226748   2.146   1.272  12.298  0.6420  0.1230  0.1475
 1778TIP3    H126749   2.130   1.306  12.210 -2.6575  3.3519  1.7405
 1778TIP3    H226750   2.061   1.277  12.342  2.0967 -1.5103  3.5156
 1779TIP3   OH226751   0.690   4.124  13.408 -0.1300 -0.7455 -0.5025
 1779TIP3    H126752   0.762   4.102  13.350  0.9828  0.8759  0.1770
 1779TIP3    H226753   0.611   4.104  13.358  0.7900  0.4295 -2.5369
 1780TIP3   OH226754   3.998   3.485   5.901 -0.5899  0.2271 -0.4881
 1780TIP3    H126755   3.973   3.496   5.992 -0.7357  1.4082 -0.6604
 1780TIP3    H226756   4.089   3.455   5.905 -0.8716 -0.5975  0.0494
 1781TIP3   OH226757   1.940   5.200  14.032 -0.1601 -0.5082  0.4404
 1781TIP3    H126758   1.877   5.225  13.964  0.0237 -2.0552 -0.3418
 1781TIP3    H226759   2.001   5.274  14.037 -2.0234  1.0869  1.2816
 1782TIP3   OH226760   0.028   2.756  11.818  0.0925 -0.4936 -0.5128
 1782TIP3    H126761  -0.054   2.707  11.826 -0.2248  0.2027  0.7114
 1782TIP3    H226762   0.094   2.688  11.805 -0.4506 -1.1877  0.2370
 1783TIP3   OH226763   2.902   6.160   2.451  0.6734  0.2501 -0.5920
 1783TIP3    H126764   2.998   6.167   2.448  0.9303 -0.6412  2.5154
 1783TIP3    H226765   2.885   6.066   2.457 -0.1471  0.4798  1.7821
 1784TIP3   OH226766   6.498   2.267   0.234 -0.2893 -0.4739 -0.3756
 1784TIP3    H126767   6.519   2.285   0.142 -0.8555 -1.2439 -0.6687
 1784TIP3    H226768   6.415   2.312   0.249  0.2466  0.3947  0.0247
 1785TIP3   OH226769   1.908   6.123  13.980 -0.6735  0.7977  0.0507
 1785TIP3    H126770   1.908   6.047  13.922 -1.2359 -0.3532  1.5163
 1785TIP3    H226771   1.881   6.196  13.924 -1.4325 -0.3226 -1.0824
 1786TIP3   OH226772   5.018   5.761   4.046 -0.3814  0.3786 -0.3177
 1786TIP3    H126773   5.070   5.769   4.126 -0.3054 -0.9555 -0.2032
 1786TIP3    H226774   4.930   5.740   4.078 -0.5421  0.6889 -0.5616
 1787TIP3   OH226775   6.514   6.402   1.964 -0.0961 -0.4942 -0.7094
 1787TIP3    H126776   6.469   6.482   1.939 -1.1932 -1.0973 -0.7413
 1787TIP3    H226777   6.603   6.413   1.933  0.1572  1.3027  0.5331
 1788TIP3   OH226778   6.633   5.886  16.306  0.4126 -0.1717 -0.1189
 1788TIP3    H126779   6.687   5.836  16.244  0.5790 -0.8117  0.5311
 1788TIP3    H226780   6.691   5.902  16.380  0.1934  0.5322 -0.1006
 1789TIP3   OH226781   3.431   6.124   5.223 -0.3006  0.5042 -0.0140
 1789TIP3    H126782   3.366   6.136   5.292 -0.2769 -1.2442  0.3650
 1789TIP3    H226783   3.421   6.201   5.167 -0.4035  1.9203  1.8435
 1790TIP3   OH226784   0.817   4.714   2.698  0.1931  0.1521 -0.6335
 1790TIP3    H126785   0.897   4.763   2.680  1.6004 -2.0728 -0.7650
 1790TIP3    H226786   0.809   4.653   2.625 -0.6262 -0.8547  0.2678
 1791TIP3   OH226787   6.288   0.134   5.085  0.4838  0.3486 -0.1765
 1791TIP3    H126788   6.240   0.054   5.064  0.1891 -0.2086  2.2624
 1791TIP3    H226789   6.220   0.197   5.109  0.8253  0.3253  0.9088
 1792TIP3   OH226790   5.777   4.350   1.281  0.3328  0.8787  0.7079
 1792TIP3    H126791   5.871   4.335   1.280 -0.0839 -2.2270 -0.9841
 1792TIP3    H226792   5.769   4.446   1.285  3.5177  1.2905  0.1046
 1793TIP3   OH226793   6.493   4.558  16.727  0.2884  0.8736 -0.6728
 1793TIP3    H126794   6.415   4.611  16.742  0.9337  1.4447  0.9416
 1793TIP3    H226795   6.560   4.621  16.700  0.3782  0.4884 -1.3687
 1794TIP3   OH226796   5.736   2.993   1.589  0.1036  0.4863  0.1569
 1794TIP3    H126797   5.698   2.940   1.519  0.3359  1.7488 -0.9582
 1794TIP3    H226798   5.671   2.993   1.658  0.0991 -1.2384  0.1859
 1795TIP3   OH226799   6.251   4.193  13.074  0.2664  0.9783 -0.3201
 1795TIP3    H126800   6.199   4.126  13.119  0.5326  0.2760 -1.0443
 1795TIP3    H226801   6.332   4.197  13.124  0.1742  0.8990 -0.1618
 1796TIP3   OH226802   0.343   5.166  11.481 -0.7166  0.2453 -0.5512
 1796TIP3    H126803   0.403   5.113  11.428 -0.8693 -0.3586 -0.1240
 1796TIP3    H226804   0.257   5.125  11.470 -0.4522 -1.0596  1.6290
 1797TIP3   OH226805   4.797   3.518  14.884 -0.2124  0.5374 -0.5503
 1797TIP3    H126806   4.890   3.509  14.904 -0.7416 -0.1037  1.9466
 1797TIP3    H226807   4.787   3.610  14.859  0.7659  1.2335  1.4042
 1798TIP3   OH226808   0.346   3.790  14.330  0.1512  0.1798 -0.0641
 1798TIP3    H126809   0.262   3.751  14.305 -0.0721  1.3814 -1.2665
 1798TIP3    H226810   0.343   3.793  14.426 -1.2886  0.4416 -0.0991
 1799TIP3   OH226811   1.424   2.043   2.579 -0.5765  0.5864  0.1223
 1799TIP3    H126812   1.500   2.042   2.520  0.1155  2.4456  0.9089
 1799TIP3    H226813   1.382   2.127   2.561 -0.9822  0.6888  1.5053
 1800TIP3   OH226814   0.595   0.407  16.478  0.0419  0.1286  0.3259
 1800TIP3    H126815   0.532   0.368  16.539 -1.7733 -0.2064 -1.6231
 1800TIP3    H226816   0.541   0.441  16.407  1.9483  1.9087 -0.3780
 1801TIP3   OH226817   0.334   5.413  15.127  0.2572  0.4413  0.5667
 1801TIP3    H126818   0.359   5.471  15.055 -0.1292  0.6780  0.6225
 1801TIP3    H226819   0.333   5.326  15.087  1.6858  0.3468  0.6937
 1802TIP3   OH226820   4.118   0.763   4.607  0.0076 -0.4259  0.0858
 1802TIP3    H126821   4.205   0.802   4.617 -0.2193  0.5988 -1.5032
 1802TIP3    H226822   4.135   0.672   4.582  0.6459 -0.2149 -0.2856
 1803TIP3   OH226823   6.772   2.546   2.473 -0.1295 -0.1839  0.7210
 1803TIP3    H126824   6.685   2.505   2.471 -0.7508  1.0553 -2.4282
 1803TIP3    H226825   6.827   2.490   2.418  0.9024 -0.4993  2.0177
 1804TIP3   OH226826   3.760   5.762   5.296 -0.2102 -0.0609 -0.3940
 1804TIP3    H126827   3.793   5.833   5.241 -1.2129  0.8138  0.0703
 1804TIP3    H226828   3.680   5.733   5.252  0.3748 -1.1599 -0.7583
 1805TIP3   OH226829   0.056   3.079  12.708 -0.2520 -0.4024 -0.0430
 1805TIP3    H126830  -0.030   3.107  12.677 -0.1222  0.5461  0.4377
 1805TIP3    H226831   0.090   3.024  12.637 -1.1719 -0.6536 -0.3099
 1806TIP3   OH226832   0.262   5.106  16.589 -0.5069  0.2676 -0.2377
 1806TIP3    H126833   0.245   5.018  16.623  1.1650  0.4762  1.2982
 1806TIP3    H226834   0.289   5.092  16.499 -2.8947 -0.5114 -0.9095
 1807TIP3   OH226835   5.907   1.450   1.624 -0.2579 -0.2741  0.3514
 1807TIP3    H126836   5.867   1.512   1.684 -1.1354  0.7127 -1.1787
 1807TIP3    H226837   5.969   1.503   1.573 -0.6548 -0.7311 -0.6412
 1808TIP3   OH226838   0.399   6.359  14.842 -0.1483 -0.5849  0.4887
 1808TIP3    H126839   0.362   6.413  14.773  0.7131  0.1562  0.5977
 1808TIP3    H226840   0.435   6.283  14.796  0.4992 -0.0535  0.0988
 1809TIP3   OH226841   1.961   2.760  15.292 -0.6457 -0.1744 -0.2543
 1809TIP3    H126842   2.040   2.707  15.300 -0.0598  0.3477 -2.0844
 1809TIP3    H226843   1.983   2.843  15.334 -1.1111 -0.8735  1.4390
 1810TIP3   OH226844   6.545   3.473  14.631 -0.3863  0.3537  0.1450
 1810TIP3    H126845   6.612   3.409  14.608 -1.0863 -0.6179  0.6942
 1810TIP3    H226846   6.590   3.537  14.687  0.1531 -0.1061  0.2419
 1811TIP3   OH226847   5.602   1.121   3.152 -0.4675  0.5181 -0.4796
 1811TIP3    H126848   5.616   1.104   3.059  0.1892 -0.5826 -0.2070
 1811TIP3    H226849   5.570   1.211   3.156  0.2901  0.8652 -1.7039
 1812TIP3   OH226850   1.132   2.472   2.380 -0.7026 -0.1943 -0.4740
 1812TIP3    H126851   1.173   2.404   2.327 -1.2969  0.1138 -1.3556
 1812TIP3    H226852   1.172   2.553   2.351 -1.7810  0.0940 -1.2380
 1813TIP3   OH226853   1.617   5.430  11.817 -0.6430 -0.1922  0.4158
 1813TIP3    H126854   1.550   5.473  11.870 -1.3732 -0.2287 -0.4414
 1813TIP3    H226855   1.576   5.420  11.731  0.9475  1.0612 -0.5521
 1814TIP3   OH226856   5.259   1.908  13.579  0.6106  0.4442 -1.0519
 1814TIP3    H126857   5.329   1.905  13.645 -0.0004 -0.6872 -0.4385
 1814TIP3    H226858   5.303   1.884  13.497  1.0529  0.3022 -0.7777
 1815TIP3   OH226859   0.886   3.211  13.578  0.3845 -0.3291 -0.3828
 1815TIP3    H126860   0.793   3.201  13.556  0.4504  1.6423 -1.9338
 1815TIP3    H226861   0.929   3.138  13.534 -0.1395  0.5011 -2.3899
 1816TIP3   OH226862   3.560   2.679  13.415 -0.8403  0.0491 -0.5845
 1816TIP3    H126863   3.654   2.693  13.412 -0.6093 -0.9051  0.9899
 1816TIP3    H226864   3.524   2.765  13.439 -0.0227 -0.3165  2.3230
 1817TIP3   OH226865   0.682   2.904   1.541  0.2470 -0.0249 -0.0275
 1817TIP3    H126866   0.588   2.893   1.554  0.2636  1.5959  1.9607
 1817TIP3    H226867   0.690   2.984   1.488  0.4627  1.7306  2.4462
 1818TIP3   OH226868   2.453   3.416  16.220 -0.3347  0.3169 -0.2620
 1818TIP3    H126869   2.524   3.432  16.283 -0.2006 -0.4684 -0.1983
 1818TIP3    H226870   2.457   3.489  16.159  2.1568 -0.9237 -1.7498
 1819TIP3   OH226871   4.303   4.522  15.133  0.8658  0.3036 -0.0308
 1819TIP3    H126872   4.275   4.546  15.045 -0.8799 -0.1743  0.3531
 1819TIP3    H226873   4.347   4.439  15.123  0.2505  0.0164 -0.4139
 1820TIP3   OH226874   1.256   3.676  13.315  0.5575  0.0314 -1.1916
 1820TIP3    H126875   1.186   3.696  13.377  0.2198 -0.3295 -1.4546
 1820TIP3    H226876   1.215   3.684  13.229  0.8585 -0.1032 -1.3509
 1821TIP3   OH226877   2.465   2.392  13.799  0.4295  0.4710 -0.2554
 1821TIP3    H126878   2.476   2.466  13.859  0.3475 -0.0170  0.3709
 1821TIP3    H226879   2.376   2.362  13.814  0.7038 -0.2145  0.0201
 1822TIP3   OH226880   3.254   1.498  13.913 -0.4537 -0.1019  0.1370
 1822TIP3    H126881   3.164   1.530  13.923 -0.7754 -0.6778 -0.7789
 1822TIP3    H226882   3.244   1.412  13.871  0.4764 -0.6142  0.9381
 1823TIP3   OH226883   0.616   2.202  15.118  0.1617 -0.1112 -1.2039
 1823TIP3    H126884   0.602   2.112  15.088 -0.4073  0.9053 -4.4312
 1823TIP3    H226885   0.690   2.234  15.066 -0.9165  1.8595 -1.6507
 1824TIP3   OH226886   0.823   0.644  13.928  0.6006  0.0411 -0.1340
 1824TIP3    H126887   0.771   0.724  13.922  0.4365  0.0248  0.8456
 1824TIP3    H226888   0.803   0.596  13.847 -0.0662  0.5338 -0.2695
 1825TIP3   OH226889   3.242   5.565  15.943 -0.7509 -0.5787  0.1928
 1825TIP3    H126890   3.195   5.607  16.014  0.5332  0.0707  0.6943
 1825TIP3    H226891   3.240   5.628  15.871 -1.6027 -1.0201 -0.1787
 1826TIP3   OH226892   4.221   2.246   6.216  0.7935 -0.1035 -0.8921
 1826TIP3    H126893   4.176   2.277   6.138  0.0492  0.8194 -0.1210
 1826TIP3    H226894   4.165   2.176   6.250 -0.0833  1.0050  0.0342
 1827TIP3   OH226895   1.877   3.379  12.212  0.0457 -0.1809 -0.2722
 1827TIP3    H126896   1.794   3.424  12.230  0.8315  1.9501 -1.6324
 1827TIP3    H226897   1.924   3.381  12.296 -0.8457 -0.5319  0.2540
 1828TIP3   OH226898   4.436   6.182  12.238 -0.3553 -0.2425 -0.1350
 1828TIP3    H126899   4.453   6.146  12.150  1.8917 -0.9752  0.5322
 1828TIP3    H226900   4.431   6.276  12.224 -0.2923 -0.3700 -1.1066
 1829TIP3   OH226901   3.089   0.793   5.758  0.7216  0.0496  0.1283
 1829TIP3    H126902   3.135   0.709   5.765  0.4088 -0.0605  1.0522
 1829TIP3    H226903   3.132   0.849   5.822  1.4749  0.8786 -1.0630
 1830TIP3   OH226904   3.581   2.623   3.820 -0.0399  0.2548 -0.2323
 1830TIP3    H126905   3.504   2.586   3.778 -0.4202  1.0312 -0.2334
 1830TIP3    H226906   3.598   2.565   3.895 -0.2661 -0.2511 -0.5698
 1831TIP3   OH226907   6.038   5.330   3.233  0.0570 -0.0321 -0.0443
 1831TIP3    H126908   6.010   5.421   3.222  0.4647  0.0682 -0.2852
 1831TIP3    H226909   6.008   5.286   3.153  0.1896 -0.0248 -0.0982
 1832TIP3   OH226910   0.981   5.777  16.789  0.1472 -0.1274 -0.4761
 1832TIP3    H126911   0.890   5.773  16.819  0.3309  0.8596  0.2457
 1832TIP3    H226912   0.984   5.853  16.731  0.8355  0.7580  0.6822
 1833TIP3   OH226913   6.071   2.202   3.626  0.6327  0.0738 -0.0422
 1833TIP3    H126914   6.135   2.206   3.697  0.9042 -0.2936 -0.2640
 1833TIP3    H226915   6.079   2.287   3.582 -0.0460  0.5916  0.7965
 1834TIP3   OH226916   3.885   5.049  10.470  0.3209 -0.0976  0.0630
 1834TIP3    H126917   3.839   4.967  10.452 -0.4831  0.0966  1.1623
 1834TIP3    H226918   3.848   5.112  10.409  0.3358 -0.3481 -0.2050
 1835TIP3   OH226919   5.336   2.018  11.956  0.0014 -0.0133 -0.1832
 1835TIP3    H126920   5.255   2.064  11.939  0.1781 -0.0552 -1.1541
 1835TIP3    H226921   5.310   1.944  12.011 -0.5835  0.0881 -0.3187
 1836TIP3   OH226922   3.915   2.187  16.019 -0.4631 -0.4217  0.0951
 1836TIP3    H126923   4.009   2.174  16.016 -0.3931  0.1878 -1.6322
 1836TIP3    H226924   3.890   2.164  16.109  1.1702 -1.5131  0.3094
 1837TIP3   OH226925   1.078   0.611  15.180 -0.1245  0.4806  0.4377
 1837TIP3    H126926   1.013   0.619  15.110 -1.3492  0.5969  1.5300
 1837TIP3    H226927   1.045   0.539  15.234  0.7573  0.4378  0.9325
 1838TIP3   OH226928   4.253   2.407  11.432  0.8569 -0.1309 -0.8265
 1838TIP3    H126929   4.331   2.452  11.401 -0.3172  0.2794 -3.4230
 1838TIP3    H226930   4.197   2.477  11.466 -0.0086  0.1463 -2.7240
 1839TIP3   OH226931   4.941   4.234   0.058  0.1391  0.4420 -0.3350
 1839TIP3    H126932   4.861   4.281   0.081 -0.4402 -0.3069 -0.7619
 1839TIP3    H226933   5.011   4.299   0.067 -0.3101  0.7429  1.4471
 1840TIP3   OH226934   0.229   1.489  12.144  0.6761  0.1255 -0.0793
 1840TIP3    H126935   0.171   1.427  12.188  0.3036  1.1524  0.9356
 1840TIP3    H226936   0.170   1.553  12.104  1.0387 -0.3583 -1.4724
 1841TIP3   OH226937   0.689   2.526  11.790  0.0917  0.1014  0.0493
 1841TIP3    H126938   0.696   2.579  11.711  0.5728 -1.4423 -0.9717
 1841TIP3    H226939   0.779   2.505  11.814 -0.1108 -0.9392 -0.0478
 1842TIP3   OH226940   3.934   0.274  11.248 -0.2182 -0.3021 -1.1482
 1842TIP3    H126941   3.870   0.345  11.248  1.3003  1.2340  1.7373
 1842TIP3    H226942   4.002   0.303  11.186  0.7978  1.2719  0.6120
 1843TIP3   OH226943   6.288   0.281  12.601 -0.6699  0.0983 -0.5068
 1843TIP3    H126944   6.343   0.214  12.560 -0.1388  0.1212  0.1450
 1843TIP3    H226945   6.274   0.249  12.690 -1.8813  0.0039 -0.7180
 1844TIP3   OH226946   1.702   4.314   5.506  0.1472  0.1905 -0.8196
 1844TIP3    H126947   1.659   4.316   5.592  0.5787  0.5571 -0.6062
 1844TIP3    H226948   1.673   4.394   5.463 -0.1210 -0.0266 -1.0429
 1845TIP3   OH226949   6.039   3.849   6.512  0.2444 -1.0182 -0.1968
 1845TIP3    H126950   6.029   3.803   6.429  1.2147 -0.8976 -0.3853
 1845TIP3    H226951   6.035   3.942   6.489 -0.9374 -0.9786  0.0880
 1846TIP3   OH226952   5.320   6.051   5.051  0.5386  0.1895  0.4820
 1846TIP3    H126953   5.361   6.120   5.102  1.1650 -0.0716  0.3464
 1846TIP3    H226954   5.298   6.093   4.967 -2.9106  1.3519  1.8098
 1847TIP3   OH226955   3.235   0.241  13.584 -0.8575 -0.1893  0.4507
 1847TIP3    H126956   3.178   0.186  13.638 -0.6288 -0.8068  0.0779
 1847TIP3    H226957   3.174   0.293  13.531 -1.1456 -2.3425 -1.4738
 1848TIP3   OH226958   5.553   5.780  14.906  0.0562 -0.4671 -0.7242
 1848TIP3    H126959   5.475   5.792  14.853 -1.6675 -0.6349  1.6024
 1848TIP3    H226960   5.583   5.692  14.885  0.2967 -0.0168 -2.4152
 1849TIP3   OH226961   4.182   2.941   4.500  0.7215 -0.2855  0.2953
 1849TIP3    H126962   4.135   2.963   4.581 -0.0765  1.8200 -0.6568
 1849TIP3    H226963   4.118   2.892   4.449 -0.2085  1.7376 -0.5957
 1850TIP3   OH226964   5.943   5.226  16.515 -0.0783 -0.5632 -0.2497
 1850TIP3    H126965   5.886   5.300  16.494  0.8922  0.6204  1.0976
 1850TIP3    H226966   5.884   5.151  16.521 -1.5017  0.6115  1.0462
 1851TIP3   OH226967   5.188   0.139  17.025  0.5126  0.3647  0.1124
 1851TIP3    H126968   5.250   0.067  17.039  0.1757 -0.0937 -0.6747
 1851TIP3    H226969   5.166   0.134  16.932 -0.3214  0.8270  0.2733
 1852TIP3   OH226970   6.478   6.271   2.598  0.3151  0.0135  0.3706
 1852TIP3    H126971   6.387   6.244   2.585  0.4517  0.3500 -1.5994
 1852TIP3    H226972   6.494   6.336   2.529  2.4906 -1.1610 -0.3179
 1853TIP3   OH226973   4.745   0.775  12.925 -0.3519 -0.0129  0.0767
 1853TIP3    H126974   4.792   0.787  13.007  1.5573  1.2530 -1.1406
 1853TIP3    H226975   4.692   0.854  12.916 -1.0168 -0.4154  0.3412
 1854TIP3   OH226976   1.023   3.530  11.088  1.1044 -0.3873  0.8924
 1854TIP3    H126977   0.971   3.466  11.138  0.1752  0.7863  1.4749
 1854TIP3    H226978   1.067   3.582  11.155  0.7110  0.5037  0.4752
 1855TIP3   OH226979   5.002   2.612   4.943 -0.2965 -0.0831  0.5794
 1855TIP3    H126980   5.079   2.649   4.986  0.0134  0.2545 -0.2505
 1855TIP3    H226981   4.942   2.686   4.931 -0.5604 -0.2557  0.7963
 1856TIP3   OH226982   3.190   4.485  12.896  0.4242 -0.2220 -0.1957
 1856TIP3    H126983   3.271   4.534  12.898  0.1389  0.3203 -1.3681
 1856TIP3    H226984   3.185   4.449  12.808  0.3790 -1.9548  0.4730
 1857TIP3   OH226985   0.518   1.539  12.169 -0.2637 -0.2044  0.0526
 1857TIP3    H126986   0.425   1.558  12.159 -0.8243 -0.9001  3.1045
 1857TIP3    H226987   0.529   1.455  12.125 -0.8908  0.1982 -0.9245
 1858TIP3   OH226988   0.195   4.843  12.668  0.1277 -0.1413 -0.0589
 1858TIP3    H126989   0.214   4.758  12.708 -0.5889 -0.5294 -0.5307
 1858TIP3    H226990   0.168   4.822  12.578  1.7792  0.7096 -0.8010
 1859TIP3   OH226991   2.906   5.369  11.342  0.2153 -0.1500 -0.7270
 1859TIP3    H126992   2.966   5.397  11.411  0.2319 -1.0125 -0.3796
 1859TIP3    H226993   2.901   5.274  11.351 -1.4844 -0.0665 -0.5284
 1860TIP3   OH226994   5.547   1.918   1.855  0.3285 -0.0930 -0.1162
 1860TIP3    H126995   5.516   1.828   1.866 -1.4864  0.7240  2.2757
 1860TIP3    H226996   5.560   1.928   1.761 -1.7684 -2.1445 -0.7075
 1861TIP3   OH226997   1.818   5.577   4.228  0.7968  1.0277  0.1111
 1861TIP3    H126998   1.754   5.647   4.240  0.5169  0.9122 -0.6988
 1861TIP3    H226999   1.819   5.531   4.312 -1.9530 -0.4757 -0.5609
 1862TIP3   OH227000   6.063   3.148  11.145  0.3394  0.7973 -0.3288
 1862TIP3    H127001   6.086   3.087  11.074 -0.6697  0.2076 -0.1595
 1862TIP3    H227002   6.138   3.145  11.204  2.2895  3.0437 -2.4419
 1863TIP3   OH227003   4.701   6.657  13.741 -0.1959  0.4166  0.7806
 1863TIP3    H127004   4.642   6.666  13.665 -0.4314  0.5763  0.9805
 1863TIP3    H227005   4.788   6.650  13.702 -0.0781  2.5392  0.5406
 1864TIP3   OH227006   6.324   0.584  17.007 -0.4798 -0.1966  0.7525
 1864TIP3    H127007   6.241   0.594  17.054 -0.9795  1.6777 -0.4406
 1864TIP3    H227008   6.389   0.628  17.063 -0.7788  0.6261  0.4607
 1865TIP3   OH227009   3.292   0.850  11.628 -0.0521  0.7140 -0.2820
 1865TIP3    H127010   3.231   0.886  11.692  0.5108 -2.1236  2.0180
 1865TIP3    H227011   3.365   0.816  11.679  1.1937 -0.3096 -2.5557
 1866TIP3   OH227012   6.538   4.731  11.014 -0.2433  0.0539  0.2775
 1866TIP3    H127013   6.518   4.652  11.063 -1.9748 -0.0133 -0.4633
 1866TIP3    H227014   6.575   4.700  10.931  1.5909  0.1381  1.0125
 1867TIP3   OH227015   3.265   6.185   1.092 -0.0590 -0.3278  0.3592
 1867TIP3    H127016   3.258   6.188   1.187  0.5486 -0.9187  0.4396
 1867TIP3    H227017   3.355   6.211   1.074  0.1532 -1.2344  0.0318
 1868TIP3   OH227018   6.152   4.551   6.074  0.5181 -0.0986  0.5261
 1868TIP3    H127019   6.237   4.529   6.037 -0.1422 -1.4618 -0.2305
 1868TIP3    H227020   6.092   4.485   6.040 -1.1408  1.5868 -0.0409
 1869TIP3   OH227021   1.321   2.017  14.835  0.6878 -0.1403  0.0337
 1869TIP3    H127022   1.229   2.040  14.821  0.7471 -0.8568 -1.7873
 1869TIP3    H227023   1.321   1.921  14.836  1.3256 -0.1387  0.7840
 1870TIP3   OH227024   3.590   3.417  13.678  0.4460  0.3360 -0.0466
 1870TIP3    H127025   3.587   3.333  13.632 -0.7504 -0.7536  1.9199
 1870TIP3    H227026   3.533   3.474  13.627 -0.1144 -0.5625 -0.4474
 1871TIP3   OH227027   3.452   1.282  15.472 -0.2361 -0.4115  0.1018
 1871TIP3    H127028   3.503   1.326  15.404  0.5711 -1.3575  0.0774
 1871TIP3    H227029   3.410   1.354  15.520  2.2120  0.5388  1.0005
 1872TIP3   OH227030   2.907   3.084  13.213  0.0194  0.0113 -0.3104
 1872TIP3    H127031   2.827   3.050  13.173 -0.4364 -1.1051  1.4625
 1872TIP3    H227032   2.896   3.179  13.212 -0.2402  0.0109 -2.1972
 1873TIP3   OH227033   2.985   2.867  13.027 -0.4329  0.7503 -0.7501
 1873TIP3    H127034   3.013   2.790  13.075  0.5020  1.0555 -0.7823
 1873TIP3    H227035   2.948   2.925  13.094  0.4770  0.9957 -0.4350
 1874TIP3   OH227036   4.434   6.780  11.193  0.1011  0.2672  0.1627
 1874TIP3    H127037   4.458   6.699  11.237 -0.7163 -0.4928 -0.7385
 1874TIP3    H227038   4.517   6.828  11.182  1.0798 -1.6906 -1.7251
 1875TIP3   OH227039   4.883   3.651   3.789 -0.5806 -0.2088  0.2219
 1875TIP3    H127040   4.883   3.568   3.837 -0.5367  0.6921  1.8550
 1875TIP3    H227041   4.819   3.705   3.835  0.6382  1.2617  0.2592
 1876TIP3   OH227042   6.306   0.693   5.602 -0.4072  0.0103  0.2473
 1876TIP3    H127043   6.259   0.766   5.561  2.0052  1.5683  0.0039
 1876TIP3    H227044   6.286   0.617   5.548  1.2203  1.6340 -2.9335
 1877TIP3   OH227045   6.025   1.082   0.627 -0.2391  0.2634 -0.3451
 1877TIP3    H127046   5.956   1.131   0.583  0.3150  2.0140  0.6240
 1877TIP3    H227047   6.100   1.142   0.629  0.8093 -1.0062  0.0027
 1878TIP3   OH227048   1.279   4.386   2.929 -0.5315 -0.3045 -0.0669
 1878TIP3    H127049   1.312   4.474   2.948 -1.9244  0.1021  0.5853
 1878TIP3    H227050   1.349   4.328   2.955  0.8756  0.6302 -1.5394
 1879TIP3   OH227051   5.474   4.273   3.813  0.1005  0.3117  0.2135
 1879TIP3    H127052   5.550   4.287   3.869 -0.3077  1.2592  0.5537
 1879TIP3    H227053   5.508   4.224   3.738  1.0876  0.9066  0.2546
 1880TIP3   OH227054   3.484   2.390  13.640  0.3607 -0.2729 -0.1702
 1880TIP3    H127055   3.412   2.346  13.597  0.2510 -2.1023  1.7330
 1880TIP3    H227056   3.539   2.320  13.674  1.8122  1.0749  0.4264
 1881TIP3   OH227057   0.255   4.219   4.981  0.3088 -0.0966 -0.0491
 1881TIP3    H127058   0.348   4.197   4.974 -0.0837 -1.7659 -0.3115
 1881TIP3    H227059   0.252   4.292   5.042  1.9780  1.4338 -1.6624
 1882TIP3   OH227060   4.848   6.261   4.194  0.6497 -0.4441  0.4180
 1882TIP3    H127061   4.908   6.232   4.263 -0.0112 -3.5931 -0.2008
 1882TIP3    H227062   4.761   6.250   4.232  0.3351 -0.3833 -0.2759
 1883TIP3   OH227063   3.942   4.902  14.888  0.0492  0.1996 -0.0487
 1883TIP3    H127064   3.944   4.997  14.879  0.1701  0.3588  1.3522
 1883TIP3    H227065   3.914   4.887  14.979 -1.6121 -1.1366 -0.7282
 1884TIP3   OH227066   3.158   6.364   0.721 -0.4593 -0.4215 -0.2198
 1884TIP3    H127067   3.096   6.393   0.654  0.3028  1.4361 -0.2036
 1884TIP3    H227068   3.236   6.338   0.671 -1.0970 -2.4384 -0.2230
 1885TIP3   OH227069   2.183   4.229   4.385 -0.0738 -0.2285 -0.3550
 1885TIP3    H127070   2.101   4.259   4.424 -0.1032 -1.1403  0.3181
 1885TIP3    H227071   2.238   4.307   4.382 -0.1369 -0.0669  1.3612
 1886TIP3   OH227072   5.649   5.163   0.259  0.7401 -0.1683  0.5103
 1886TIP3    H127073   5.720   5.138   0.318 -0.8250 -0.2979  2.4158
 1886TIP3    H227074   5.574   5.111   0.287 -0.7362  1.5798  0.0326
 1887TIP3   OH227075   3.249   5.805   3.165  0.0185  0.1366 -0.8918
 1887TIP3    H127076   3.159   5.828   3.145  0.1422  0.1189 -1.4824
 1887TIP3    H227077   3.281   5.762   3.086  0.4851 -0.0366 -0.6155
 1888TIP3   OH227078   1.274   6.628   4.120 -0.4049  0.3405 -0.3643
 1888TIP3    H127079   1.282   6.559   4.186 -0.0498  0.0724 -0.6833
 1888TIP3    H227080   1.363   6.639   4.086 -0.8739 -0.8390 -2.1229
 1889TIP3   OH227081   1.444   6.645  13.473  0.1853  0.2190 -0.1290
 1889TIP3    H127082   1.524   6.697  13.478  0.3235  0.0586 -0.6312
 1889TIP3    H227083   1.450   6.585  13.548  1.7983 -1.5615 -1.5852
 1890TIP3   OH227084   1.698   1.532  12.193 -0.1286 -0.1673 -0.2043
 1890TIP3    H127085   1.616   1.484  12.209 -1.6936  2.3856 -0.1508
 1890TIP3    H227086   1.714   1.521  12.100 -0.9235 -0.0909 -0.3562
 1891TIP3   OH227087   3.784   3.597  12.873  0.2204  0.7686  0.5317
 1891TIP3    H127088   3.782   3.622  12.781 -0.3134  0.1693  0.3717
 1891TIP3    H227089   3.750   3.673  12.919  0.1026  0.9243  0.1931
 1892TIP3   OH227090   2.831   0.965  16.462  0.5400 -0.0647 -0.1518
 1892TIP3    H127091   2.794   0.990  16.547 -0.1119  0.4873 -0.5896
 1892TIP3    H227092   2.922   0.942  16.482  0.2349 -0.5217  0.7901
 1893TIP3   OH227093   0.863   1.034   2.596 -1.1289  0.0903 -0.6481
 1893TIP3    H127094   0.813   1.100   2.548 -2.3822  0.3510  0.9247
 1893TIP3    H227095   0.841   1.050   2.688 -1.6208 -2.5919 -0.2157
 1894TIP3   OH227096   1.934   5.841   5.691 -0.2921  0.0157 -0.2765
 1894TIP3    H127097   1.860   5.823   5.633  0.2184 -0.1801 -0.8760
 1894TIP3    H227098   1.933   5.770   5.755 -2.3294  1.5088  1.5054
 1895TIP3   OH227099   3.318   6.403  12.988 -0.3220 -0.4983 -1.1028
 1895TIP3    H127100   3.342   6.316  13.018  2.1237 -0.3233 -2.2524
 1895TIP3    H227101   3.361   6.462  13.050  1.1431 -0.1633 -2.3664
 1896TIP3   OH227102   3.521   4.348  12.764  0.4674 -0.6254 -0.4302
 1896TIP3    H127103   3.499   4.439  12.742  0.5835 -0.7585 -1.1354
 1896TIP3    H227104   3.481   4.296  12.694  1.6409 -0.9917 -0.8634
 1897TIP3   OH227105   0.461   1.954  12.588 -0.8575  0.0334  0.1067
 1897TIP3    H127106   0.467   1.916  12.675  1.0705 -2.5047 -0.9832
 1897TIP3    H227107   0.529   2.021  12.586  0.9906 -1.7517 -0.1697
 1898TIP3   OH227108   0.755   4.470   3.453 -0.0156  0.0687 -0.2326
 1898TIP3    H127109   0.745   4.551   3.504 -1.7412  0.0356 -0.4707
 1898TIP3    H227110   0.716   4.490   3.368 -1.9132 -1.4695  0.2175
 1899TIP3   OH227111   4.539   3.648  16.105  0.8113 -0.0023  0.2773
 1899TIP3    H127112   4.570   3.630  16.194  0.9996 -1.1794 -0.0049
 1899TIP3    H227113   4.592   3.722  16.076 -0.2846  1.3718  1.6627
 1900TIP3   OH227114   4.773   2.131  13.345 -0.1052  0.0693 -0.4709
 1900TIP3    H127115   4.836   2.171  13.285 -1.1977  0.2514 -1.5427
 1900TIP3    H227116   4.826   2.090  13.412  1.1919 -0.6592 -1.8937
 1901TIP3   OH227117   0.976   1.832   2.434 -0.8157  0.0626 -0.4028
 1901TIP3    H127118   0.938   1.917   2.411 -1.1438  0.1059  0.2853
 1901TIP3    H227119   1.018   1.847   2.519 -1.7989 -0.7190  0.2450
 1902TIP3   OH227120   4.491   3.955   2.268  0.3383  0.6498  0.8065
 1902TIP3    H127121   4.482   4.026   2.204 -2.8513  0.1746  0.5780
 1902TIP3    H227122   4.476   3.875   2.217 -2.3980  0.2664  2.0254
 1903TIP3   OH227123   1.768   4.697  14.324  0.0493 -0.3260 -0.0540
 1903TIP3    H127124   1.808   4.629  14.379 -1.1485 -2.3622 -1.5386
 1903TIP3    H227125   1.809   4.684  14.238 -1.1467 -0.0703 -0.6848
 1904TIP3   OH227126   3.398   4.224  13.967 -0.1915 -0.1457  0.7715
 1904TIP3    H127127   3.313   4.184  13.950  0.3665 -1.9145  1.9042
 1904TIP3    H227128   3.418   4.274  13.888 -1.4503 -1.1817 -0.2259
 1905TIP3   OH227129   0.016   4.583  13.127  0.4346 -0.0287  0.0634
 1905TIP3    H127130  -0.024   4.670  13.125  0.4696 -0.0287 -1.7408
 1905TIP3    H227131   0.042   4.571  13.219 -2.3475  0.5515  1.0041
 1906TIP3   OH227132   1.073   3.153   4.909 -0.2607  0.2215  0.2091
 1906TIP3    H127133   1.168   3.162   4.910 -0.3791  1.6524  0.0437
 1906TIP3    H227134   1.048   3.147   5.001 -0.0126 -0.2763  0.2486
 1907TIP3   OH227135   1.860   2.682  15.599 -0.0247  0.6217 -0.5286
 1907TIP3    H127136   1.873   2.685  15.504  2.6967 -2.5776 -0.4386
 1907TIP3    H227137   1.826   2.594  15.616 -1.9100  1.6430  1.3977
 1908TIP3   OH227138   1.420   2.321   4.219  0.0629  0.3896 -0.3062
 1908TIP3    H127139   1.443   2.414   4.219  0.1694  0.3649  0.0425
 1908TIP3    H227140   1.379   2.307   4.134 -0.5065  0.8933 -0.1241
 1909TIP3   OH227141   1.719   3.667  12.761 -0.7210  0.1852  0.6367
 1909TIP3    H127142   1.740   3.749  12.805  0.1671  0.1330  0.3314
 1909TIP3    H227143   1.684   3.693  12.676 -0.3841  0.2534  0.5170
 1910TIP3   OH227144   2.486   0.665   5.302  0.4401 -0.1991  0.4592
 1910TIP3    H127145   2.579   0.642   5.294  0.2260 -0.8173 -0.3653
 1910TIP3    H227146   2.460   0.629   5.388  0.9203 -0.1680  0.6198
 1911TIP3   OH227147   2.724   6.435  10.734  0.5042  0.4168  0.5524
 1911TIP3    H127148   2.651   6.379  10.706 -0.9812  0.1072  4.3645
 1911TIP3    H227149   2.759   6.472  10.653 -1.8793 -1.8734 -1.7113
 1912TIP3   OH227150   6.301   4.712   1.176  0.1604 -0.0214 -0.1599
 1912TIP3    H127151   6.307   4.724   1.081  1.2662 -0.0604 -0.1017
 1912TIP3    H227152   6.392   4.708   1.206 -0.1712  0.3436  0.9488
 1913TIP3   OH227153   4.158   4.889   4.304  0.1809 -0.0168 -0.6747
 1913TIP3    H127154   4.168   4.867   4.396 -0.5772 -0.2033 -0.6367
 1913TIP3    H227155   4.127   4.809   4.262  0.2203  0.1522 -1.0378
 1914TIP3   OH227156   1.370   6.044   1.328  0.1271 -0.1750  0.5249
 1914TIP3    H127157   1.451   6.010   1.290  0.1566 -1.7223  1.8903
 1914TIP3    H227158   1.387   6.047   1.422 -1.1342  0.2827  0.7547
 1915TIP3   OH227159   0.931   0.517   2.649  0.1197  0.2630  0.5597
 1915TIP3    H127160   0.889   0.449   2.597  3.6277 -0.5190 -1.5443
 1915TIP3    H227161   0.863   0.584   2.661 -1.8401 -1.1014 -2.0991
 1916TIP3   OH227162   1.568   6.731   2.830 -0.1496  0.5485 -0.6883
 1916TIP3    H127163   1.607   6.793   2.892 -1.5864  0.6776  0.1266
 1916TIP3    H227164   1.474   6.739   2.844 -0.4280 -0.6919 -1.6726
 1917TIP3   OH227165   4.572   3.084   4.346  0.0424  0.2688  0.0079
 1917TIP3    H127166   4.580   3.010   4.286  1.1561 -0.5846  1.1463
 1917TIP3    H227167   4.660   3.094   4.384 -0.2555  1.7457  0.3928
 1918TIP3   OH227168   0.212   6.291   3.773  0.1417  0.0415 -0.3968
 1918TIP3    H127169   0.247   6.339   3.848 -0.7669 -0.6855  0.5270
 1918TIP3    H227170   0.241   6.201   3.787 -0.5623 -0.2205 -0.5722
 1919TIP3   OH227171   0.330   2.125  13.358 -0.8594  0.1543 -0.3161
 1919TIP3    H127172   0.388   2.176  13.415 -1.9435 -0.5885  1.5218
 1919TIP3    H227173   0.389   2.091  13.290  0.7324  0.0676  1.0292
 1920TIP3   OH227174   1.913   1.870   3.328  0.3063  0.8253 -0.0536
 1920TIP3    H127175   1.962   1.808   3.384  2.0188  0.7347 -1.5653
 1920TIP3    H227176   1.879   1.935   3.389  1.6204  0.4082  1.1917
 1921TIP3   OH227177   4.008   3.007  12.974 -0.5407  0.2050  0.2310
 1921TIP3    H127178   4.072   3.039  12.910 -0.6643  1.0533  0.5188
 1921TIP3    H227179   4.055   3.010  13.057 -1.1586  1.4873  0.5484
 1922TIP3   OH227180   4.102   6.551  15.562 -0.6513  0.3292  0.4124
 1922TIP3    H127181   4.021   6.560  15.511 -0.5507  1.1322  0.3920
 1922TIP3    H227182   4.134   6.640  15.573 -0.1311  0.0730  1.0225
 1923TIP3   OH227183   4.199   0.058   0.886 -0.0885 -0.0391 -0.0992
 1923TIP3    H127184   4.129   0.001   0.918  1.1442 -0.8429  1.2859
 1923TIP3    H227185   4.158   0.144   0.876 -1.4446 -0.6632 -0.0773
 1924TIP3   OH227186   0.269   6.582  14.671 -0.0362  0.4081  0.0705
 1924TIP3    H127187   0.212   6.507  14.653 -0.3882  0.1365  2.1423
 1924TIP3    H227188   0.283   6.622  14.585  0.0001 -1.8845 -1.0692
 1925TIP3   OH227189   1.148   6.507  15.922 -0.1524  0.1441 -0.4131
 1925TIP3    H127190   1.066   6.530  15.966 -0.5750 -2.9036  0.6560
 1925TIP3    H227191   1.214   6.563  15.963 -1.5398  2.2230 -0.8641
 1926TIP3   OH227192   5.562   2.483  15.865  0.0414  0.0017  0.4693
 1926TIP3    H127193   5.566   2.493  15.770 -0.5420  1.4367  0.5808
 1926TIP3    H227194   5.617   2.407  15.883 -0.7143 -0.9762 -1.1124
 1927TIP3   OH227195   6.580   2.951  11.868 -0.1072 -0.1176  0.1925
 1927TIP3    H127196   6.548   2.991  11.787  0.7504 -0.9026 -0.5562
 1927TIP3    H227197   6.659   3.001  11.889 -0.6412  0.4590  0.8789
 1928TIP3   OH227198   4.443   4.866   5.784  0.0354 -0.1643 -0.4113
 1928TIP3    H127199   4.454   4.941   5.842 -1.4267  0.6246 -1.1009
 1928TIP3    H227200   4.371   4.816   5.821 -0.0197 -0.3882 -0.8125
 1929TIP3   OH227201   1.427   4.596   4.654 -0.2466  0.5159  0.0201
 1929TIP3    H127202   1.429   4.674   4.599 -0.2648  0.9215  0.5859
 1929TIP3    H227203   1.516   4.587   4.688 -0.3486  0.5460  0.3027
 1930TIP3   OH227204   1.517   6.257  10.963 -0.7737 -0.1484 -0.1566
 1930TIP3    H127205   1.510   6.164  10.941  1.7869 -0.3152 -0.5028
 1930TIP3    H227206   1.559   6.296  10.887  0.7037  0.7771  1.0942
 1931TIP3   OH227207   0.086   2.250  13.055 -0.3042 -0.0785  0.0622
 1931TIP3    H127208   0.168   2.300  13.065 -0.5993  0.0164  3.1259
 1931TIP3    H227209   0.114   2.167  13.017  1.2650 -0.0213  0.9604
 1932TIP3   OH227210   2.868   2.205   0.336 -0.4513 -0.0267  0.0386
 1932TIP3    H127211   2.957   2.218   0.302 -0.0928 -2.3983 -0.1188
 1932TIP3    H227212   2.879   2.199   0.431 -0.1046 -2.0515 -0.0745
 1933TIP3   OH227213   3.942   5.196  14.708  0.1953 -0.8066 -0.4962
 1933TIP3    H127214   3.963   5.277  14.754 -0.9619 -0.2901 -0.8486
 1933TIP3    H227215   4.017   5.182  14.650  0.9715 -0.6658  0.4431
 1934TIP3   OH227216   2.142   4.187   1.701  0.1378  0.4173  0.6918
 1934TIP3    H127217   2.203   4.117   1.677 -1.1029 -0.4748  0.0077
 1934TIP3    H227218   2.179   4.266   1.661  1.2287  0.0413  0.9270
 1935TIP3   OH227219   4.476   1.172  16.586  0.4328  0.5645  0.2934
 1935TIP3    H127220   4.497   1.224  16.664  1.0545  1.1238 -0.2422
 1935TIP3    H227221   4.479   1.081  16.617  1.6644  0.7289  0.7118
 1936TIP3   OH227222   6.202   2.418  16.759  0.3217 -0.1724  0.3919
 1936TIP3    H127223   6.204   2.323  16.746  0.3659 -0.1140 -0.0668
 1936TIP3    H227224   6.286   2.448  16.725 -0.6574  0.2933 -1.8104
 1937TIP3   OH227225   3.890   1.728  13.988 -0.1367  0.1042  0.2265
 1937TIP3    H127226   3.891   1.634  14.008 -1.5921 -0.2249 -0.9659
 1937TIP3    H227227   3.797   1.752  13.995 -0.0715  0.9727 -1.4263
 1938TIP3   OH227228   5.997   4.579   1.141  0.0471 -0.2440  0.6204
 1938TIP3    H127229   6.073   4.520   1.134  0.0711 -0.0232 -1.3986
 1938TIP3    H227230   6.028   4.649   1.199 -0.0808 -2.2490  3.3580
 1939TIP3   OH227231   6.497   6.304   3.778 -0.4221 -0.3100  0.3841
 1939TIP3    H127232   6.519   6.393   3.751  2.3435 -1.2289 -0.7875
 1939TIP3    H227233   6.404   6.307   3.798 -0.4737  2.7729  0.1899
 1940TIP3   OH227234   3.092   1.859  14.400 -0.8681  0.1365  0.4424
 1940TIP3    H127235   3.079   1.832  14.308 -1.7161  0.6927  0.3853
 1940TIP3    H227236   3.186   1.858  14.412 -0.5547  2.5764 -1.2116
 1941TIP3   OH227237   0.452   3.970   0.897 -0.2603  0.0124 -0.0218
 1941TIP3    H127238   0.416   3.989   0.984 -0.0974 -2.5306  0.6597
 1941TIP3    H227239   0.528   3.915   0.914  0.9243  1.0364 -1.7263
 1942TIP3   OH227240   6.718   0.767   3.679  0.0553 -0.1925  0.6453
 1942TIP3    H127241   6.759   0.788   3.763  0.4166 -1.4626  0.7996
 1942TIP3    H227242   6.684   0.679   3.691  0.4987 -0.5594 -0.6952
 1943TIP3   OH227243   1.752   4.038   1.606  0.2438  0.0892  0.3879
 1943TIP3    H127244   1.671   4.011   1.561  0.3398 -0.9791  0.8360
 1943TIP3    H227245   1.786   4.109   1.552 -0.1373 -0.5451 -0.7230
 1944TIP3   OH227246   2.703   5.242   2.591  0.1799  0.3472 -0.1994
 1944TIP3    H127247   2.656   5.187   2.528 -1.1258  0.8655  0.2962
 1944TIP3    H227248   2.710   5.188   2.670 -0.3313  0.5708  0.0011
 1945TIP3   OH227249   1.775   3.138  13.652  0.1616  0.6284  0.4213
 1945TIP3    H127250   1.819   3.173  13.574 -0.1759 -1.3228 -0.7317
 1945TIP3    H227251   1.837   3.152  13.723  0.7818  1.8321 -0.3288
 1946TIP3   OH227252   6.128   5.428   1.018 -0.4963  0.4861  0.1201
 1946TIP3    H127253   6.151   5.508   1.064 -2.4414  2.4164 -2.0402
 1946TIP3    H227254   6.072   5.380   1.078 -3.0105  2.9493 -0.0768
 1947TIP3   OH227255   2.452   1.326   4.675  0.4730 -0.4031  0.1493
 1947TIP3    H127256   2.370   1.288   4.704  0.3482  0.3987  0.8793
 1947TIP3    H227257   2.511   1.316   4.749  0.1176  1.7738  0.7962
 1948TIP3   OH227258   3.290   0.825   3.795 -0.4635 -0.2590  0.1283
 1948TIP3    H127259   3.295   0.900   3.736  1.7649 -0.6322 -0.2338
 1948TIP3    H227260   3.381   0.805   3.817 -1.1095 -1.5036  1.9703
 1949TIP3   OH227261   4.632   2.533   0.215  0.0104  0.0763 -0.5051
 1949TIP3    H127262   4.654   2.598   0.147 -1.3697 -0.6235 -1.6924
 1949TIP3    H227263   4.541   2.555   0.239 -0.2171 -0.9700 -0.3920
 1950TIP3   OH227264   2.647   2.671   6.313 -0.2618 -0.1787  0.0754
 1950TIP3    H127265   2.656   2.731   6.239  0.8539  0.6154  0.8271
 1950TIP3    H227266   2.721   2.611   6.304  0.2889  0.3609  0.9280
 1951TIP3   OH227267   2.232   4.460   5.890  0.2232 -0.2519 -0.1102
 1951TIP3    H127268   2.243   4.555   5.892  1.0075 -0.3261 -0.4091
 1951TIP3    H227269   2.210   4.437   5.981 -1.8124  0.3987 -0.3977
 1952TIP3   OH227270   0.434   0.361  14.115 -0.5553 -0.2500  0.5442
 1952TIP3    H127271   0.399   0.420  14.181  0.4179 -1.2095  1.9809
 1952TIP3    H227272   0.525   0.390  14.103  0.2282 -1.9114  1.9443
 1953TIP3   OH227273   5.056   5.687  13.246 -0.5236 -0.0275  0.0408
 1953TIP3    H127274   5.005   5.713  13.323  0.3231 -2.5997  1.6052
 1953TIP3    H227275   5.104   5.609  13.275  0.6771 -0.4503 -2.7957
 1954TIP3   OH227276   5.694   0.036  12.137 -0.6215 -0.8555 -0.1966
 1954TIP3    H127277   5.671   0.013  12.228  0.6279  0.5243  0.5057
 1954TIP3    H227278   5.783   0.002  12.127  0.2048  1.1560 -0.0422
 1955TIP3   OH227279   6.026   2.797  11.549 -0.0237  0.1292 -0.0138
 1955TIP3    H127280   6.012   2.885  11.514  1.9176  1.3773  2.0622
 1955TIP3    H227281   6.009   2.805  11.642 -1.7590 -2.2494 -0.0435
 1956TIP3   OH227282   0.416   0.610  13.863  0.0722 -0.7416 -0.4858
 1956TIP3    H127283   0.344   0.573  13.812  0.1793 -1.6403 -0.0103
 1956TIP3    H227284   0.383   0.615  13.952  0.1838  0.0108 -0.4776
 1957TIP3   OH227285   0.905   5.595   3.736 -0.1817  0.2066  0.0344
 1957TIP3    H127286   0.928   5.688   3.734 -3.1409  1.0406  0.6255
 1957TIP3    H227287   0.853   5.585   3.816 -0.1266 -1.9342 -0.1512
 1958TIP3   OH227288   3.974   2.619   2.667  0.1935  0.1595 -0.4716
 1958TIP3    H127289   4.044   2.615   2.602 -0.6478 -3.9312 -1.4296
 1958TIP3    H227290   4.013   2.584   2.747 -0.6251 -2.1763 -1.0204
 1959TIP3   OH227291   0.986   6.274   0.920  0.2847  0.5827 -0.7972
 1959TIP3    H127292   1.047   6.308   0.855  1.5598 -1.6107 -0.8279
 1959TIP3    H227293   1.019   6.307   1.003  2.3935 -1.6158 -0.6629
 1960TIP3   OH227294   5.226   2.509  12.513 -0.4771  0.8761  0.0817
 1960TIP3    H127295   5.208   2.457  12.591 -0.4531 -0.6753 -0.9057
 1960TIP3    H227296   5.294   2.460  12.466 -1.1040  1.3148 -1.3507
 1961TIP3   OH227297   2.628   4.950  10.874  0.2091 -0.0292  0.5306
 1961TIP3    H127298   2.668   4.987  10.796  1.4504 -2.4705 -0.0551
 1961TIP3    H227299   2.696   4.897  10.915 -0.6427  0.5240  2.8706
 1962TIP3   OH227300   5.621   0.072  15.426 -0.4909  0.0726 -0.3815
 1962TIP3    H127301   5.535   0.095  15.389 -0.2203  1.6484 -0.0994
 1962TIP3    H227302   5.659   0.156  15.451  0.6739 -0.7037  0.5333
 1963TIP3   OH227303   5.445   1.044   1.351 -0.8877 -0.2644  0.1347
 1963TIP3    H127304   5.415   1.113   1.291 -0.4397  0.0414  0.2566
 1963TIP3    H227305   5.377   1.038   1.417 -1.5281 -0.8059 -0.5648
 1964TIP3   OH227306   5.195   2.606   2.073 -1.0544 -0.3683 -0.4892
 1964TIP3    H127307   5.249   2.663   2.128 -0.8116 -1.3432  0.3169
 1964TIP3    H227308   5.256   2.567   2.011 -0.5302 -2.4276  1.2102
 1965TIP3   OH227309   3.167   0.874  12.399  0.3636  0.2909 -0.1826
 1965TIP3    H127310   3.092   0.933  12.389 -1.6561 -1.9851  0.6411
 1965TIP3    H227311   3.193   0.884  12.491  1.2542  1.2312 -0.5195
 1966TIP3   OH227312   3.777   6.665   5.191 -0.4742  0.2452 -0.3851
 1966TIP3    H127313   3.819   6.581   5.170  1.7970  1.5241 -1.3304
 1966TIP3    H227314   3.851   6.725   5.205 -2.0287  1.9263  1.0162
 1967TIP3   OH227315   1.371   0.806   6.152 -0.2076  0.0777  0.3084
 1967TIP3    H127316   1.317   0.729   6.170  0.5156 -0.4883  0.1087
 1967TIP3    H227317   1.342   0.872   6.215 -2.1256  0.2907 -0.7280
 1968TIP3   OH227318   5.812   1.284   6.663  0.0875 -0.4532  0.2329
 1968TIP3    H127319   5.829   1.217   6.729  1.8514 -0.1859  0.1018
 1968TIP3    H227320   5.805   1.236   6.581  2.2264 -0.4750  0.0030
 1969TIP3   OH227321   0.242   5.150  12.606 -0.6929 -0.3410 -0.5869
 1969TIP3    H127322   0.186   5.074  12.624 -1.7085  0.6475  0.6455
 1969TIP3    H227323   0.183   5.225  12.612  0.2299  0.5506 -2.0980
 1970TIP3   OH227324   3.426   2.049  13.543  0.0934 -0.3521  0.6918
 1970TIP3    H127325   3.444   2.021  13.453 -0.2474 -0.2035  0.5733
 1970TIP3    H227326   3.365   2.122  13.533  0.0563 -0.3342  1.0454
 1971TIP3   OH227327   0.778   5.120  14.461  0.0623  0.7677  0.5229
 1971TIP3    H127328   0.734   5.121  14.546  0.1922  2.1242  0.5996
 1971TIP3    H227329   0.804   5.029  14.448  0.1620  0.5704  1.9908
 1972TIP3   OH227330   3.201   6.027   5.041  0.1957  0.3153  0.5334
 1972TIP3    H127331   3.187   6.094   4.973 -0.7103  0.9245  1.2869
 1972TIP3    H227332   3.284   5.986   5.018 -0.5816 -0.2325 -1.5639
 1973TIP3   OH227333   0.857   1.479   2.982  0.0003 -0.2379  0.2111
 1973TIP3    H127334   0.784   1.456   3.038 -1.0618  3.7472  0.7886
 1973TIP3    H227335   0.924   1.513   3.042  0.7180 -0.1728 -0.6023
 1974TIP3   OH227336   0.464   1.193   5.544  0.0638  0.6075 -0.5385
 1974TIP3    H127337   0.409   1.255   5.498 -1.2477  1.1364  1.6052
 1974TIP3    H227338   0.525   1.247   5.594 -0.2935  0.1676  0.3991
 1975TIP3   OH227339   3.349   5.580  11.241  0.0012  0.0773 -0.1501
 1975TIP3    H127340   3.360   5.590  11.146 -1.2602 -0.7457 -0.4094
 1975TIP3    H227341   3.433   5.545  11.271 -0.1184 -1.2199 -1.2303
 1976TIP3   OH227342   5.266   6.764  11.404  0.2183  0.0901  0.0759
 1976TIP3    H127343   5.345   6.816  11.399  0.5285 -0.4160 -0.3616
 1976TIP3    H227344   5.259   6.739  11.497  1.0910 -0.6580 -0.0501
 1977TIP3   OH227345   2.770   5.654   1.800  0.0236  0.0585  0.1871
 1977TIP3    H127346   2.793   5.726   1.741 -0.2287 -1.2245 -1.5568
 1977TIP3    H227347   2.674   5.647   1.793  0.0628 -0.5653  0.1833
 1978TIP3   OH227348   4.139   3.132   4.934  0.6412  0.5184 -0.8031
 1978TIP3    H127349   4.095   3.133   4.849  0.3935  0.2954 -0.6778
 1978TIP3    H227350   4.069   3.117   4.998  0.9315 -0.0610 -0.6190
 1979TIP3   OH227351   4.565   6.318  13.891 -0.2094 -0.0719 -0.0654
 1979TIP3    H127352   4.629   6.357  13.831 -0.8611  0.4731 -0.4167
 1979TIP3    H227353   4.595   6.344  13.978  0.2147 -0.0769 -0.2079
 1980TIP3   OH227354   2.399   0.501   2.429 -0.1871 -0.2393 -0.6177
 1980TIP3    H127355   2.398   0.434   2.496  0.9969  0.6610  0.3457
 1980TIP3    H227356   2.398   0.584   2.477 -1.0829  0.4526 -1.7591
 1981TIP3   OH227357   2.308   2.426   3.558 -0.2467  0.4644  0.3286
 1981TIP3    H127358   2.351   2.510   3.573  1.6051 -0.1178 -1.4202
 1981TIP3    H227359   2.287   2.426   3.465 -1.3271 -0.5583  0.5483
 1982TIP3   OH227360   4.258   2.368  15.072  0.5690  0.5288 -0.1676
 1982TIP3    H127361   4.224   2.291  15.026  3.6565 -1.8422  1.1456
 1982TIP3    H227362   4.186   2.395  15.130 -1.1039 -0.4084 -1.7052
 1983TIP3   OH227363   5.350   5.123   2.625  0.1533 -0.2999  0.6419
 1983TIP3    H127364   5.323   5.033   2.606 -2.7935  0.2745  1.4607
 1983TIP3    H227365   5.396   5.117   2.709  0.0591 -1.0763  0.6454
 1984TIP3   OH227366   6.093   3.491   1.895  0.5880  0.2560 -0.1994
 1984TIP3    H127367   6.140   3.565   1.856  0.9555 -0.1065 -0.4486
 1984TIP3    H227368   6.055   3.445   1.820  0.8595 -0.1462 -0.0942
 1985TIP3   OH227369   2.028   0.413  16.164 -0.0825 -0.2734  0.1934
 1985TIP3    H127370   1.970   0.456  16.227  1.2071 -0.1791  1.3761
 1985TIP3    H227371   2.101   0.381  16.217  2.6301  2.4540 -1.5350
 1986TIP3   OH227372   3.916   0.432  14.214  0.5653 -0.8442 -0.0182
 1986TIP3    H127373   4.009   0.454  14.209  0.1915  0.5663 -1.6292
 1986TIP3    H227374   3.896   0.435  14.308  1.5398  1.6603  0.1763
 1987TIP3   OH227375   0.964   1.211   3.157 -0.3854 -0.0227 -0.0556
 1987TIP3    H127376   0.976   1.170   3.072 -0.6858 -0.5845  0.1669
 1987TIP3    H227377   0.954   1.305   3.137  1.4224  0.1080 -0.4644
 1988TIP3   OH227378   2.535   4.556  11.854 -0.3690 -0.5090  0.7241
 1988TIP3    H127379   2.580   4.573  11.937  2.0940  0.9221 -0.7685
 1988TIP3    H227380   2.460   4.616  11.854 -0.6894 -0.8846  2.0844
 1989TIP3   OH227381   5.684   1.030  10.784 -0.9880 -0.1796  0.2544
 1989TIP3    H127382   5.771   1.030  10.823 -0.8741  0.3581  0.0091
 1989TIP3    H227383   5.695   1.075  10.700 -1.3773 -0.6682 -0.0637
 1990TIP3   OH227384   3.547   2.987   3.587 -0.1731  0.7458  0.1841
 1990TIP3    H127385   3.614   2.989   3.656 -0.8139  1.4492  0.8021
 1990TIP3    H227386   3.474   2.940   3.627  0.8021 -2.2881 -1.3279
 1991TIP3   OH227387   3.464   1.818  11.184 -0.2431 -0.3172 -0.0138
 1991TIP3    H127388   3.445   1.724  11.188 -1.3841 -0.1424 -0.7020
 1991TIP3    H227389   3.419   1.855  11.260  0.7873 -0.3980  0.6544
 1992TIP3   OH227390   2.980   3.133  16.876  0.5085 -0.0742  0.3095
 1992TIP3    H127391   3.064   3.132  16.829  0.2839  3.7516 -0.4621
 1992TIP3    H227392   3.005   3.120  16.967  1.8967  0.2520  0.0145
 1993TIP3   OH227393   5.418   4.530   6.302  0.1831 -0.3406  0.4046
 1993TIP3    H127394   5.387   4.556   6.388  1.7460 -1.2821  1.2990
 1993TIP3    H227395   5.400   4.436   6.297  0.5459 -0.3867 -0.0971
 1994TIP3   OH227396   2.877   1.362   0.489 -0.1288  0.0472  0.5622
 1994TIP3    H127397   2.865   1.439   0.433  2.0889  1.6805  2.1692
 1994TIP3    H227398   2.842   1.289   0.437 -1.7984  2.0059 -1.2586
 1995TIP3   OH227399   1.962   5.400  12.481 -0.5906 -0.4412 -0.0041
 1995TIP3    H127400   1.985   5.336  12.548  0.7239 -0.2334 -0.2119
 1995TIP3    H227401   1.986   5.485  12.519  2.2622 -0.4617 -1.4436
 1996TIP3   OH227402   0.180   5.439  12.632 -0.3831 -0.3428 -0.1361
 1996TIP3    H127403   0.206   5.499  12.702  0.5289 -0.0878 -0.6823
 1996TIP3    H227404   0.230   5.468  12.556 -1.5744 -0.4278 -0.9859
 1997TIP3   OH227405   0.295   3.615   1.468 -0.6375  0.0500 -0.4630
 1997TIP3    H127406   0.268   3.706   1.457 -0.7890 -0.0712 -1.0970
 1997TIP3    H227407   0.363   3.601   1.403  0.0810 -0.0161  0.2784
 1998TIP3   OH227408   2.034   3.404  11.289  0.6339 -0.0985  0.6023
 1998TIP3    H127409   2.010   3.319  11.252  1.4097 -1.2330  2.5427
 1998TIP3    H227410   1.951   3.439  11.322 -0.1300  1.0755 -2.2676
 1999TIP3   OH227411   5.308   2.027  12.675  0.1370  0.0221 -0.1199
 1999TIP3    H127412   5.219   2.040  12.641  0.3819 -1.5748 -1.4793
 1999TIP3    H227413   5.364   2.029  12.598  0.8233 -2.7720  0.1781
 2000TIP3   OH227414   4.985   3.827  14.897  0.1040 -0.8188 -0.5592
 2000TIP3    H127415   4.933   3.805  14.974  0.2603  0.4900 -0.0582
 2000TIP3    H227416   4.988   3.922  14.896  1.6513 -0.8358 -1.1397
 2001TIP3   OH227417   3.945   4.274  12.498 -0.0796  0.1591 -0.0754
 2001TIP3    H127418   3.975   4.280  12.407  2.4707  1.3042  0.7580
 2001TIP3    H227419   3.891   4.352  12.511  1.1232  1.0192 -0.1075
 2002TIP3   OH227420   6.241   5.846   3.345  0.5545 -0.3695  0.2889
 2002TIP3    H127421   6.270   5.761   3.378 -0.3783 -0.9172 -0.2596
 2002TIP3    H227422   6.146   5.838   3.337  0.5878  0.2320 -1.1089
 2003TIP3   OH227423   2.447   0.591  10.768  0.0062  0.0831 -0.2340
 2003TIP3    H127424   2.496   0.527  10.716  1.0828  1.0940 -0.5059
 2003TIP3    H227425   2.456   0.673  10.720 -1.6916  0.3806 -0.0969
 2004TIP3   OH227426   2.114   3.331  12.033 -0.2815  0.9731  0.4098
 2004TIP3    H127427   2.162   3.414  12.029 -1.7300  1.8058 -0.4528
 2004TIP3    H227428   2.042   3.348  12.094 -1.3094  0.7788 -0.7008
 2005TIP3   OH227429   5.986   6.206   3.185 -0.1574 -0.2425 -0.1449
 2005TIP3    H127430   5.964   6.266   3.114  1.9677  0.6324 -0.1467
 2005TIP3    H227431   6.073   6.173   3.162  0.5923  0.0672  1.9927
 2006TIP3   OH227432   1.012   1.668  15.921 -0.0438  0.1987  0.1272
 2006TIP3    H127433   1.047   1.744  15.968  0.1490  1.1875 -1.5327
 2006TIP3    H227434   1.000   1.699  15.831 -2.4553 -0.9672 -0.0408
 2007TIP3   OH227435   0.434   6.686  16.718  0.2827  0.0896 -1.1879
 2007TIP3    H127436   0.405   6.725  16.635 -2.5382 -0.1479 -0.4055
 2007TIP3    H227437   0.397   6.743  16.785  0.2502 -1.2207 -0.0669
 2008TIP3   OH227438   1.929   0.818   5.263 -0.3859  0.5924  0.4925
 2008TIP3    H127439   2.021   0.830   5.239 -0.0107 -0.0235  1.5621
 2008TIP3    H227440   1.882   0.823   5.179  0.6308  0.7676 -0.0855
 2009TIP3   OH227441   6.197   4.552  16.779 -0.1922 -0.1705  0.0728
 2009TIP3    H127442   6.148   4.615  16.726 -0.5040 -1.1636 -0.8549
 2009TIP3    H227443   6.200   4.591  16.866  0.3190  1.5055 -0.6541
 2010TIP3   OH227444   1.975   3.139   1.212 -0.1938  0.0795 -0.2869
 2010TIP3    H127445   1.901   3.170   1.264  0.7550  0.7260  0.7086
 2010TIP3    H227446   2.000   3.056   1.252 -0.7626 -0.4645 -1.0229
 2011TIP3   OH227447   6.700   2.555  16.880  0.1360 -0.6365 -0.0826
 2011TIP3    H127448   6.724   2.578  16.970  0.9869 -0.4536 -0.3494
 2011TIP3    H227449   6.705   2.637  16.831  1.6125 -1.0615 -0.6985
 2012TIP3   OH227450   4.703   6.432  11.581  0.2410  0.2174 -0.0867
 2012TIP3    H127451   4.686   6.420  11.674  1.5034  1.7393  0.3738
 2012TIP3    H227452   4.790   6.394  11.568  1.2036  2.3174 -0.0664
 2013TIP3   OH227453   3.785   3.415   3.913  0.3242  0.2584 -0.5927
 2013TIP3    H127454   3.799   3.412   3.819  0.8185  1.7148 -0.5888
 2013TIP3    H227455   3.693   3.392   3.924 -0.1568  1.6177 -1.5724
 2014TIP3   OH227456   6.416   4.779   3.164  0.2761  0.2394 -0.0195
 2014TIP3    H127457   6.461   4.857   3.132  0.1188  0.4473  0.2577
 2014TIP3    H227458   6.381   4.738   3.085 -1.3213  1.5061 -0.0342
 2015TIP3   OH227459   1.830   2.697  15.066 -0.1623  0.2048  0.4678
 2015TIP3    H127460   1.863   2.694  15.155 -0.0018 -0.3347  0.3916
 2015TIP3    H227461   1.908   2.694  15.011 -0.3255 -2.1491  0.2664
 2016TIP3   OH227462   5.374   1.101  15.833 -0.0160 -0.5341  0.4195
 2016TIP3    H127463   5.298   1.047  15.810 -0.4376 -0.3928  1.4152
 2016TIP3    H227464   5.449   1.044  15.819 -0.4037 -1.1338  0.7022
 2017TIP3   OH227465   5.857   6.812  16.568  0.1524  0.5062 -0.2766
 2017TIP3    H127466   5.767   6.844  16.583  0.1155  0.2785 -0.0071
 2017TIP3    H227467   5.873   6.830  16.476 -0.0405  0.8769 -0.2431
 2018TIP3   OH227468   5.465   6.418  10.866  0.2637  0.1124 -0.0082
 2018TIP3    H127469   5.528   6.365  10.915  0.5752 -1.4228 -1.9257
 2018TIP3    H227470   5.509   6.503  10.855 -0.0754  0.7439  2.7627
 2019TIP3   OH227471   0.657   5.554  14.077 -0.5857  0.7153 -0.5740
 2019TIP3    H127472   0.691   5.600  14.000  0.3706  1.7964  0.4458
 2019TIP3    H227473   0.614   5.622  14.129 -1.6540 -0.0858 -0.3549
 2020TIP3   OH227474   5.160   0.812  11.106  0.4664  0.5805 -0.0170
 2020TIP3    H127475   5.216   0.803  11.183  1.5307  0.0117 -0.8347
 2020TIP3    H227476   5.172   0.730  11.058 -1.6584  0.1034  0.1373
 2021TIP3   OH227477   6.075   1.552   2.238  0.0926 -0.3298  0.1522
 2021TIP3    H127478   6.160   1.585   2.207  0.5361 -0.7718  0.8648
 2021TIP3    H227479   6.070   1.463   2.205  0.1215 -0.4672  0.5164
 2022TIP3   OH227480   0.370   3.337   1.818  0.0740  0.2688  0.3249
 2022TIP3    H127481   0.370   3.242   1.803  2.0055  0.3357 -0.3978
 2022TIP3    H227482   0.283   3.356   1.852 -0.5488 -1.6808 -0.0549
 2023TIP3   OH227483   2.969   2.943  11.528 -0.5595 -0.0280  0.5258
 2023TIP3    H127484   2.936   2.863  11.570 -0.8333  0.4080  1.1548
 2023TIP3    H227485   2.899   2.967  11.467 -0.2166 -0.5917 -0.1053
 2024TIP3   OH227486   2.156   3.411  12.827  0.2200  0.4501  0.1955
 2024TIP3    H127487   2.123   3.323  12.809  1.6374  0.1602 -1.2030
 2024TIP3    H227488   2.117   3.466  12.759 -0.1217  0.7785  0.6519
 2025TIP3   OH227489   3.192   2.803   5.969  0.4409  0.0844  0.3972
 2025TIP3    H127490   3.192   2.712   5.998  0.7956 -0.5203 -1.3890
 2025TIP3    H227491   3.165   2.853   6.046 -0.0801 -1.5552  1.3184
 2026TIP3   OH227492   6.306   0.027   2.483  0.3275  0.3082 -0.1004
 2026TIP3    H127493   6.356  -0.027   2.422 -0.1405  0.5035 -0.6669
 2026TIP3    H227494   6.216  -0.006   2.476  0.2921  0.2428  0.5897
 2027TIP3   OH227495   1.390   2.949   3.471  0.2306 -0.1829 -0.2845
 2027TIP3    H127496   1.477   2.911   3.480  2.1798  3.0729 -2.8166
 2027TIP3    H227497   1.359   2.919   3.386 -1.1303 -1.2040  0.5376
 2028TIP3   OH227498   6.235   2.660  14.275  0.1113 -0.4645  0.1831
 2028TIP3    H127499   6.212   2.567  14.282  0.0304 -0.5930 -1.3620
 2028TIP3    H227500   6.218   2.681  14.183  1.1931  0.7923  0.2545
 2029TIP3   OH227501   1.746   2.234  15.794  0.2069  0.0505  0.2544
 2029TIP3    H127502   1.797   2.209  15.871  2.4892 -2.9746 -2.0214
 2029TIP3    H227503   1.666   2.182  15.801 -0.4270  1.0932  1.3325
 2030TIP3   OH227504   4.903   4.383   4.828 -0.1521  0.1690 -0.3436
 2030TIP3    H127505   4.946   4.456   4.783 -0.3733  0.9221  0.6315
 2030TIP3    H227506   4.828   4.363   4.773 -1.0383  1.8013  0.2064
 2031TIP3   OH227507   0.190   0.987   2.989 -0.3349  0.3039  0.0421
 2031TIP3    H127508   0.217   1.077   2.969  0.1001  0.2049  0.1619
 2031TIP3    H227509   0.151   0.992   3.076 -1.9648  0.6860 -0.6804
 2032TIP3   OH227510   0.069   6.438  14.570 -0.1327 -0.1851  0.7231
 2032TIP3    H127511   0.003   6.394  14.515 -0.1613  1.6829 -0.8616
 2032TIP3    H227512   0.019   6.500  14.623  0.3057  1.7622 -1.0062
 2033TIP3   OH227513   2.582   4.378  16.194  0.4585 -0.6908  0.0787
 2033TIP3    H127514   2.551   4.467  16.209  2.4154 -0.4558  4.2730
 2033TIP3    H227515   2.511   4.322  16.225  0.3081 -0.4629  0.1470
 2034TIP3   OH227516   5.871   4.715   0.334  0.6385  0.0358 -0.3458
 2034TIP3    H127517   5.858   4.691   0.426  0.9300  1.4820  0.0917
 2034TIP3    H227518   5.961   4.748   0.330  1.8534 -3.0977 -1.8736
 2035TIP3   OH227519   1.103   5.858   4.192  0.1822  0.5126  0.1660
 2035TIP3    H127520   1.165   5.788   4.170  1.4082  0.9637  1.9744
 2035TIP3    H227521   1.056   5.875   4.110  1.9810 -0.3210 -1.0990
 2036TIP3   OH227522   5.153   4.341  15.228  0.0229  0.2635  0.2153
 2036TIP3    H127523   5.138   4.344  15.134  0.1093 -0.7827  0.1552
 2036TIP3    H227524   5.245   4.369  15.239  0.4260 -0.8810 -0.1412
 2037TIP3   OH227525   5.455   4.265   0.448  0.6837  0.5683  0.2017
 2037TIP3    H127526   5.506   4.332   0.493  1.5974 -0.0761  0.1575
 2037TIP3    H227527   5.372   4.262   0.496  1.7645 -0.3677  2.1373
 2038TIP3   OH227528   3.716   4.389   5.162  0.3182  0.3371 -0.4616
 2038TIP3    H127529   3.760   4.448   5.223 -0.3024 -0.0211  0.3585
 2038TIP3    H227530   3.781   4.372   5.093  1.7829 -0.8508  1.1279
 2039TIP3   OH227531   1.595   0.072  12.241  0.5332  0.3747  0.0698
 2039TIP3    H127532   1.607   0.166  12.227  0.4909 -0.0216 -3.4405
 2039TIP3    H227533   1.669   0.031  12.197  0.4433 -1.2748  1.3670
 2040TIP3   OH227534   4.130   3.424  16.541  0.3444  0.2583  0.4574
 2040TIP3    H127535   4.100   3.474  16.617 -0.0055  0.6360  0.0780
 2040TIP3    H227536   4.195   3.364  16.576 -1.9522 -1.7038  1.6072
 2041TIP3   OH227537   2.715   5.151   4.704 -0.3258  0.5021 -0.1127
 2041TIP3    H127538   2.730   5.162   4.610 -1.2627  3.6978 -0.0030
 2041TIP3    H227539   2.803   5.144   4.742  0.1279  0.8405 -1.0645
 2042TIP3   OH227540   5.453   3.466   6.227 -0.3229 -0.1732  0.3967
 2042TIP3    H127541   5.412   3.381   6.210  0.3900 -0.5920  0.7271
 2042TIP3    H227542   5.494   3.456   6.313 -0.3536  0.5523  0.4986
 2043TIP3   OH227543   6.586   4.193   5.376  0.3817 -0.3738  0.0124
 2043TIP3    H127544   6.647   4.148   5.317  1.5806 -0.3221  1.1664
 2043TIP3    H227545   6.537   4.122   5.419  0.9891 -0.5155  0.4847
 2044TIP3   OH227546   4.843   4.032  12.666  0.4018  0.0657  0.1263
 2044TIP3    H127547   4.919   3.981  12.638 -1.0512 -1.9282 -0.3911
 2044TIP3    H227548   4.796   4.051  12.585  0.1989  1.0734  0.4672
 2045TIP3   OH227549   1.339   4.538   5.044  0.1479 -0.1926  0.2220
 2045TIP3    H127550   1.364   4.621   5.003  2.2417 -1.8557 -2.1706
 2045TIP3    H227551   1.408   4.522   5.109 -0.2676 -0.0796  0.6986
 2046TIP3   OH227552   0.681   3.136   1.829 -0.6042  0.0864 -0.0317
 2046TIP3    H127553   0.696   3.181   1.747  1.6198 -1.5361 -0.6280
 2046TIP3    H227554   0.660   3.205   1.892 -2.1906  1.3596 -1.8848
 2047TIP3   OH227555   4.063   5.435   0.320 -0.0599  0.1297 -0.0286
 2047TIP3    H127556   3.984   5.395   0.357 -0.6798  1.9122  0.7000
 2047TIP3    H227557   4.042   5.528   0.314  1.9314  0.6275  0.0056
 2048TIP3   OH227558   5.466   1.649   3.459  0.1996  0.0914 -0.1228
 2048TIP3    H127559   5.373   1.638   3.439  0.1102 -0.5052  0.5739
 2048TIP3    H227560   5.470   1.731   3.508  0.4127  1.5329 -2.4233
 2049TIP3   OH227561   5.994   4.028   2.240  0.1093  0.0023  0.0711
 2049TIP3    H127562   5.991   4.042   2.334 -2.0238 -0.3498  0.1161
 2049TIP3    H227563   5.904   4.004   2.217  0.9755 -1.7150 -1.7809
 2050TIP3   OH227564   4.197   4.844   2.425 -0.4650  0.4049 -0.5847
 2050TIP3    H127565   4.177   4.798   2.506  0.3715  1.1460  0.0621
 2050TIP3    H227566   4.155   4.929   2.434 -1.3140  0.0943 -1.4264
 2051TIP3   OH227567   3.528   3.456  11.869 -0.2197  0.3428 -0.9874
 2051TIP3    H127568   3.437   3.437  11.847 -0.7771  0.3427  1.0584
 2051TIP3    H227569   3.579   3.391  11.821 -1.3227  0.0237 -1.7781
 2052TIP3   OH227570   0.174   1.375  15.011 -0.0083 -0.4213 -0.3933
 2052TIP3    H127571   0.204   1.320  15.084 -2.3321  1.7814  2.4486
 2052TIP3    H227572   0.095   1.331  14.980  0.7346 -1.1137 -1.3923
 2053TIP3   OH227573   1.113   2.025   0.904 -0.0852 -0.4939  0.1358
 2053TIP3    H127574   1.166   1.948   0.884  0.8778  0.2126 -0.1470
 2053TIP3    H227575   1.175   2.098   0.900 -1.1242  0.3875 -0.3657
 2054TIP3   OH227576   5.062   4.713  11.863  0.5511 -0.1896 -0.2319
 2054TIP3    H127577   5.084   4.620  11.870  1.3417  0.0834  1.5934
 2054TIP3    H227578   4.980   4.722  11.911 -0.8741 -0.3242 -2.5478
 2055TIP3   OH227579   5.546   3.651  16.406 -0.0749  0.5509 -0.3078
 2055TIP3    H127580   5.491   3.723  16.377 -0.7769  0.0887 -0.1325
 2055TIP3    H227581   5.520   3.577  16.352 -1.1034 -0.2096  1.1562
 2056TIP3   OH227582   0.749   4.967  13.670 -0.4743  0.6618  0.0451
 2056TIP3    H127583   0.823   4.909  13.656 -0.1441  0.8966  0.7409
 2056TIP3    H227584   0.718   4.945  13.758 -2.5474 -0.8808 -1.0000
 2057TIP3   OH227585   5.377   4.016   4.409  0.1237  0.6261  0.1855
 2057TIP3    H127586   5.380   3.923   4.386 -1.5901 -0.1335  2.5255
 2057TIP3    H227587   5.305   4.051   4.357  1.5453  0.9874 -1.6029
 2058TIP3   OH227588   4.789   4.495  11.063 -0.0712  0.2767  0.3259
 2058TIP3    H127589   4.802   4.587  11.039  3.1861 -0.1736 -0.1475
 2058TIP3    H227590   4.729   4.461  10.997 -0.2641  1.7432 -0.2943
 2059TIP3   OH227591   1.684   3.337  12.532  0.6206 -0.1655  0.0200
 2059TIP3    H127592   1.628   3.306  12.604  1.4696 -0.6249  0.4923
 2059TIP3    H227593   1.741   3.263  12.512 -0.0223 -0.2611 -1.5732
 2060TIP3   OH227594   2.267   6.459  11.394  0.2576 -0.2788  0.1760
 2060TIP3    H127595   2.264   6.394  11.324 -0.7723  0.7416 -0.7546
 2060TIP3    H227596   2.300   6.410  11.470 -0.9009 -1.9952 -0.3773
 2061TIP3   OH227597   5.410   0.139  12.041 -0.3381 -0.1514 -0.2553
 2061TIP3    H127598   5.479   0.181  11.990 -0.5169 -1.3846 -1.5661
 2061TIP3    H227599   5.360   0.088  11.978 -2.2557  0.4037  0.7214
 2062TIP3   OH227600   1.776   4.592  15.696 -0.1012 -0.1115 -0.8083
 2062TIP3    H127601   1.856   4.640  15.678  0.2096  0.6424  2.0561
 2062TIP3    H227602   1.708   4.659  15.704 -0.0586 -0.2554  1.2538
 2063TIP3   OH227603   4.330   0.448  12.436 -0.3693 -0.4593  0.2966
 2063TIP3    H127604   4.259   0.491  12.388  1.4337 -1.3566 -3.6264
 2063TIP3    H227605   4.296   0.361  12.456 -1.3355  0.1035  1.2355
 2064TIP3   OH227606   4.057   4.412   2.339  0.2383 -1.0133 -0.1300
 2064TIP3    H127607   4.020   4.497   2.362  1.0138  0.5015 -3.8269
 2064TIP3    H227608   3.981   4.359   2.314 -0.0357 -0.3658 -0.7041
 2065TIP3   OH227609   1.341   3.594  14.524 -0.3730  0.2575 -0.3171
 2065TIP3    H127610   1.286   3.670  14.503  0.0548  0.0188 -2.5315
 2065TIP3    H227611   1.368   3.609  14.614 -0.3921  2.6958 -0.6467
 2066TIP3   OH227612   6.077   3.334  14.720  0.3631 -0.4256 -0.1112
 2066TIP3    H127613   6.062   3.420  14.759 -0.3806  0.6299 -2.5449
 2066TIP3    H227614   6.018   3.275  14.767 -0.1468  0.6816  0.6539
 2067TIP3   OH227615   5.846   4.532   3.886  0.0290  0.0186  0.1186
 2067TIP3    H127616   5.795   4.452   3.895 -0.3782  0.1501 -0.8702
 2067TIP3    H227617   5.791   4.600   3.925  0.0297 -0.0606  0.2565
 2068TIP3   OH227618   2.537   0.817   6.273 -0.0004 -0.1472  0.2802
 2068TIP3    H127619   2.496   0.792   6.356 -0.2555 -1.7749 -0.2979
 2068TIP3    H227620   2.485   0.772   6.206  2.1816 -1.6124 -0.5421
 2069TIP3   OH227621   2.229   1.234  11.125 -0.2357 -0.2655  0.2759
 2069TIP3    H127622   2.319   1.249  11.156  0.3764 -0.1444 -1.4455
 2069TIP3    H227623   2.218   1.297  11.053 -1.1019 -1.4367 -0.6438
 2070TIP3   OH227624   2.759   4.964   2.391  0.3152 -0.4262  0.0911
 2070TIP3    H127625   2.778   4.897   2.327  0.4937 -1.3539  1.0855
 2070TIP3    H227626   2.749   4.917   2.474 -1.4035  0.5614  0.4908
 2071TIP3   OH227627   4.913   0.115  17.024  0.3774 -0.2420  0.2487
 2071TIP3    H127628   5.008   0.105  17.014  0.3600 -1.7709  1.1787
 2071TIP3    H227629   4.875   0.059  16.956  0.1375  0.0809  0.1120
 2072TIP3   OH227630   3.863   6.538  15.409 -0.2900 -0.4810 -0.2786
 2072TIP3    H127631   3.823   6.624  15.401 -1.7483 -1.0062  0.9695
 2072TIP3    H227632   3.819   6.484  15.344  0.8340 -0.2572 -1.2731
 2073TIP3   OH227633   2.266   6.801   5.982  0.1112 -0.3499  0.8009
 2073TIP3    H127634   2.268   6.706   5.995 -1.7323 -0.6081 -0.4619
 2073TIP3    H227635   2.210   6.833   6.052 -0.7933 -0.4365  0.1318
 2074TIP3   OH227636   3.915   3.855  16.343 -0.0782 -0.6079  0.2349
 2074TIP3    H127637   3.980   3.806  16.393 -0.3266  0.0298  1.2025
 2074TIP3    H227638   3.968   3.913  16.287  0.2002 -0.5967  0.5026
 2075TIP3   OH227639   2.818   1.090  12.667  0.0108 -0.0245  1.1285
 2075TIP3    H127640   2.851   1.007  12.702 -2.2003 -1.3413  0.3059
 2075TIP3    H227641   2.836   1.154  12.736  2.8421 -0.8732  1.2957
 2076TIP3   OH227642   0.753   4.787   2.955  0.5904  0.1702 -0.0143
 2076TIP3    H127643   0.796   4.749   2.878 -0.2695  1.3042 -1.0969
 2076TIP3    H227644   0.660   4.786   2.934  0.3158  0.2661  1.1367
 2077TIP3   OH227645   1.623   1.802   3.307  0.0813  0.2330 -0.2747
 2077TIP3    H127646   1.664   1.716   3.316  0.5953  0.4987 -0.0352
 2077TIP3    H227647   1.696   1.864   3.316 -0.7644  0.8778  3.4004
 2078TIP3   OH227648   6.514   6.214  14.158  0.2568  0.1178  0.0784
 2078TIP3    H127649   6.431   6.201  14.111  0.8224 -1.8596 -0.4455
 2078TIP3    H227650   6.577   6.239  14.091  0.9230 -2.1182 -0.2200
 2079TIP3   OH227651   0.728   5.509  16.200 -0.1500  0.1026 -0.0311
 2079TIP3    H127652   0.813   5.551  16.215 -0.8847  0.9248  2.1724
 2079TIP3    H227653   0.692   5.557  16.125  0.1884  1.6699  0.7513
 2080TIP3   OH227654   5.575   3.043  15.925 -0.4805 -0.6459  0.4369
 2080TIP3    H127655   5.558   3.137  15.921 -0.0238 -0.4621  1.9508
 2080TIP3    H227656   5.664   3.037  15.960 -0.4238 -1.6477  0.1376
 2081TIP3   OH227657   6.340   0.707  14.117  0.6213 -0.6864  0.5075
 2081TIP3    H127658   6.409   0.770  14.098  1.6030 -1.3288  1.8100
 2081TIP3    H227659   6.351   0.687  14.210  1.1511 -3.7026 -0.1107
 2082TIP3   OH227660   6.577   3.121   2.459 -0.1387  0.1589  0.1824
 2082TIP3    H127661   6.617   3.037   2.481 -0.1985 -0.0363 -0.4217
 2082TIP3    H227662   6.531   3.147   2.538  0.2092 -0.1846  0.5053
 2083TIP3   OH227663   1.318   1.857   2.339  0.0838 -0.2237 -0.2122
 2083TIP3    H127664   1.261   1.822   2.270  2.3515 -0.1482 -2.2441
 2083TIP3    H227665   1.305   1.951   2.334 -1.8058 -0.3211  1.4445
 2084TIP3   OH227666   6.160   1.715  12.943 -0.4785  1.0475  0.7496
 2084TIP3    H127667   6.174   1.772  12.867 -3.6675  0.5762 -0.3043
 2084TIP3    H227668   6.193   1.630  12.915 -1.0853  1.0194  0.0871
 2085TIP3   OH227669   5.686   2.385   0.916 -0.0638 -0.4161  0.3010
 2085TIP3    H127670   5.760   2.349   0.868  0.1178  0.6955 -0.2809
 2085TIP3    H227671   5.725   2.434   0.989 -0.1311  1.2123 -0.7115
 2086TIP3   OH227672   4.995   4.546   5.263 -0.4493 -0.1514  0.5541
 2086TIP3    H127673   4.995   4.620   5.324  1.0130  0.4364 -0.1178
 2086TIP3    H227674   4.989   4.585   5.176 -0.5223 -0.8740  0.2218
 2087TIP3   OH227675   6.765   2.222  13.970  0.1774 -0.0739  0.3684
 2087TIP3    H127676   6.710   2.277  13.914  0.9772 -0.8981 -1.2817
 2087TIP3    H227677   6.751   2.256  14.059 -2.7044  0.0016 -0.0110
 2088TIP3   OH227678   2.068   5.363  13.064  0.7205  0.6102 -0.0793
 2088TIP3    H127679   2.074   5.306  12.987  0.8717  0.1917  0.2352
 2088TIP3    H227680   2.058   5.302  13.138  2.5159  0.9024  0.4469
 2089TIP3   OH227681   3.555   3.184  16.271 -0.2566 -0.3800 -0.0294
 2089TIP3    H127682   3.498   3.152  16.340  0.5195  0.3601  0.9786
 2089TIP3    H227683   3.554   3.280  16.280 -0.3831 -0.2453 -1.2391
 2090TIP3   OH227684   6.725   6.724  16.408 -0.6164 -0.3504 -0.3931
 2090TIP3    H127685   6.728   6.654  16.473  1.4513 -1.3185 -1.4400
 2090TIP3    H227686   6.688   6.799  16.455 -0.2796 -1.3420  1.5474
 2091TIP3   OH227687   5.475   5.502   2.630 -0.3228  0.1536  0.3157
 2091TIP3    H127688   5.390   5.533   2.599 -0.7450 -0.3523  0.9588
 2091TIP3    H227689   5.467   5.498   2.725  0.5972  0.6057  0.4269
 2092TIP3   OH227690   3.720   1.450  15.531  0.1521 -0.1350  0.2040
 2092TIP3    H127691   3.659   1.411  15.594  0.8950 -1.0847  0.3440
 2092TIP3    H227692   3.716   1.394  15.454  0.6799 -0.0666  0.1242
 2093TIP3   OH227693   1.246   5.930  16.173 -0.8824 -0.5786 -0.0183
 2093TIP3    H127694   1.194   5.936  16.253  0.0758 -0.6122  0.6303
 2093TIP3    H227695   1.192   5.878  16.113 -2.5758  1.2794 -0.2000
 2094TIP3   OH227696   1.449   2.345  16.353  0.6581 -0.5697  0.3929
 2094TIP3    H127697   1.544   2.353  16.366  0.8421 -0.5822 -0.7717
 2094TIP3    H227698   1.434   2.381  16.265 -0.2742 -1.4864  0.1485
 2095TIP3   OH227699   4.976   0.062   0.996 -0.2446 -0.0976  0.2983
 2095TIP3    H127700   4.970   0.070   0.901 -1.6250 -0.9136  0.2876
 2095TIP3    H227701   5.056   0.010   1.010 -0.7561 -1.1621 -0.5162
 2096TIP3   OH227702   4.789   2.003  16.302  0.2953 -0.3854  0.6998
 2096TIP3    H127703   4.756   2.090  16.324  0.7959  0.2847 -1.0615
 2096TIP3    H227704   4.714   1.959  16.261  0.6751  0.0419 -0.4824
 2097TIP3   OH227705   0.801   1.043  14.303  0.4111  0.2975 -1.2415
 2097TIP3    H127706   0.864   0.972  14.293  0.6521  0.6116 -1.9819
 2097TIP3    H227707   0.723   1.013  14.256  0.2868  0.2524 -1.0097
 2098TIP3   OH227708   6.382   4.765   1.505  0.3269 -0.2408 -0.0377
 2098TIP3    H127709   6.418   4.827   1.442 -0.9586 -0.1633 -0.7396
 2098TIP3    H227710   6.288   4.784   1.506  0.2150 -0.7265  1.3768
 2099TIP3   OH227711   0.708   4.770   1.247  0.3669 -0.0214  0.1558
 2099TIP3    H127712   0.693   4.726   1.331 -1.3620  0.2524  0.0379
 2099TIP3    H227713   0.713   4.863   1.269 -1.0933  0.1464 -0.1124
 2100TIP3   OH227714   2.037   3.182  12.738 -0.1343  0.0403 -0.1491
 2100TIP3    H127715   2.017   3.155  12.827  0.9385  0.9575  0.3916
 2100TIP3    H227716   2.005   3.110  12.683 -4.4973  1.1408  0.5812
 2101TIP3   OH227717   6.784   1.868   1.205 -0.1318  0.5327  0.1123
 2101TIP3    H127718   6.691   1.848   1.209  0.0012 -0.2406 -0.4064
 2101TIP3    H227719   6.820   1.803   1.145  0.7085  0.9508  0.1462
 2102TIP3   OH227720   2.579   4.362   2.627  0.3404 -0.3318  0.2275
 2102TIP3    H127721   2.485   4.362   2.641  0.4292  0.9469  1.0009
 2102TIP3    H227722   2.611   4.285   2.672 -0.4000 -1.1924 -0.6685
 2103TIP3   OH227723   2.757   3.300   0.108  0.1476 -0.3609  0.1254
 2103TIP3    H127724   2.739   3.235   0.040 -2.3871 -1.7372  1.9432
 2103TIP3    H227725   2.764   3.383   0.061  2.3917 -1.6876 -2.1500
 2104TIP3   OH227726   6.811   0.629   0.656  0.2137 -0.5170  0.9304
 2104TIP3    H127727   6.879   0.659   0.596  0.5703  1.0239  2.0401
 2104TIP3    H227728   6.860   0.595   0.732 -0.2397 -1.5544  0.7742
 2105TIP3   OH227729   4.441   0.234   0.420  0.5654 -0.0711  0.4531
 2105TIP3    H127730   4.515   0.266   0.473  0.3156  0.2471  0.6133
 2105TIP3    H227731   4.453   0.276   0.335  0.1309  0.6160  0.7217
 2106TIP3   OH227732   5.257   3.438  14.706 -0.4169 -0.0234  0.4237
 2106TIP3    H127733   5.352   3.446  14.701 -0.5248  0.7649 -0.5824
 2106TIP3    H227734   5.232   3.397  14.623 -1.0508  0.7939  0.1995
 2107TIP3   OH227735   5.875   5.326   3.551 -0.0084  0.5337 -0.5997
 2107TIP3    H127736   5.937   5.262   3.516 -1.6597 -2.0694  0.9230
 2107TIP3    H227737   5.928   5.404   3.569  2.4844 -1.0422 -0.7302
 2108TIP3   OH227738   4.150   5.207   3.495 -0.7147 -0.1687  0.0920
 2108TIP3    H127739   4.169   5.300   3.506 -0.5796 -0.0613 -0.9868
 2108TIP3    H227740   4.121   5.198   3.404  0.2413 -1.3286 -0.1260
 2109TIP3   OH227741   0.969   5.793  10.707 -0.5718 -0.5181 -0.3214
 2109TIP3    H127742   1.059   5.821  10.691 -0.6982 -0.6679 -1.3707
 2109TIP3    H227743   0.977   5.711  10.755 -0.1565 -0.2434  0.0819
 2110TIP3   OH227744   5.579   2.684   4.588 -0.2538 -0.2980  0.3208
 2110TIP3    H127745   5.541   2.701   4.675  1.6692 -0.6089  1.2778
 2110TIP3    H227746   5.525   2.612   4.553  0.0830 -1.5107  2.0975
 2111TIP3   OH227747   1.188   3.614  16.498 -0.3573 -0.4131  0.3965
 2111TIP3    H127748   1.129   3.653  16.562  0.3776 -0.3460  1.0487
 2111TIP3    H227749   1.249   3.561  16.550  0.2108 -0.4135 -0.2519
 2112TIP3   OH227750   5.498   0.475  10.888  0.9386  0.2004  0.3543
 2112TIP3    H127751   5.411   0.460  10.851  1.0508  0.2438  0.0680
 2112TIP3    H227752   5.548   0.515  10.816  0.8905  1.1470  0.8345
 2113TIP3   OH227753   0.303   5.649  14.173  0.4228  0.3447 -0.7019
 2113TIP3    H127754   0.331   5.558  14.163  2.7532  0.8664  0.3604
 2113TIP3    H227755   0.323   5.671  14.264 -1.9150  1.3944 -0.3651
 2114TIP3   OH227756   4.519   2.085  12.025 -0.1009  0.8986  1.0472
 2114TIP3    H127757   4.426   2.074  12.001  0.0953 -0.1310  0.6803
 2114TIP3    H227758   4.548   2.159  11.971 -0.5832  0.9080  0.7854
 2115TIP3   OH227759   2.028   2.761  11.066 -0.0170  0.0185 -0.2741
 2115TIP3    H127760   1.964   2.777  11.135  0.0480  0.6372 -0.3572
 2115TIP3    H227761   1.976   2.755  10.986 -0.1869 -1.5418 -0.0779
 2116TIP3   OH227762   5.103   2.435   1.729 -0.1395  0.3544 -0.0667
 2116TIP3    H127763   5.175   2.434   1.792 -0.1509  1.4913 -0.0081
 2116TIP3    H227764   5.025   2.415   1.781  0.1250 -0.9547 -0.1438
 2117TIP3   OH227765   5.757   0.289  10.694 -0.1522 -0.6663 -0.3736
 2117TIP3    H127766   5.780   0.204  10.732  0.4702 -0.9279 -1.2817
 2117TIP3    H227767   5.692   0.268  10.627 -1.2271 -0.2135  0.4959
 2118TIP3   OH227768   3.844   4.801   0.883  0.4776  0.0605  0.0052
 2118TIP3    H127769   3.825   4.711   0.907 -0.8569 -0.0060 -1.1453
 2118TIP3    H227770   3.874   4.842   0.964  0.1446 -1.1536  0.7689
 2119TIP3   OH227771   1.553   2.003  13.996 -0.1396  0.5015  0.6369
 2119TIP3    H127772   1.597   2.072  13.945  1.5725 -0.0303  1.3380
 2119TIP3    H227773   1.520   1.942  13.929  0.6123  0.6751  0.0888
 2120TIP3   OH227774   2.348   6.341  11.629  0.1096  0.2823  0.5602
 2120TIP3    H127775   2.389   6.260  11.597 -1.1322 -0.6586  1.2563
 2120TIP3    H227776   2.254   6.325  11.621 -0.1587  1.5988  0.8780
 2121TIP3   OH227777   3.689   0.117   4.079  0.4615  0.0291  0.3583
 2121TIP3    H127778   3.714   0.088   4.166  0.3572  3.0694  1.5313
 2121TIP3    H227779   3.754   0.078   4.021  0.2061 -2.5108  1.6516
 2122TIP3   OH227780   3.111   6.722  15.915 -0.0048  0.0522  0.1577
 2122TIP3    H127781   3.094   6.799  15.860  1.7174 -0.2132 -0.8336
 2122TIP3    H227782   3.101   6.647  15.856 -0.7632 -0.4395  0.8881
 2123TIP3   OH227783   3.437   0.829   4.366  0.0837  0.0049  0.2115
 2123TIP3    H127784   3.518   0.780   4.373 -0.0996 -0.2832  0.3288
 2123TIP3    H227785   3.451   0.908   4.419  0.3505  0.0459  0.0812
 2124TIP3   OH227786   0.161   5.208   5.542  0.1214 -0.3953 -0.4188
 2124TIP3    H127787   0.249   5.245   5.544  0.2411 -0.3923 -2.9508
 2124TIP3    H227788   0.145   5.181   5.633  2.2891  0.5644  0.3246
 2125TIP3   OH227789   4.264   6.653  15.274  0.0911 -0.1707 -0.1128
 2125TIP3    H127790   4.338   6.679  15.219 -0.7167  1.3393 -0.5260
 2125TIP3    H227791   4.191   6.642  15.213 -0.3335 -0.4738  0.4389
 2126TIP3   OH227792   1.921   6.240  10.893  0.6513  0.3845  0.0057
 2126TIP3    H127793   1.844   6.188  10.872 -0.4296  2.6472 -2.0429
 2126TIP3    H227794   1.992   6.197  10.845  0.2460 -0.4169  0.0960
 2127TIP3   OH227795   4.998   5.483  13.637  0.1283 -0.4124  0.6365
 2127TIP3    H127796   5.064   5.434  13.589  1.1168 -0.2332  1.7593
 2127TIP3    H227797   4.954   5.418  13.691 -0.7242 -0.5512 -0.1933
 2128TIP3   OH227798   2.367   1.163   5.374 -0.0075 -0.5319  0.3766
 2128TIP3    H127799   2.398   1.229   5.311 -0.3169 -0.3206  0.4428
 2128TIP3    H227800   2.273   1.156   5.357 -0.1382 -0.3009  0.9704
 2129TIP3   OH227801   3.177   1.357   2.197 -0.4777 -0.6406  0.6224
 2129TIP3    H127802   3.240   1.302   2.150  1.6732  1.6751  0.5577
 2129TIP3    H227803   3.209   1.359   2.287  0.3091  1.4417  0.3677
 2130TIP3   OH227804   3.001   5.835   3.115 -0.0215 -0.0562  0.1739
 2130TIP3    H127805   2.951   5.868   3.041 -1.5701  0.5742  1.4371
 2130TIP3    H227806   3.004   5.908   3.177 -0.9677 -1.3040  1.7872
 2131TIP3   OH227807   1.593   0.917  11.022 -1.1544 -0.6542 -0.5029
 2131TIP3    H127808   1.510   0.961  11.041 -1.1928 -0.4281 -1.1525
 2131TIP3    H227809   1.660   0.982  11.045 -1.1730 -0.6973 -0.3304
 2132TIP3   OH227810   4.051   6.181   4.134  0.5657 -0.5572 -0.4961
 2132TIP3    H127811   3.998   6.107   4.104 -0.0425 -0.5138  0.4354
 2132TIP3    H227812   3.992   6.256   4.132  0.8912 -0.2951 -0.4683
 2133TIP3   OH227813   3.722   3.418   6.027 -0.1646  0.0290  0.3347
 2133TIP3    H127814   3.705   3.512   6.014 -2.6714 -0.4737 -0.6912
 2133TIP3    H227815   3.754   3.388   5.942  1.2846  0.0321  0.8536
 2134TIP3   OH227816   2.021   1.637   3.460  0.5091 -0.4026 -0.5137
 2134TIP3    H127817   2.054   1.678   3.540 -1.9391 -0.6287  0.7152
 2134TIP3    H227818   2.093   1.583   3.429  1.1623 -1.3063  2.2849
 2135TIP3   OH227819   5.221   3.125  13.586 -0.0935  0.1119  0.6795
 2135TIP3    H127820   5.198   3.218  13.581  1.4651  0.4733 -0.3170
 2135TIP3    H227821   5.309   3.124  13.623  2.7641 -0.4030 -5.1131
 2136TIP3   OH227822   4.207   2.079  14.115 -0.1260  0.5868 -0.2217
 2136TIP3    H127823   4.130   2.040  14.156 -0.4013  0.8497 -0.4916
 2136TIP3    H227824   4.278   2.063  14.178 -0.0197 -1.1960 -0.7399
 2137TIP3   OH227825   4.000   1.976   1.205  0.1325 -0.0897  0.2532
 2137TIP3    H127826   3.988   1.985   1.110 -1.2625 -0.2754  0.3998
 2137TIP3    H227827   4.059   2.048   1.228 -0.1021  0.4099 -0.6491
 2138TIP3   OH227828   3.976   4.699  16.131  0.8606  0.1421 -0.3324
 2138TIP3    H127829   3.945   4.636  16.196  1.2601  0.1882 -0.0948
 2138TIP3    H227830   4.068   4.715  16.155  0.2591  2.2777  0.7781
 2139TIP3   OH227831   6.202   3.478  13.070 -0.3471 -0.9494 -0.7781
 2139TIP3    H127832   6.189   3.443  13.158 -1.9474  3.2796  0.9485
 2139TIP3    H227833   6.286   3.525  13.075  0.5820 -2.3330 -2.2457
 2140TIP3   OH227834   6.499   5.189   2.792  0.0500 -0.3856 -0.1149
 2140TIP3    H127835   6.522   5.271   2.836 -0.2255  0.3107 -1.2430
 2140TIP3    H227836   6.577   5.166   2.742  0.1975 -0.9308  0.3607
 2141TIP3   OH227837   4.823   4.859  16.590 -0.0174 -0.5324 -0.1292
 2141TIP3    H127838   4.790   4.830  16.505 -0.7540 -0.0415 -0.0190
 2141TIP3    H227839   4.788   4.948  16.601  1.6213  0.1628 -0.1574
 2142TIP3   OH227840   2.266   0.030  13.541  0.4506 -0.4297 -0.4543
 2142TIP3    H127841   2.272  -0.054  13.588  1.1052  0.1320  0.5106
 2142TIP3    H227842   2.357   0.053  13.521  0.1855 -0.6341 -2.0094
 2143TIP3   OH227843   5.002   4.174  13.868 -0.6821  0.3012 -0.3751
 2143TIP3    H127844   5.075   4.115  13.887 -1.1583 -0.3462 -0.5223
 2143TIP3    H227845   4.958   4.184  13.953 -0.0918  1.1636 -0.1568
 2144TIP3   OH227846   3.491   3.935   1.303 -0.4913 -0.0452  0.4717
 2144TIP3    H127847   3.457   3.860   1.255  0.0175 -1.5990  2.3835
 2144TIP3    H227848   3.500   4.005   1.238 -2.3265 -1.1857 -1.0881
 2145TIP3   OH227849   1.613   0.718   2.275 -0.7712  0.9180  0.2570
 2145TIP3    H127850   1.543   0.661   2.307 -1.7190  1.2872 -1.0670
 2145TIP3    H227851   1.589   0.805   2.308  0.0624  0.7623  1.3198
 2146TIP3   OH227852   0.929   6.168  16.959  0.3409 -0.1123 -0.0153
 2146TIP3    H127853   0.853   6.120  16.991  1.0916 -0.3041  1.6106
 2146TIP3    H227854   0.998   6.102  16.952  1.1070  0.5166  1.2698
 2147TIP3   OH227855   3.467   6.019  10.672 -0.0295 -0.1778  0.4560
 2147TIP3    H127856   3.545   5.967  10.693  1.3141  0.2513 -2.7694
 2147TIP3    H227857   3.493   6.109  10.690  0.8256  0.1057 -1.8915
 2148TIP3   OH227858   1.856   2.514   5.237 -1.0399  0.0867 -0.2792
 2148TIP3    H127859   1.866   2.537   5.145 -1.0900 -0.1354 -0.3417
 2148TIP3    H227860   1.835   2.596   5.281  0.0754  0.3973 -0.2932
 2149TIP3   OH227861   5.364   1.817   4.996 -0.5574  0.2697 -0.8691
 2149TIP3    H127862   5.321   1.856   4.920 -0.0206  0.3691 -1.1204
 2149TIP3    H227863   5.444   1.868   5.008 -0.5000  0.0747 -0.4103
 2150TIP3   OH227864   2.052   1.506   1.298 -0.6270  0.1415 -0.3367
 2150TIP3    H127865   2.128   1.511   1.356 -0.9024 -0.2897  0.0692
 2150TIP3    H227866   2.045   1.413   1.275 -0.7968  0.2389 -0.6908
 2151TIP3   OH227867   0.106   4.958  12.225 -0.0999  0.0058 -0.0792
 2151TIP3    H127868   0.087   4.907  12.147 -1.8288  1.3621 -0.6017
 2151TIP3    H227869   0.089   4.898  12.298  1.7488 -1.3444 -0.6716
 2152TIP3   OH227870   6.129   1.665  15.265  0.1634  0.6543 -0.3784
 2152TIP3    H127871   6.128   1.660  15.169  0.6051 -1.5986 -0.3253
 2152TIP3    H227872   6.038   1.679  15.290 -0.6232 -2.4312 -1.0855
 2153TIP3   OH227873   1.271   1.474  13.058  0.3267  0.0693  0.1340
 2153TIP3    H127874   1.333   1.402  13.073  0.8999  0.9605  2.5267
 2153TIP3    H227875   1.223   1.482  13.140 -3.7471 -1.1296 -1.8444
 2154TIP3   OH227876   1.639   4.948  10.484 -0.0625  0.3096 -0.7649
 2154TIP3    H127877   1.583   5.014  10.443  0.2695  0.2971 -1.2396
 2154TIP3    H227878   1.581   4.873  10.498 -0.3656  0.5908 -0.5012
 2155TIP3   OH227879   1.850   5.201   0.695 -0.2706  0.1463 -0.1216
 2155TIP3    H127880   1.835   5.144   0.620 -1.1917 -1.7582  1.3965
 2155TIP3    H227881   1.781   5.177   0.757  0.8210  1.1776  1.5732
 2156TIP3   OH227882   0.974   0.890  14.155  0.2553 -0.3794  0.1764
 2156TIP3    H127883   1.031   0.965  14.138 -0.1228 -0.0179  0.4707
 2156TIP3    H227884   0.905   0.898  14.090  0.8802 -1.1791 -0.5940
 2157TIP3   OH227885   0.317   5.348   2.889 -0.3032  0.3981  0.1539
 2157TIP3    H127886   0.397   5.369   2.840 -0.8434  2.3646  0.0319
 2157TIP3    H227887   0.340   5.364   2.980 -0.3902  0.4396  0.1691
 2158TIP3   OH227888   4.728   0.958  13.984 -0.1506 -0.2680 -0.6211
 2158TIP3    H127889   4.750   0.941  13.893  1.1794 -0.6184 -0.2713
 2158TIP3    H227890   4.810   0.940  14.031 -0.6619  0.4207  0.5717
 2159TIP3   OH227891   1.455   2.849  14.609 -0.1610 -0.3116  0.2838
 2159TIP3    H127892   1.388   2.916  14.623  1.6624  1.2384  2.2377
 2159TIP3    H227893   1.426   2.774  14.661 -0.6002  0.1840  0.7580
 2160TIP3   OH227894   2.884   0.974  12.349  0.2383  0.3596 -0.1144
 2160TIP3    H127895   2.854   1.047  12.404  0.2203  2.6309 -2.8818
 2160TIP3    H227896   2.810   0.914  12.346 -0.3532  1.0092  1.0119
 2161TIP3   OH227897   0.907   6.562   0.369  0.1005 -0.2765  0.2972
 2161TIP3    H127898   0.813   6.567   0.390 -0.4411 -0.8130 -1.7923
 2161TIP3    H227899   0.921   6.633   0.306  1.6233  1.1830  2.1353
 2162TIP3   OH227900   4.777   6.695  14.672 -0.4027  0.2682  0.5599
 2162TIP3    H127901   4.719   6.729  14.604  0.8019  1.0203 -0.1428
 2162TIP3    H227902   4.734   6.715  14.754 -1.0018  1.0531  0.0634
 2163TIP3   OH227903   2.498   0.431  15.048 -0.0206 -0.5162  0.5013
 2163TIP3    H127904   2.582   0.399  15.016  0.9569  1.3336  1.1073
 2163TIP3    H227905   2.479   0.508  14.995 -0.2243  0.3745  1.8331
 2164TIP3   OH227906   0.581   1.443  15.566 -0.3360  0.0614 -0.4232
 2164TIP3    H127907   0.531   1.525  15.570 -0.1233  0.2213 -0.8797
 2164TIP3    H227908   0.583   1.411  15.656  0.5008  1.1126 -0.0539
 2165TIP3   OH227909   5.413   3.371  13.955  0.3774 -0.4415  0.0282
 2165TIP3    H127910   5.400   3.447  14.011  0.2294 -0.5532  0.1455
 2165TIP3    H227911   5.326   3.331  13.947  0.7736 -1.6911  1.5067
 2166TIP3   OH227912   5.675   4.774   2.243  0.0799  0.3978 -0.6216
 2166TIP3    H127913   5.669   4.869   2.232 -1.7996  0.2315 -1.4562
 2166TIP3    H227914   5.595   4.750   2.290  0.3602 -0.8032 -0.7306
 2167TIP3   OH227915   6.277   1.690   2.115  0.0572 -0.4837  0.2189
 2167TIP3    H127916   6.281   1.639   2.034 -1.2455  1.8862 -1.4605
 2167TIP3    H227917   6.368   1.716   2.131  0.6434 -2.6337  0.7481
 2168TIP3   OH227918   0.092   3.368  16.199 -0.5701  0.2622 -0.0789
 2168TIP3    H127919   0.068   3.279  16.226 -0.4632  0.8290  2.1214
 2168TIP3    H227920   0.026   3.423  16.241 -0.0523  1.2893 -0.5973
 2169TIP3   OH227921   1.929   2.849  10.814  0.0642 -1.3021  0.1757
 2169TIP3    H127922   1.916   2.820  10.724  0.7882 -0.9844 -0.0365
 2169TIP3    H227923   1.847   2.891  10.838  1.0773  2.0833 -1.6768
 2170TIP3   OH227924   4.117   4.914  13.499 -0.0275 -0.4557  0.4067
 2170TIP3    H127925   4.167   4.902  13.580  1.2879 -1.0677 -0.4509
 2170TIP3    H227926   4.172   4.875  13.432 -1.1836 -0.1274 -0.7639
 2171TIP3   OH227927   3.308   2.679  12.121  0.3675 -0.0309  0.0633
 2171TIP3    H127928   3.399   2.710  12.114 -0.2338  1.5937 -1.1551
 2171TIP3    H227929   3.270   2.735  12.189  0.0393 -0.0686 -0.0922
 2172TIP3   OH227930   2.814   4.931   3.629  0.3036 -0.0559  0.2093
 2172TIP3    H127931   2.773   4.847   3.647  0.1656  0.3359  1.8905
 2172TIP3    H227932   2.777   4.959   3.545 -1.0350 -0.8257  0.5192
 2173TIP3   OH227933   1.579   4.058   4.337 -0.2622 -1.1061  0.6727
 2173TIP3    H127934   1.543   4.145   4.355  2.5705  0.1857  0.7791
 2173TIP3    H227935   1.542   4.033   4.253 -1.6734 -0.1095  0.9690
 2174TIP3   OH227936   0.908   1.551   2.192 -0.7043  0.6231  0.1080
 2174TIP3    H127937   0.924   1.466   2.151  0.3137  1.6273 -1.7323
 2174TIP3    H227938   0.840   1.591   2.139  0.4960  1.8730 -0.5586
 2175TIP3   OH227939   6.419   2.612   2.844  0.4519  0.8247  0.0576
 2175TIP3    H127940   6.426   2.648   2.756 -1.8722 -0.4168 -0.7145
 2175TIP3    H227941   6.506   2.577   2.863  1.6963  3.2626 -0.6964
 2176TIP3   OH227942   3.909   4.571   5.686  0.8817  0.0096 -0.3541
 2176TIP3    H127943   3.831   4.527   5.651 -0.2246 -0.7306  2.7874
 2176TIP3    H227944   3.943   4.511   5.752  2.3141  1.7242  0.5402
 2177TIP3   OH227945   6.116   2.124  16.185  0.6742  0.1867  0.1007
 2177TIP3    H127946   6.143   2.132  16.276  1.2373  0.4218 -0.0807
 2177TIP3    H227947   6.174   2.059  16.147  0.5453  0.2001 -0.1295
 2178TIP3   OH227948   1.366   3.044   3.964 -0.7362  0.3137  0.3165
 2178TIP3    H127949   1.310   2.995   3.904 -1.2170  0.5778  0.5418
 2178TIP3    H227950   1.447   2.993   3.968 -1.0956 -0.2741  0.2733
 2179TIP3   OH227951   0.656   3.424  15.664 -0.0214  0.0743  0.0548
 2179TIP3    H127952   0.590   3.445  15.730 -0.4791 -1.2217  0.0274
 2179TIP3    H227953   0.607   3.378  15.596  0.6349  0.4978 -0.7253
 2180TIP3   OH227954   1.817   6.632   2.862  0.3317  0.1794 -0.1226
 2180TIP3    H127955   1.737   6.657   2.816  1.0110 -0.0683 -1.4782
 2180TIP3    H227956   1.865   6.578   2.800  1.3696 -0.0392  0.8277
 2181TIP3   OH227957   0.342   2.166   4.591 -0.8297  0.2465  0.6350
 2181TIP3    H127958   0.433   2.173   4.561 -1.5308  1.7807 -1.2769
 2181TIP3    H227959   0.337   2.226   4.665 -0.8247  1.9599 -0.7098
 2182TIP3   OH227960   6.079   4.470   2.974  0.2889  0.0293 -0.4059
 2182TIP3    H127961   6.087   4.377   2.951  1.8792 -0.1954  0.8925
 2182TIP3    H227962   6.105   4.474   3.066  1.7903  1.9685 -0.8614
 2183TIP3   OH227963   3.666   0.238  15.235  0.7892  0.2245  0.2451
 2183TIP3    H127964   3.655   0.238  15.330  3.5492  0.6273  0.6397
 2183TIP3    H227965   3.652   0.146  15.209 -3.3713  0.6138  0.4357
 2184TIP3   OH227966   1.834   5.835  15.104  0.2599  0.0697  0.2216
 2184TIP3    H127967   1.850   5.797  15.190  2.8458 -3.4742 -1.5896
 2184TIP3    H227968   1.743   5.811  15.085  0.2477 -0.7758  1.2233
 2185TIP3   OH227969   5.882   4.442   1.512 -0.3357  0.1497  0.7560
 2185TIP3    H127970   5.842   4.514   1.561 -0.5365  0.6936 -0.1883
 2185TIP3    H227971   5.813   4.375   1.508 -1.5030  1.3659 -1.4844
 2186TIP3   OH227972   3.572   5.696  16.104 -0.2574 -0.9695  0.2380
 2186TIP3    H127973   3.493   5.656  16.142 -0.8233 -1.3375 -1.2683
 2186TIP3    H227974   3.586   5.648  16.022 -0.3035  1.1437 -1.0804
 2187TIP3   OH227975   3.644   3.384  13.937  0.5607 -0.0550 -0.6605
 2187TIP3    H127976   3.640   3.475  13.968  0.6072 -0.4548  0.5710
 2187TIP3    H227977   3.658   3.392  13.842  0.4790  1.2187 -0.5890
 2188TIP3   OH227978   3.344   0.514  15.429  0.6615 -0.2467 -0.2655
 2188TIP3    H127979   3.295   0.431  15.422  0.7443 -0.3408  0.2387
 2188TIP3    H227980   3.305   0.570  15.363  0.4319 -0.6082 -0.4403
 2189TIP3   OH227981   6.095   5.695  12.445  0.2343 -0.4413 -0.6936
 2189TIP3    H127982   6.127   5.689  12.355  1.0876 -1.6344 -0.3241
 2189TIP3    H227983   6.016   5.641  12.446  0.8808 -1.4001 -0.4528
 2190TIP3   OH227984   0.498   3.340  11.690 -0.2694  0.2998  0.1319
 2190TIP3    H127985   0.418   3.306  11.730  1.0895 -2.8344  0.4869
 2190TIP3    H227986   0.532   3.403  11.753 -0.2502 -1.5866  2.1040
 2191TIP3   OH227987   1.057   0.561  13.407  0.0661  0.3442  0.1076
 2191TIP3    H127988   1.128   0.622  13.429 -0.7812  2.2656 -2.0338
 2191TIP3    H227989   0.991   0.616  13.364 -1.8588 -1.7129  0.2689
 2192TIP3   OH227990   2.040   1.844  11.178  0.5061  0.2850 -0.2901
 2192TIP3    H127991   2.110   1.903  11.153  0.8863 -0.3653 -0.7903
 2192TIP3    H227992   2.064   1.812  11.265  0.5489  0.4825 -0.2301
 2193TIP3   OH227993   4.924   4.099  15.663 -0.4958 -0.1260  0.1764
 2193TIP3    H127994   4.946   4.020  15.612 -2.0571 -1.1696  1.0605
 2193TIP3    H227995   4.840   4.128  15.628 -1.4428 -0.6756  1.9126
 2194TIP3   OH227996   4.207   2.230  15.616  0.3226 -0.0912  0.3590
 2194TIP3    H127997   4.192   2.266  15.529 -0.8766 -0.7967  0.2496
 2194TIP3    H227998   4.290   2.184  15.609  1.0691  1.2544  0.0637
 2195TIP3   OH227999   3.312   5.373   1.424  0.0619  0.3913  0.0066
 2195TIP3    H128000   3.393   5.335   1.457  0.5389  0.1007 -1.4168
 2195TIP3    H228001   3.325   5.468   1.431  0.3122  0.3379  0.2774
 2196TIP3   OH228002   2.877   4.707   4.487 -0.4952  0.0888  0.8800
 2196TIP3    H128003   2.937   4.775   4.517 -2.1418  0.9538  2.4186
 2196TIP3    H228004   2.876   4.643   4.558 -1.5028  0.1825  0.9630
 2197TIP3   OH228005   1.796   1.033  11.382 -1.0616 -0.4538  0.6476
 2197TIP3    H128006   1.866   1.081  11.338 -2.0194  1.3130  0.9682
 2197TIP3    H228007   1.811   0.942  11.357  1.0420 -0.0706  0.3162
 2198TIP3   OH228008   3.474   3.772   5.140 -0.5482 -0.2484  0.0399
 2198TIP3    H128009   3.557   3.733   5.111 -0.7182 -0.6919  0.1293
 2198TIP3    H228010   3.497   3.861   5.164  0.2234 -0.8227  1.5516
 2199TIP3   OH228011   0.900   6.714   1.726  0.3348  0.3239 -0.2614
 2199TIP3    H128012   0.875   6.671   1.644  1.1949 -1.1439  0.1960
 2199TIP3    H228013   0.859   6.800   1.722 -1.7056 -0.6192 -1.1298
 2200TIP3   OH228014   4.940   5.907  16.078 -0.3321  0.5567 -0.3439
 2200TIP3    H128015   4.900   5.839  16.131 -1.1020  1.1221 -0.1768
 2200TIP3    H228016   5.026   5.872  16.054 -0.0928  0.1577  1.0047
 2201TIP3   OH228017   4.183   5.917  16.597  0.5183 -0.3085 -0.7473
 2201TIP3    H128018   4.158   5.832  16.634 -1.2556  0.4314 -0.0847
 2201TIP3    H228019   4.151   5.914  16.507 -0.7886  0.1162 -0.3217
 2202TIP3   OH228020   3.101   1.683   6.456  0.3167  0.0902  0.4736
 2202TIP3    H128021   3.128   1.618   6.392  0.9492  0.3815  0.4326
 2202TIP3    H228022   3.009   1.665   6.472 -0.1341  0.6535 -1.2944
 2203TIP3   OH228023   1.453   1.400  13.467 -0.5744  0.1329 -0.1597
 2203TIP3    H128024   1.379   1.401  13.528  0.1857 -0.4425  0.7952
 2203TIP3    H228025   1.442   1.318  13.418  0.8829 -1.3616  1.8681
 2204TIP3   OH228026   0.808   0.750   2.905 -0.0258 -0.2902  0.4313
 2204TIP3    H128027   0.895   0.755   2.865 -0.0995  0.5201  0.3531
 2204TIP3    H228028   0.785   0.841   2.926 -0.3806 -0.6032  1.4876
 2205TIP3   OH228029   1.391   0.667   3.113 -0.2187 -0.1864 -0.9172
 2205TIP3    H128030   1.344   0.616   3.046  1.3809 -0.4382 -1.9057
 2205TIP3    H228031   1.458   0.607   3.146  1.8374  1.2674 -2.2419
 2206TIP3   OH228032   6.293   0.922   4.454  0.1610 -0.2792  0.7357
 2206TIP3    H128033   6.287   0.892   4.545  0.2582 -2.6086  0.0397
 2206TIP3    H228034   6.203   0.924   4.424 -0.1372  2.7665  1.4545
 2207TIP3   OH228035   1.254   2.020  14.460  0.4518 -0.2157  0.1673
 2207TIP3    H128036   1.281   2.100  14.505 -0.2449 -0.9021  1.8745
 2207TIP3    H228037   1.306   1.951  14.501  0.0252 -0.8240 -0.2980
 2208TIP3   OH228038   3.499   4.815   5.454 -0.3196 -0.4162 -0.2038
 2208TIP3    H128039   3.438   4.811   5.528  0.0301  0.2239  0.1296
 2208TIP3    H228040   3.448   4.853   5.383  0.2406  2.2034  0.6932
 2209TIP3   OH228041   6.026   2.023   4.749  0.7594  0.2740 -0.1335
 2209TIP3    H128042   5.960   1.988   4.809  1.4855 -0.4340  0.2659
 2209TIP3    H228043   6.014   2.118   4.753 -0.3802  0.1412 -0.2415
 2210TIP3   OH228044   5.056   1.228   5.187 -0.1937 -0.2375 -0.1343
 2210TIP3    H128045   5.144   1.190   5.185  0.6519  1.5956 -0.2951
 2210TIP3    H228046   5.029   1.228   5.095  0.6502  1.2916 -0.4223
 2211TIP3   OH228047   4.730   2.761   4.840  0.4073 -0.2052  0.2398
 2211TIP3    H128048   4.645   2.766   4.798  0.7216  0.9077 -0.3063
 2211TIP3    H228049   4.712   2.726   4.928 -0.7545  1.0865  0.5398
 2212TIP3   OH228050   5.914   2.954   3.658 -0.3387 -0.4392  0.1570
 2212TIP3    H128051   5.878   2.865   3.653 -0.4121 -0.4205  0.3444
 2212TIP3    H228052   5.923   2.970   3.752  0.5817 -0.6191  0.1113
 2213TIP3   OH228053   1.317   5.628   4.120 -0.1337 -0.7120  0.2302
 2213TIP3    H128054   1.359   5.685   4.055 -1.3859 -0.2275 -0.1859
 2213TIP3    H228055   1.269   5.563   4.068 -2.1231  0.3794  0.5842
 2214TIP3   OH228056   6.813   2.933   4.616  0.1185  0.2299 -0.3759
 2214TIP3    H128057   6.864   2.976   4.684  1.5387 -2.1743  0.2131
 2214TIP3    H228058   6.877   2.883   4.565 -1.1848  0.2311 -2.1355
 2215TIP3   OH228059   6.302   4.140   0.099 -0.5779 -0.2086 -0.0155
 2215TIP3    H128060   6.254   4.122   0.019  0.3053 -1.2027 -0.3590
 2215TIP3    H228061   6.390   4.162   0.069 -0.3371 -0.2329  0.6577
 2216TIP3   OH228062   5.501   4.593   0.297  0.5809 -0.7469 -0.8862
 2216TIP3    H128063   5.422   4.610   0.246 -0.0271  0.8243  0.4956
 2216TIP3    H228064   5.546   4.677   0.300  0.2637 -0.5901  1.6542
 2217TIP3   OH228065   5.342   1.259  15.135 -0.0568  0.5253 -0.0445
 2217TIP3    H128066   5.342   1.163  15.129  1.0549  0.4806  0.4097
 2217TIP3    H228067   5.363   1.278  15.226 -2.6242  1.2230  0.4631
 2218TIP3   OH228068   1.883   2.448   2.202 -0.6620 -0.3836 -0.2115
 2218TIP3    H128069   1.793   2.451   2.235 -0.4405  1.2551  0.3444
 2218TIP3    H228070   1.877   2.402   2.119 -2.2470  0.7745 -0.7926
 2219TIP3   OH228071   3.546   3.230  15.388 -0.2321  0.0272  0.1611
 2219TIP3    H128072   3.635   3.218  15.355 -0.4509  1.0147 -0.8402
 2219TIP3    H228073   3.520   3.144  15.420  0.9212 -0.3656  0.0664
 2220TIP3   OH228074   0.564   6.630   2.153  0.2284  0.3673 -0.6436
 2220TIP3    H128075   0.659   6.638   2.144  0.1789  0.2257 -1.4249
 2220TIP3    H228076   0.550   6.604   2.244  0.9887 -0.3342 -0.7117
 2221TIP3   OH228077   1.260   5.184   1.847  0.0164 -0.3557 -0.0607
 2221TIP3    H128078   1.208   5.175   1.767 -0.6131 -0.1257  0.3196
 2221TIP3    H228079   1.257   5.096   1.886 -2.8756  0.3834  1.6478
 2222TIP3   OH228080   2.210   0.740  10.942  0.1817  0.5115  0.7282
 2222TIP3    H128081   2.256   0.806  10.889  1.1441 -0.5795  0.1753
 2222TIP3    H228082   2.248   0.748  11.029  0.8410  0.1768  0.4750
 2223TIP3   OH228083   1.957   0.952  12.989  0.6879  0.1174  0.0525
 2223TIP3    H128084   1.996   1.022  12.936  0.3546  0.6753  0.5391
 2223TIP3    H228085   1.923   0.890  12.925  1.7241 -0.0206 -0.3853
 2224TIP3   OH228086   0.605   3.153  13.232  0.3754 -0.1301 -0.1368
 2224TIP3    H128087   0.682   3.209  13.235  0.0643  0.2946 -0.0385
 2224TIP3    H228088   0.578   3.153  13.140 -0.7376  1.4215  0.1501
 2225TIP3   OH228089   2.958   5.207  12.694  0.2453  0.1357 -0.5199
 2225TIP3    H128090   3.050   5.181  12.679  1.0707  1.1351  2.2405
 2225TIP3    H228091   2.938   5.264  12.620  2.3898  1.0999 -0.4487
 2226TIP3   OH228092   2.097   5.349  11.425 -0.5940  0.1974 -0.1050
 2226TIP3    H128093   2.146   5.380  11.349 -1.2755 -0.1196 -0.6831
 2226TIP3    H228094   2.121   5.257  11.433  2.1300  0.9701  2.1535
 2227TIP3   OH228095   2.289   2.670  11.282 -0.7062 -0.1575  1.0132
 2227TIP3    H128096   2.339   2.635  11.356  0.1269  0.3253  0.6958
 2227TIP3    H228097   2.302   2.765  11.288  2.2179 -0.2185 -1.6143
 2228TIP3   OH228098   6.341   1.817  14.401 -0.0134 -0.2924  0.4324
 2228TIP3    H128099   6.322   1.833  14.494  0.8694  0.5730  0.4812
 2228TIP3    H228100   6.395   1.738  14.401  1.2747  0.5464  0.8248
 2229TIP3   OH228101   2.695   3.718  12.090 -0.1270  0.2431 -0.2397
 2229TIP3    H128102   2.751   3.715  12.012  1.5280  0.7802  0.8607
 2229TIP3    H228103   2.714   3.636  12.136 -2.2499 -0.7989 -1.1014
 2230TIP3   OH228104   3.303   6.432  16.268 -0.0030 -0.3439  0.7394
 2230TIP3    H128105   3.350   6.363  16.314 -1.3363 -1.9557 -0.1977
 2230TIP3    H228106   3.361   6.457  16.196  0.1801 -1.0327  0.6422
 2231TIP3   OH228107   0.956   2.530  10.570  0.0872 -0.0026  0.0799
 2231TIP3    H128108   1.006   2.451  10.550 -0.3140 -0.8049  2.0126
 2231TIP3    H228109   0.970   2.544  10.663  1.3513  3.1124 -0.4620
 2232TIP3   OH228110   2.423   4.516  15.911  0.2678  0.1895 -0.1486
 2232TIP3    H128111   2.441   4.422  15.918 -1.4328 -0.1502 -0.0126
 2232TIP3    H228112   2.399   4.542  16.000  2.5554  1.2149  0.2566
 2233TIP3   OH228113   1.974   1.822   4.457  0.0686 -0.2252 -0.3358
 2233TIP3    H128114   2.054   1.776   4.483  0.6474  0.5942 -0.6381
 2233TIP3    H228115   1.953   1.879   4.531 -0.5021 -0.7557 -0.0712
 2234TIP3   OH228116   3.393   1.539  11.255  0.0262 -0.0630  0.0691
 2234TIP3    H128117   3.395   1.551  11.160  0.7818 -2.2027 -0.2513
 2234TIP3    H228118   3.424   1.450  11.268  1.8032  0.8077  2.4674
 2235TIP3   OH228119   0.446   6.565  13.724 -0.0219  0.3221 -1.2011
 2235TIP3    H128120   0.370   6.607  13.684 -0.9063  0.2087  0.2963
 2235TIP3    H228121   0.433   6.576  13.818  1.0714 -0.9897 -0.8638
 2236TIP3   OH228122   5.207   3.216  11.169 -0.6649  0.7253 -0.4135
 2236TIP3    H128123   5.136   3.279  11.158 -0.5741  0.7581 -0.8382
 2236TIP3    H228124   5.269   3.260  11.227 -2.0310 -0.1879  1.8743
 2237TIP3   OH228125   0.745   2.822   2.583  0.0466  0.0050  0.0042
 2237TIP3    H128126   0.767   2.836   2.676  0.8108 -0.7120 -0.0549
 2237TIP3    H228127   0.715   2.732   2.579 -1.2518  0.4303 -0.2384
 2238TIP3   OH228128   2.487   1.648   5.667 -0.5433 -0.0182 -0.1263
 2238TIP3    H128129   2.398   1.674   5.643 -0.3687  1.2420  0.5409
 2238TIP3    H228130   2.518   1.596   5.592 -1.1410  1.1696 -1.2376
 2239TIP3   OH228131   6.099   1.539   1.099 -0.5451  0.0809  0.1339
 2239TIP3    H128132   6.187   1.513   1.069 -0.5280 -0.9336  1.0152
 2239TIP3    H228133   6.089   1.497   1.184 -2.4419 -0.9978 -0.5557
 2240TIP3   OH228134   2.517   0.955  12.540  0.2680  0.7204  0.0931
 2240TIP3    H128135   2.488   0.910  12.619 -1.2641 -1.0193 -1.3798
 2240TIP3    H228136   2.437   0.984  12.498  0.8277 -0.8391 -2.1925
 2241TIP3   OH228137   2.134   6.165  15.776 -0.3096  0.3620 -0.4253
 2241TIP3    H128138   2.217   6.151  15.823 -1.7664 -2.1720  1.6603
 2241TIP3    H228139   2.140   6.105  15.701 -0.5056 -0.3869  0.1406
 2242TIP3   OH228140   5.647   6.576  16.123  0.7249  0.4135  0.0724
 2242TIP3    H128141   5.620   6.620  16.042  1.1237 -0.7344 -0.7138
 2242TIP3    H228142   5.699   6.502  16.093  1.5988  0.4451  1.4292
 2243TIP3   OH228143   2.342   2.640  10.040  0.2197 -0.7135  0.1621
 2243TIP3    H128144   2.325   2.730  10.066  2.1095 -0.1071 -0.5425
 2243TIP3    H228145   2.355   2.593  10.123  0.7446  0.0149  0.5106
 2244TIP3   OH228146   0.158   2.673  13.727 -0.0737 -0.2706  0.6263
 2244TIP3    H128147   0.167   2.578  13.716 -1.1086 -0.1559 -1.8681
 2244TIP3    H228148   0.239   2.700  13.770  1.3108 -1.9882 -0.7655
 2245TIP3   OH228149   2.756   1.880  15.279 -0.3648  0.1499 -0.2378
 2245TIP3    H128150   2.738   1.916  15.366 -0.9312  0.5152 -0.4963
 2245TIP3    H228151   2.765   1.786  15.293 -1.9971 -0.0030  0.0107
 2246TIP3   OH228152   1.555   2.642   2.443  0.0130 -0.1237  0.4245
 2246TIP3    H128153   1.465   2.651   2.411  0.6465  1.4052 -1.1027
 2246TIP3    H228154   1.559   2.699   2.520 -0.0739  0.6385 -0.1192
 2247TIP3   OH228155   0.422   0.969  14.594  0.6623  0.3662 -0.3865
 2247TIP3    H128156   0.474   1.048  14.607  0.1351  0.8981 -1.4296
 2247TIP3    H228157   0.444   0.913  14.669  1.0669  1.4763  0.3356
 2248TIP3   OH228158   2.076   1.312   4.142  0.3548 -0.3823 -0.3740
 2248TIP3    H128159   2.095   1.252   4.070  0.1799 -0.9387  0.0382
 2248TIP3    H228160   1.983   1.299   4.161  0.1436  0.5258 -0.7349
 2249TIP3   OH228161   3.770   4.123   1.609 -0.1014 -0.9624 -0.2178
 2249TIP3    H128162   3.861   4.102   1.628 -0.1285 -0.4698  0.5024
 2249TIP3    H228163   3.743   4.179   1.682 -0.5095  0.1952 -1.2343
 2250TIP3   OH228164   1.932   6.694  14.064  0.0251  0.2473  0.6146
 2250TIP3    H128165   1.979   6.649  14.134  0.1429  0.2782  0.5562
 2250TIP3    H228166   1.846   6.653  14.062  1.0045 -1.9276 -1.2788
 2251TIP3   OH228167   4.844   3.635  12.310 -0.0726 -0.2353 -0.0139
 2251TIP3    H128168   4.892   3.587  12.243  0.9319 -0.3508  0.7695
 2251TIP3    H228169   4.868   3.592  12.392 -0.6951  0.3781  0.5055
 2252TIP3   OH228170   3.736   1.362  16.585  0.3715  0.0091 -0.2281
 2252TIP3    H128171   3.799   1.412  16.636  0.5063  0.4649 -0.8331
 2252TIP3    H228172   3.758   1.381  16.493 -0.9533  0.6061 -0.4536
 2253TIP3   OH228173   5.411   4.725   3.776 -0.0680  0.2404 -0.0908
 2253TIP3    H128174   5.422   4.811   3.736  1.3762  0.2946  0.3680
 2253TIP3    H228175   5.390   4.667   3.704 -1.1934  0.9914 -0.3871
 2254TIP3   OH228176   1.243   2.333   2.117  0.1699 -0.5054 -0.2520
 2254TIP3    H128177   1.192   2.384   2.055  1.3469  0.8206 -0.1792
 2254TIP3    H228178   1.211   2.243   2.107 -1.9859  0.2369 -0.3403
 2255TIP3   OH228179   3.305   2.699  13.615 -0.1016 -0.2888 -0.2579
 2255TIP3    H128180   3.328   2.663  13.701  0.4620  1.6547  0.4724
 2255TIP3    H228181   3.385   2.742  13.585 -1.2889  2.3656  0.0682
 2256TIP3   OH228182   1.649   2.188  12.196  0.6110  0.6522 -0.3440
 2256TIP3    H128183   1.690   2.168  12.111  3.0807  1.4659  0.5743
 2256TIP3    H228184   1.717   2.166  12.260 -1.8321 -1.7787  1.6430
 2257TIP3   OH228185   4.779   3.536  16.807  0.2655  0.5434  0.2223
 2257TIP3    H128186   4.709   3.568  16.864  1.7490  1.1335  1.8231
 2257TIP3    H228187   4.800   3.449  16.842 -1.0021 -0.5283 -1.5472
 2258TIP3   OH228188   0.369   6.265   4.891  0.1896 -0.7748  0.0334
 2258TIP3    H128189   0.410   6.308   4.967 -1.1947 -1.5380  1.2766
 2258TIP3    H228190   0.276   6.261   4.914 -0.2620 -0.9971 -1.7492
 2259TIP3   OH228191   0.035   4.918   5.256  0.0628  0.5230  0.9442
 2259TIP3    H128192   0.102   4.937   5.191 -2.5934 -1.0032 -2.5911
 2259TIP3    H228193   0.053   4.828   5.283 -1.0343 -0.3260 -0.9035
 2260TIP3   OH228194   0.191   3.006   0.421 -0.1320 -0.4052  0.2326
 2260TIP3    H128195   0.142   3.043   0.495 -1.9569 -1.0543 -0.5943
 2260TIP3    H228196   0.214   2.918   0.450  0.2023 -0.2402  0.4735
 2261TIP3   OH228197   1.742   5.122   0.990 -0.4212 -0.1542  0.5182
 2261TIP3    H128198   1.685   5.157   0.921 -0.8593 -0.2569  0.8251
 2261TIP3    H228199   1.737   5.187   1.060  0.5883  0.3058  0.1784
 2262TIP3   OH228200   4.722   4.588  13.992 -0.1785  0.1342  0.2255
 2262TIP3    H128201   4.723   4.650  13.919 -1.1648  1.3294  1.1701
 2262TIP3    H228202   4.629   4.583  14.017  0.0902 -0.5571  1.1435
 2263TIP3   OH228203   2.184   2.628  15.275  0.0722  0.5528 -0.0676
 2263TIP3    H128204   2.253   2.669  15.327  0.8066  0.6280 -1.0586
 2263TIP3    H228205   2.232   2.572  15.213 -0.8836 -2.0809  1.4197
 2264TIP3   OH228206   5.901   2.353   0.737  0.3404  0.5108 -0.0324
 2264TIP3    H128207   5.883   2.446   0.724  0.1339  0.6578  1.1979
 2264TIP3    H228208   5.993   2.349   0.764  0.3222  0.3663  0.0100
 2265TIP3   OH228209   6.150   2.964  16.530 -0.7047 -0.1834 -0.3216
 2265TIP3    H128210   6.056   2.986  16.530 -0.1454  2.6372  0.0350
 2265TIP3    H228211   6.194   3.048  16.516  1.8345 -1.0831  1.5407
 2266TIP3   OH228212   3.903   0.173  12.812 -0.3459 -0.3116  0.3982
 2266TIP3    H128213   3.929   0.119  12.737 -0.3748 -0.9326  0.8258
 2266TIP3    H228214   3.958   0.251  12.805 -0.8827 -0.0106 -0.6902
 2267TIP3   OH228215   6.209   4.576   6.341  0.0935  0.6490 -0.2438
 2267TIP3    H128216   6.115   4.586   6.358  0.1862  0.3682  0.4671
 2267TIP3    H228217   6.214   4.566   6.246 -0.4274  2.3460 -0.4817
 2268TIP3   OH228218   1.073   1.767   2.176  0.2253  0.5230 -0.4525
 2268TIP3    H128219   1.028   1.684   2.160  2.4876 -0.8724 -0.0359
 2268TIP3    H228220   1.041   1.796   2.261  0.2867 -0.5840 -0.0380
 2269TIP3   OH228221   1.199   5.670   4.522  0.0137 -0.0154  0.0065
 2269TIP3    H128222   1.274   5.646   4.467 -1.3069  0.4297 -2.1450
 2269TIP3    H228223   1.181   5.593   4.575  2.5969  0.2354  1.3555
 2270TIP3   OH228224   0.551   5.507   1.513  0.3656  0.1384  0.4979
 2270TIP3    H128225   0.516   5.506   1.602 -1.0132 -0.7741 -0.0162
 2270TIP3    H228226   0.506   5.579   1.470  0.3686  0.0214  0.2960
 2271TIP3   OH228227   4.516   0.962  16.234 -0.5211  0.0554 -0.0078
 2271TIP3    H128228   4.600   0.963  16.280 -0.3482  2.0057 -0.3128
 2271TIP3    H228229   4.536   0.998  16.147 -1.1445 -2.1174 -1.1431
 2272TIP3   OH228230   4.962   5.375   0.549  0.5364 -0.0575  0.1902
 2272TIP3    H128231   5.014   5.326   0.612  2.2217  0.4096 -0.7641
 2272TIP3    H228232   5.002   5.354   0.464 -2.5437 -1.8158 -0.9739
 2273TIP3   OH228233   2.229   5.338   3.235  0.2829 -0.4845  0.0745
 2273TIP3    H128234   2.180   5.383   3.167  0.6912  0.9770  0.7059
 2273TIP3    H228235   2.165   5.281   3.278 -0.5143  0.2923 -0.0710
 2274TIP3   OH228236   6.324   6.661   0.586 -0.1617  0.4085  0.6102
 2274TIP3    H128237   6.332   6.667   0.681  0.3937  0.2724  0.5779
 2274TIP3    H228238   6.373   6.582   0.563  0.3629  0.8615  0.1398
 2275TIP3   OH228239   6.383   2.763   3.350  0.5435  0.2188 -0.5024
 2275TIP3    H128240   6.438   2.686   3.363  0.5426  0.2115 -0.5412
 2275TIP3    H228241   6.312   2.754   3.413  1.6641  1.2438  0.9714
 2276TIP3   OH228242   0.862   3.303   0.531  0.6292  0.0611  0.1362
 2276TIP3    H128243   0.792   3.275   0.590  1.5577  0.5944  1.5617
 2276TIP3    H228244   0.850   3.249   0.452 -1.7382  0.5991  0.0524
 2277TIP3   OH228245   1.185   3.186  14.128 -0.0440  0.8250 -0.2079
 2277TIP3    H128246   1.134   3.210  14.050 -2.5341 -1.0158  0.7046
 2277TIP3    H228247   1.227   3.267  14.155 -0.4089  1.8763 -2.5429
 2278TIP3   OH228248   4.940   6.632   4.239  0.2204  0.3425 -0.3240
 2278TIP3    H128249   5.026   6.590   4.252 -0.3195 -0.3812  1.0840
 2278TIP3    H228250   4.947   6.715   4.286  0.2559  0.4266 -0.4783
 2279TIP3   OH228251   5.052   3.587  12.878 -0.2919  0.7026 -0.4291
 2279TIP3    H128252   5.025   3.534  12.953 -0.2502  1.3373  0.0443
 2279TIP3    H228253   5.106   3.528  12.825 -0.9448  0.0179 -0.3640
 2280TIP3   OH228254   3.225   1.278  16.524  0.3015  0.2385  0.0339
 2280TIP3    H128255   3.271   1.307  16.603  0.0181 -0.3691  0.4384
 2280TIP3    H228256   3.271   1.198  16.498  1.6422  1.4935 -1.5849
 2281TIP3   OH228257   4.494   5.179  10.749 -0.0941  0.3897 -0.1191
 2281TIP3    H128258   4.546   5.227  10.685  2.0150  2.1073  2.6868
 2281TIP3    H228259   4.475   5.096  10.706  2.9933  0.5926 -2.2002
 2282TIP3   OH228260   6.346   6.760  14.939  0.4495 -0.2770 -0.1195
 2282TIP3    H128261   6.372   6.707  15.015 -0.0597 -1.8406 -0.9832
 2282TIP3    H228262   6.378   6.710  14.864 -0.7297  0.2693 -1.0076
 2283TIP3   OH228263   1.033   3.732  13.809 -0.4297  0.1909 -0.4310
 2283TIP3    H128264   1.009   3.820  13.783 -0.2305  0.1592 -0.7332
 2283TIP3    H228265   0.967   3.706  13.874  0.9238  1.4938  1.5660
 2284TIP3   OH228266   2.892   3.760  14.621 -0.1290  0.1576 -0.6618
 2284TIP3    H128267   2.904   3.846  14.661  1.1310  0.5636 -1.8220
 2284TIP3    H228268   2.901   3.698  14.693 -0.4951  0.9714  0.0980
 2285TIP3   OH228269   3.361   3.762   4.418 -0.2522  0.2782  0.1036
 2285TIP3    H128270   3.399   3.807   4.342  0.5168 -1.3762 -0.5350
 2285TIP3    H228271   3.428   3.700   4.445 -1.7296 -1.3220  0.2189
 2286TIP3   OH228272   4.190   2.336   3.899  0.6937  0.5003  0.5096
 2286TIP3    H128273   4.210   2.296   3.984  0.3495 -1.7304 -0.3707
 2286TIP3    H228274   4.100   2.367   3.907 -0.0687 -1.5073  0.4246
 2287TIP3   OH228275   5.686   0.718  15.182  0.0490  0.1358 -0.1694
 2287TIP3    H128276   5.775   0.743  15.159  0.3991  0.2551  1.2169
 2287TIP3    H228277   5.635   0.734  15.102  1.2418  0.1355 -0.9578
 2288TIP3   OH228278   4.576   3.116  12.476 -0.3408 -0.2597  0.2898
 2288TIP3    H128279   4.504   3.075  12.523 -0.1905 -0.8612  0.0102
 2288TIP3    H228280   4.619   3.044  12.430  0.5531  0.0545  0.5990
 2289TIP3   OH228281   2.918   2.273  13.865 -0.0996 -0.3381  0.1979
 2289TIP3    H128282   2.872   2.333  13.924  0.3904 -0.6904  0.9578
 2289TIP3    H228283   2.999   2.250  13.912  0.1890 -0.8104 -0.5089
 2290TIP3   OH228284   3.122   5.506   6.219  0.1559 -0.0588 -0.5834
 2290TIP3    H128285   3.184   5.572   6.250 -0.1048  0.0201 -0.2178
 2290TIP3    H228286   3.171   5.424   6.217  0.7127  0.2834 -1.8146
 2291TIP3   OH228287   2.176   3.000  13.338  0.5210  0.2438 -0.0652
 2291TIP3    H128288   2.249   3.062  13.328 -1.2659  2.2518 -1.5994
 2291TIP3    H228289   2.122   3.038  13.407 -1.0975  1.0424 -1.6811
 2292TIP3   OH228290   2.801   3.523  12.246 -0.1266  0.4075 -0.2069
 2292TIP3    H128291   2.788   3.524  12.341  0.7082  0.2237 -0.0837
 2292TIP3    H228292   2.885   3.567  12.232  0.9733 -1.6893 -0.6391
 2293TIP3   OH228293   5.231   0.291   3.869  0.2113 -0.4966 -0.1291
 2293TIP3    H128294   5.289   0.237   3.922  0.5160 -1.4611 -1.3800
 2293TIP3    H228295   5.166   0.326   3.931  0.6636 -1.4100  0.8896
 2294TIP3   OH228296   2.664   5.906  10.202  0.2719  0.0358  0.3874
 2294TIP3    H128297   2.571   5.885  10.209 -0.0148 -0.1103 -2.7704
 2294TIP3    H228298   2.706   5.822  10.181  1.1394  0.1252  1.6559
 2295TIP3   OH228299   5.776   5.812  12.623 -0.3842  0.3318  0.0409
 2295TIP3    H128300   5.805   5.726  12.593  0.9743  1.4542 -2.1308
 2295TIP3    H228301   5.747   5.857  12.543  0.9901  2.6280  0.7290
 2296TIP3   OH228302   6.406   5.425  12.669  0.2499 -0.7707 -0.0323
 2296TIP3    H128303   6.452   5.341  12.670  2.1416  0.1819  2.5597
 2296TIP3    H228304   6.474   5.490  12.653 -0.4106  0.5597  2.1547
 2297TIP3   OH228305   2.940   0.788  14.676 -0.2943 -0.0843 -0.6596
 2297TIP3    H128306   3.028   0.765  14.707  1.1321  2.5720 -2.2876
 2297TIP3    H228307   2.904   0.845  14.744  0.0127  0.2790 -0.7978
 2298TIP3   OH228308   5.476   3.771  14.608 -0.1707  0.0164  0.4327
 2298TIP3    H128309   5.470   3.825  14.529  1.4266 -1.4394 -0.7693
 2298TIP3    H228310   5.462   3.681  14.577 -1.7929 -0.4210  2.2059
 2299TIP3   OH228311   4.239   1.730  12.770 -0.2459 -0.0326  0.0965
 2299TIP3    H128312   4.202   1.643  12.753  0.6004 -0.3657 -0.0710
 2299TIP3    H228313   4.333   1.720  12.754  0.0648  0.5707  1.4281
 2300TIP3   OH228314   2.998   6.765  11.674 -0.6400 -0.0442  0.2549
 2300TIP3    H128315   3.005   6.750  11.580  0.8811  0.6147  0.2383
 2300TIP3    H228316   3.052   6.695  11.714  0.2064  0.7424  0.5285
 2301TIP3   OH228317   3.334   0.377   0.815  0.1065  0.0831  0.0360
 2301TIP3    H128318   3.350   0.435   0.890 -0.8834 -0.4550  0.6833
 2301TIP3    H228319   3.335   0.289   0.852 -0.0656 -0.2120 -0.6449
 2302TIP3   OH228320   6.190   6.340  16.529 -0.9684  0.0381  0.3238
 2302TIP3    H128321   6.242   6.295  16.462 -1.3858  0.1502 -0.0807
 2302TIP3    H228322   6.188   6.278  16.603  2.5296  1.3292  1.7087
 2303TIP3   OH228323   0.937   4.448  13.319 -0.3026 -0.2255  0.2374
 2303TIP3    H128324   0.956   4.355  13.336  0.6242 -0.7555 -2.9801
 2303TIP3    H228325   0.938   4.455  13.224 -1.7718  2.8578  0.3395
 2304TIP3   OH228326   3.866   6.128  14.214  0.1930 -0.5056 -0.8309
 2304TIP3    H128327   3.933   6.176  14.263 -0.7603  0.8347 -0.7629
 2304TIP3    H228328   3.888   6.144  14.122 -0.4779  0.6663 -0.8156
 2305TIP3   OH228329   6.395   5.348  17.006 -0.0312  0.8439 -0.4741
 2305TIP3    H128330   6.318   5.387  16.966 -0.0938 -1.3875 -2.8074
 2305TIP3    H228331   6.445   5.313  16.933  2.1015  0.2673  1.1440
 2306TIP3   OH228332   0.969   0.253  11.885 -0.9298  0.4020 -0.3287
 2306TIP3    H128333   1.042   0.253  11.824 -0.2115 -0.5008  0.4821
 2306TIP3    H228334   0.984   0.329  11.941 -0.2812 -0.0812  0.1780
 2307TIP3   OH228335   6.429   2.367  15.801 -0.2898  0.5345  0.5987
 2307TIP3    H128336   6.393   2.438  15.748  0.4035 -0.5142 -1.4162
 2307TIP3    H228337   6.366   2.296  15.792  1.1675 -0.6199 -1.2809
 2308TIP3   OH228338   5.024   3.912   1.442  0.5330  0.3970 -0.5939
 2308TIP3    H128339   5.077   3.833   1.442  3.2542  1.9964  2.1488
 2308TIP3    H228340   5.060   3.965   1.370  0.5158  0.2320 -0.7248
 2309TIP3   OH228341   2.470   0.482   5.072  0.4362  0.9207 -0.5137
 2309TIP3    H128342   2.423   0.533   5.137  0.4163  0.2231  0.0268
 2309TIP3    H228343   2.539   0.541   5.040 -0.9954  2.0923 -1.5959
 2310TIP3   OH228344   5.070   2.050  12.547 -0.3762  0.6493  0.3000
 2310TIP3    H128345   5.033   2.123  12.596  0.4911  0.3662  1.4119
 2310TIP3    H228346   5.069   2.079  12.455 -0.5584  1.8188  0.6612
 2311TIP3   OH228347   4.048   5.537  10.616 -0.6306 -0.4059 -0.1941
 2311TIP3    H128348   4.109   5.495  10.676 -0.0484 -0.0596 -0.5262
 2311TIP3    H228349   4.011   5.465  10.565  1.0184 -0.4903 -1.3625
 2312TIP3   OH228350   5.450   2.270   0.785  0.2192 -0.0780  0.1813
 2312TIP3    H128351   5.532   2.299   0.825  0.4857  1.2661 -1.2390
 2312TIP3    H228352   5.456   2.174   0.784  3.1106 -0.0322 -2.3948
 2313TIP3   OH228353   1.586   5.621  13.665 -0.1027  0.3611 -0.1013
 2313TIP3    H128354   1.543   5.536  13.658  1.2378 -0.3696  0.3209
 2313TIP3    H228355   1.575   5.645  13.758 -1.2753  1.1091 -0.4060
 2314TIP3   OH228356   0.721   1.832  16.608 -0.2157  0.4828  0.1621
 2314TIP3    H128357   0.644   1.808  16.659 -0.6523 -0.8825 -1.0916
 2314TIP3    H228358   0.704   1.921  16.579 -1.0503  0.3953  0.3681
 2315TIP3   OH228359   2.638   2.354  11.024  0.5081 -0.1033 -0.2626
 2315TIP3    H128360   2.613   2.430  10.972 -1.7405 -1.3276 -1.0962
 2315TIP3    H228361   2.663   2.288  10.960  0.6674 -0.6557  0.3569
 2316TIP3   OH228362   0.720   4.722   6.454 -0.1926  0.1047  0.5362
 2316TIP3    H128363   0.779   4.671   6.399 -1.3880 -1.1888  0.3923
 2316TIP3    H228364   0.647   4.744   6.396  0.0166  1.4713  0.7748
 2317TIP3   OH228365   0.274   3.778   4.692  0.0554  0.0760  0.1354
 2317TIP3    H128366   0.319   3.693   4.686 -1.5248 -0.7532 -0.5853
 2317TIP3    H228367   0.210   3.766   4.762 -0.8595  0.3257 -0.6445
 2318TIP3   OH228368   2.490   5.076  15.758 -0.4073  0.3975 -0.0474
 2318TIP3    H128369   2.483   5.164  15.722  1.9125  0.4828 -0.3769
 2318TIP3    H228370   2.420   5.072  15.824  0.2372  2.9343  0.8776
 2319TIP3   OH228371   2.113   1.535  14.992 -0.5387 -0.3915 -0.0869
 2319TIP3    H128372   2.061   1.611  14.968 -0.4682 -0.6241 -1.0295
 2319TIP3    H228373   2.201   1.556  14.962 -0.4627 -0.7238 -0.0989
 2320TIP3   OH228374   3.303   0.746  16.947  0.3537 -0.2254  0.0801
 2320TIP3    H128375   3.236   0.682  16.970  0.6582 -0.7644 -0.4969
 2320TIP3    H228376   3.253   0.824  16.921 -0.0380 -0.4327  0.1941
 2321TIP3   OH228377   3.330   6.598  11.100 -0.4044  0.0887  0.0408
 2321TIP3    H128378   3.406   6.560  11.056  0.4257  2.5806 -0.8725
 2321TIP3    H228379   3.368   6.661  11.162 -1.6998 -0.0366  0.9906
 2322TIP3   OH228380   0.792   2.170  10.531  0.7953  0.2581  0.1845
 2322TIP3    H128381   0.703   2.163  10.498  1.4092 -1.6224 -1.2202
 2322TIP3    H228382   0.795   2.108  10.604  0.7396  0.9511  0.7860
 2323TIP3   OH228383   3.951   4.568   1.257  0.4398  0.5391 -0.0310
 2323TIP3    H128384   3.914   4.486   1.290 -0.2550  1.0829  0.5977
 2323TIP3    H228385   3.888   4.598   1.192 -1.4656  2.5152  2.4811
 2324TIP3   OH228386   1.003   2.018  12.489 -0.2145  0.1764  0.0045
 2324TIP3    H128387   1.056   2.093  12.461  0.8601 -1.2063 -1.9512
 2324TIP3    H228388   0.915   2.038  12.458  0.6405 -0.6171 -3.3638
 2325TIP3   OH228389   4.910   3.511  13.451  0.5035  0.1295  0.5030
 2325TIP3    H128390   4.912   3.591  13.398  0.5313  0.7125  1.3504
 2325TIP3    H228391   4.903   3.440  13.388  1.4910  0.7424 -0.3358
 2326TIP3   OH228392   0.146   2.131   0.950 -0.3199 -0.4667 -0.6806
 2326TIP3    H128393   0.123   2.214   0.992 -1.7749 -0.4551 -1.4507
 2326TIP3    H228394   0.197   2.084   1.016 -1.7257 -0.0557  0.7446
 2327TIP3   OH228395   5.484   0.279   1.790 -0.4507  0.8065  0.5782
 2327TIP3    H128396   5.423   0.287   1.863 -0.4788  0.2917  0.6111
 2327TIP3    H228397   5.518   0.190   1.797 -0.1355  0.8978  0.2136
 2328TIP3   OH228398   5.749   1.594  12.103  0.2479 -0.0586  0.1643
 2328TIP3    H128399   5.694   1.536  12.051 -4.3625  0.8580  3.4124
 2328TIP3    H228400   5.725   1.682  12.074  3.0149  0.4525 -0.8860
 2329TIP3   OH228401   2.636   1.859   1.620  0.2768 -1.2162  0.3186
 2329TIP3    H128402   2.653   1.863   1.714 -0.3740  0.7668  0.4013
 2329TIP3    H228403   2.647   1.949   1.590 -1.2903 -1.4732 -1.1765
 2330TIP3   OH228404   4.623   3.874  16.862 -0.3722 -0.4097  0.2004
 2330TIP3    H128405   4.567   3.887  16.939 -3.0891  4.5869 -2.0706
 2330TIP3    H228406   4.698   3.932  16.877  1.0318 -2.2287  0.5140
 2331TIP3   OH228407   1.360   4.947   2.460  0.4825  0.4034 -0.1695
 2331TIP3    H128408   1.421   4.880   2.491 -0.4529 -0.4990 -0.2409
 2331TIP3    H228409   1.291   4.898   2.415  0.0552  1.4555 -0.6903
 2332TIP3   OH228410   5.962   5.311  15.419 -0.4319  0.3494 -0.0756
 2332TIP3    H128411   5.926   5.224  15.436  0.2288  0.3312  1.3291
 2332TIP3    H228412   6.017   5.330  15.495  0.9828  1.1959 -1.2509
 2333TIP3   OH228413   3.733   1.545  10.712 -0.3411 -0.2295  0.0524
 2333TIP3    H128414   3.797   1.483  10.747 -0.9154 -0.6590  0.3647
 2333TIP3    H228415   3.727   1.522  10.619 -1.1402 -1.1949  0.3222
 2334TIP3   OH228416   2.375   0.941   4.442  0.2921  0.2165  0.2746
 2334TIP3    H128417   2.464   0.916   4.469  0.5274  3.0809  2.6678
 2334TIP3    H228418   2.319   0.912   4.513 -0.5712 -0.4150 -0.6274
 2335TIP3   OH228419   3.298   2.901   5.512 -0.3098  0.2083 -0.3306
 2335TIP3    H128420   3.326   2.810   5.524 -0.7809 -0.1838 -1.9967
 2335TIP3    H228421   3.366   2.952   5.555 -0.4007 -0.9279  1.2687
 2336TIP3   OH228422   3.579   4.128   4.570 -0.5620 -0.0715  0.7679
 2336TIP3    H128423   3.673   4.141   4.575 -0.5761 -0.5367  3.8226
 2336TIP3    H228424   3.553   4.170   4.488  2.4221 -1.0067 -0.7816
 2337TIP3   OH228425   4.306   0.149  12.147 -0.0469 -0.1120  0.2438
 2337TIP3    H128426   4.261   0.233  12.153 -3.3390 -1.6214 -1.1133
 2337TIP3    H228427   4.358   0.156  12.067 -0.4635  0.5676  0.0175
 2338TIP3   OH228428   6.658   0.733   4.573 -0.3294  0.4731 -0.3015
 2338TIP3    H128429   6.656   0.687   4.657  0.8502  3.0371  1.2763
 2338TIP3    H228430   6.746   0.717   4.539 -0.6249 -0.1113 -0.8241
 2339TIP3   OH228431   2.493   1.699   2.994  0.2785  0.3535  0.2619
 2339TIP3    H128432   2.450   1.685   2.910 -1.4107  0.9615  0.9929
 2339TIP3    H228433   2.546   1.778   2.982 -1.9710  1.9831  0.4538
 2340TIP3   OH228434   5.568   2.894  11.370  0.1109 -0.3712 -0.6441
 2340TIP3    H128435   5.493   2.946  11.339 -0.6836 -0.6761  0.6789
 2340TIP3    H228436   5.557   2.809  11.326  0.4727  0.0113 -1.5087
 2341TIP3   OH228437   6.752   1.949   2.001  0.1337 -0.6198  0.3622
 2341TIP3    H128438   6.802   2.028   1.981 -0.6224  0.1068  1.2388
 2341TIP3    H228439   6.664   1.968   1.966  0.4880 -1.9827 -1.4096
 2342TIP3   OH228440   4.852   0.233  14.951  0.0981  0.3899 -0.4240
 2342TIP3    H128441   4.804   0.244  14.868  0.3971  0.7241 -0.5522
 2342TIP3    H228442   4.785   0.244  15.019 -0.0796  0.4767 -0.6112
 2343TIP3   OH228443   1.503   3.180  16.605 -0.6016 -0.4508 -0.0184
 2343TIP3    H128444   1.415   3.147  16.584 -1.1373  0.4674  0.7204
 2343TIP3    H228445   1.517   3.154  16.696  0.3498 -1.5286 -0.4553
 2344TIP3   OH228446   6.277   4.028  10.698 -0.0051 -0.0241  1.0321
 2344TIP3    H128447   6.266   4.117  10.664  2.1319  0.0620  0.4320
 2344TIP3    H228448   6.219   4.023  10.773 -2.9735  0.6560 -1.0386
 2345TIP3   OH228449   0.420   3.491   2.481 -0.4221  0.0216  0.1575
 2345TIP3    H128450   0.436   3.498   2.387  1.0159  2.5769  0.5263
 2345TIP3    H228451   0.348   3.552   2.498 -1.1075 -0.8909  0.6705
 2346TIP3   OH228452   5.736   0.426  16.557  0.0542 -0.3622  0.1739
 2346TIP3    H128453   5.805   0.441  16.622  0.6759 -1.3579 -0.2319
 2346TIP3    H228454   5.744   0.499  16.496  0.9382 -0.6156 -0.0214
 2347TIP3   OH228455   6.228   6.334   3.835 -0.3453 -0.4478 -0.9139
 2347TIP3    H128456   6.152   6.324   3.778 -1.0637  0.9911 -0.2485
 2347TIP3    H228457   6.192   6.356   3.921  0.7902 -0.6650 -0.3568
 2348TIP3   OH228458   4.404   6.587   1.097 -0.3195 -0.5042 -0.2948
 2348TIP3    H128459   4.362   6.671   1.114 -1.5271 -1.2693  0.7098
 2348TIP3    H228460   4.459   6.602   1.021  0.4819  1.5275  0.6155
 2349TIP3   OH228461   0.822   2.311   4.610  0.2785  0.2603  0.5160
 2349TIP3    H128462   0.913   2.283   4.602 -0.0208 -0.7758  0.5525
 2349TIP3    H228463   0.776   2.233   4.642 -0.8214  0.4119 -0.6152
 2350TIP3   OH228464   3.113   4.875  12.196  0.1382 -0.0821 -0.1563
 2350TIP3    H128465   3.142   4.963  12.173  0.0836 -0.5076 -2.0406
 2350TIP3    H228466   3.024   4.870  12.161  0.5390 -1.2305 -1.0913
 2351TIP3   OH228467   1.923   6.805  12.451  0.9347 -0.0366  0.0512
 2351TIP3    H128468   1.934   6.829  12.359  2.5976  1.2897  0.5502
 2351TIP3    H228469   2.010   6.780  12.480  0.4266 -0.4949  1.2698
 2352TIP3   OH228470   4.978   0.391   2.660  0.4752 -0.2588  0.2880
 2352TIP3    H128471   4.986   0.313   2.606 -0.0254 -0.2552  0.2070
 2352TIP3    H228472   4.884   0.406   2.668  0.5509 -0.0124  0.8038
 2353TIP3   OH228473   3.936   0.418  16.805  0.2070 -0.3116 -0.1059
 2353TIP3    H128474   3.966   0.347  16.747 -0.2944 -0.5255 -0.1129
 2353TIP3    H228475   4.014   0.444  16.853  0.8815  0.5860 -1.6096
 2354TIP3   OH228476   1.702   5.551   1.582 -0.0580  0.3240 -0.2243
 2354TIP3    H128477   1.610   5.578   1.579 -0.1021  0.3997  1.1777
 2354TIP3    H228478   1.749   5.620   1.536 -0.8425 -0.4635 -2.2888
 2355TIP3   OH228479   5.364   3.259  14.487 -0.3544  0.0223  0.2475
 2355TIP3    H128480   5.436   3.254  14.551 -0.3065 -0.9556  0.1341
 2355TIP3    H228481   5.408   3.262  14.402 -0.4327 -1.3051  0.1381
 2356TIP3   OH228482   2.909   1.399  15.269 -0.1015 -0.0126 -0.4722
 2356TIP3    H128483   2.979   1.376  15.208 -0.8602  0.1965 -1.4440
 2356TIP3    H228484   2.891   1.318  15.317 -0.1196 -0.4202 -1.1639
 2357TIP3   OH228485   2.168   3.104  13.618  0.4984  0.5074  0.5341
 2357TIP3    H128486   2.225   3.178  13.635 -0.4733  1.7517 -1.2247
 2357TIP3    H228487   2.083   3.143  13.597 -0.0701 -1.0832 -0.3776
 2358TIP3   OH228488   2.430   3.969  12.984 -0.4227 -0.2086  0.7945
 2358TIP3    H128489   2.357   4.019  12.948 -0.6504 -0.4846  0.8622
 2358TIP3    H228490   2.483   3.945  12.907 -0.4141 -0.0220  0.7431
 2359TIP3   OH228491   1.800   3.392  15.788 -0.3274 -0.0159  0.3738
 2359TIP3    H128492   1.839   3.344  15.861 -0.9152 -0.8197  0.1842
 2359TIP3    H228493   1.830   3.482  15.799  0.5220 -0.3534  0.9495
 2360TIP3   OH228494   6.668   4.061  13.613 -0.6915  0.0173  0.1761
 2360TIP3    H128495   6.763   4.061  13.622 -0.8508  0.3338  2.3306
 2360TIP3    H228496   6.647   3.972  13.584  0.2579 -0.0339 -0.3824
 2361TIP3   OH228497   1.350   2.470   2.964  0.0736 -0.2398  0.3531
 2361TIP3    H128498   1.313   2.553   2.994 -0.6049  0.2052 -1.5920
 2361TIP3    H228499   1.290   2.440   2.896  0.9608 -1.7438  0.1860
 2362TIP3   OH228500   5.250   0.721   5.420  0.0466  0.4374 -0.1034
 2362TIP3    H128501   5.296   0.695   5.500  2.2000 -0.3845 -1.4922
 2362TIP3    H228502   5.295   0.672   5.351 -2.6327  0.0509 -1.6873
 2363TIP3   OH228503   0.197   3.570  15.854  0.0320 -0.3299 -0.6165
 2363TIP3    H128504   0.229   3.484  15.881  2.1583 -1.2428 -5.1639
 2363TIP3    H228505   0.110   3.552  15.818 -0.3170 -0.1906  0.1399
 2364TIP3   OH228506   0.120   5.348   0.473 -0.1489  0.4394 -0.6530
 2364TIP3    H128507   0.078   5.262   0.468  2.2946 -0.8893  0.0241
 2364TIP3    H228508   0.165   5.347   0.557 -1.6542  3.2257  0.2980
 2365TIP3   OH228509   5.573   2.635  11.910  0.2353 -0.3803  0.2641
 2365TIP3    H128510   5.566   2.632  11.815 -1.3855  1.8737  0.2271
 2365TIP3    H228511   5.661   2.667  11.927 -0.1058  1.1325 -0.6028
 2366TIP3   OH228512   0.605   4.351  15.446  0.2962 -0.1052  0.2555
 2366TIP3    H128513   0.612   4.301  15.364 -0.3203  0.2351 -0.0130
 2366TIP3    H228514   0.693   4.385  15.460 -0.2452  2.7256 -2.1402
 2367TIP3   OH228515   6.300   0.498   3.765  0.3518 -0.4431 -0.1223
 2367TIP3    H128516   6.296   0.566   3.833  0.3894  0.1987 -0.7411
 2367TIP3    H228517   6.381   0.518   3.718  0.2700 -0.8184 -0.4209
 2368TIP3   OH228518   3.411   1.818  16.626 -0.0006 -0.1844 -0.0645
 2368TIP3    H128519   3.348   1.841  16.558 -0.1538  0.1842  0.1979
 2368TIP3    H228520   3.460   1.899  16.641  0.1188 -0.2996  0.1730
 2369TIP3   OH228521   2.334   0.900   1.225 -0.0513  0.0580 -0.1065
 2369TIP3    H128522   2.317   0.826   1.167 -2.6291 -0.4872  1.2157
 2369TIP3    H228523   2.284   0.881   1.304 -2.4418  4.0167 -0.3714
 2370TIP3   OH228524   1.009   4.046  16.020 -0.5928  0.1897  0.0254
 2370TIP3    H128525   0.923   4.080  15.995  0.1143  1.3644 -0.9016
 2370TIP3    H228526   1.051   4.024  15.937 -0.4395 -1.5884  0.5203
 2371TIP3   OH228527   0.245   4.573  14.763 -0.0070 -0.1012 -0.2558
 2371TIP3    H128528   0.183   4.646  14.754  1.7030  1.5166  0.5374
 2371TIP3    H228529   0.192   4.495  14.746 -1.4848  1.3822 -3.3074
 2372TIP3   OH228530   2.735   1.214   2.924 -0.5644  0.4038 -0.2617
 2372TIP3    H128531   2.702   1.289   2.974 -1.0761  0.4238 -0.6187
 2372TIP3    H228532   2.678   1.142   2.949 -1.5444  0.6639 -1.6210
 2373TIP3   OH228533   5.837   5.590  12.445 -0.0045 -0.0142  0.3540
 2373TIP3    H128534   5.833   5.500  12.477 -2.4051 -0.1051 -0.0136
 2373TIP3    H228535   5.788   5.588  12.362  1.8845  1.1945 -0.8691
 2374TIP3   OH228536   3.915   3.075   5.089 -0.6890  0.3251  0.1265
 2374TIP3    H128537   3.850   3.141   5.064 -0.0421  0.9307  0.0268
 2374TIP3    H228538   3.948   3.105   5.173  0.1217  0.5161 -0.2555
 2375TIP3   OH228539   0.492   2.344  14.248 -0.2829 -0.3637  0.0459
 2375TIP3    H128540   0.584   2.322  14.264 -0.2276  1.3236  2.6949
 2375TIP3    H228541   0.493   2.438  14.232 -1.5871 -0.1870  0.8362
 2376TIP3   OH228542   3.427   4.645   2.605 -0.0498  0.4535 -0.6835
 2376TIP3    H128543   3.512   4.668   2.643  0.1141 -0.4767 -0.4563
 2376TIP3    H228544   3.365   4.704   2.647  0.7649  2.8229 -2.6042
 2377TIP3   OH228545   5.340   4.972   0.400  0.2112 -0.8459 -0.0504
 2377TIP3    H128546   5.271   4.911   0.374  0.4649 -0.8892 -0.6372
 2377TIP3    H228547   5.396   4.979   0.322 -1.1339  2.0285 -0.9004
 2378TIP3   OH228548   5.368   3.855   2.640  0.2718 -0.3292 -0.3618
 2378TIP3    H128549   5.434   3.788   2.622  1.3770  1.1396 -2.1625
 2378TIP3    H228550   5.342   3.888   2.554 -1.9082  0.0318  0.3690
 2379TIP3   OH228551   5.785   0.285  15.050 -0.4030  0.0669 -0.1665
 2379TIP3    H128552   5.707   0.272  14.996  0.0681 -0.9663 -0.6346
 2379TIP3    H228553   5.843   0.338  14.995  0.4662 -1.7842 -1.1302
 2380TIP3   OH228554   1.014   4.869  16.800  0.3265  0.5215 -0.4384
 2380TIP3    H128555   0.922   4.848  16.816  0.4572 -0.4917 -0.9717
 2380TIP3    H228556   1.060   4.786  16.810  1.2788  1.1198  0.4174
 2381TIP3   OH228557   0.917   2.953   4.599 -0.0582  0.0028  0.1252
 2381TIP3    H128558   0.834   2.909   4.614  0.0161 -0.2148 -0.0890
 2381TIP3    H228559   0.949   2.975   4.686 -0.0018 -0.5365  0.2430
 2382TIP3   OH228560   2.408   4.208  16.337  0.6574 -0.7564  0.2766
 2382TIP3    H128561   2.421   4.250  16.422  1.3573  0.6893 -0.5020
 2382TIP3    H228562   2.314   4.215  16.320  0.7989  0.8156  0.0359
 2383TIP3   OH228563   5.835   4.943   5.213  0.5215  1.0698  0.3375
 2383TIP3    H128564   5.840   5.035   5.187 -1.0679  1.0062 -0.3052
 2383TIP3    H228565   5.926   4.912   5.208  0.8120  2.0793 -1.4039
 2384TIP3   OH228566   1.010   3.754   0.587  0.3537 -0.6590  0.0174
 2384TIP3    H128567   1.005   3.677   0.531 -0.7364  0.0042 -0.8283
 2384TIP3    H228568   0.919   3.782   0.597  0.6264 -0.1666  1.2911
 2385TIP3   OH228569   6.471   3.025   2.855 -0.7035 -0.0141  0.4510
 2385TIP3    H128570   6.401   2.964   2.878  1.9090 -2.7050  1.8362
 2385TIP3    H228571   6.468   3.091   2.924 -2.1852  0.2626  0.1628
 2386TIP3   OH228572   6.008   4.735  10.303 -0.6328 -0.2834 -0.6702
 2386TIP3    H128573   6.002   4.674  10.377 -1.3232  0.6204  0.0529
 2386TIP3    H228574   6.102   4.749  10.291 -0.5139  0.6793  1.0321
 2387TIP3   OH228575   3.857   0.257  11.560 -0.0677  0.2877  0.3051
 2387TIP3    H128576   3.928   0.192  11.565  0.8128  1.2581  0.8209
 2387TIP3    H228577   3.797   0.222  11.494  0.1077 -1.3066  0.9473
 2388TIP3   OH228578   0.294   5.324   1.010  0.2372 -0.2494 -0.5410
 2388TIP3    H128579   0.375   5.274   1.012 -0.0938 -0.7580  0.5591
 2388TIP3    H228580   0.306   5.392   1.076 -0.8042 -1.2621  0.7398
 2389TIP3   OH228581   6.444   6.053   3.341 -0.5210 -0.0954  0.7251
 2389TIP3    H128582   6.380   5.988   3.372 -1.4913  0.0627 -0.8374
 2389TIP3    H228583   6.408   6.137   3.368 -1.8136  0.1121 -1.3935
 2390TIP3   OH228584   4.044   2.373   1.115 -0.0333 -0.2154 -0.3974
 2390TIP3    H128585   3.964   2.378   1.168  0.5045  0.8582  0.3480
 2390TIP3    H228586   4.115   2.371   1.179  0.6104  0.5993 -1.0699
 2391TIP3   OH228587   5.699   2.340   4.005 -0.5568  0.4544 -0.0700
 2391TIP3    H128588   5.734   2.391   4.078 -1.2783  1.3990 -0.3783
 2391TIP3    H228589   5.604   2.343   4.016 -0.6169 -0.9616 -0.0130
 2392TIP3   OH228590   0.752   2.381   2.077 -0.7875 -0.5420  0.1921
 2392TIP3    H128591   0.743   2.301   2.025  1.1362 -0.3248 -0.5396
 2392TIP3    H228592   0.751   2.452   2.013 -0.3110 -0.1287  0.6373
 2393TIP3   OH228593   1.001   1.835  14.339  0.0640  0.0374 -0.3044
 2393TIP3    H128594   0.943   1.795  14.275 -1.0268  2.3610 -0.8933
 2393TIP3    H228595   1.064   1.766  14.362 -1.6624 -1.9346 -1.1810
 2394TIP3   OH228596   5.434   4.491   2.507 -0.2825  0.1202 -0.1403
 2394TIP3    H128597   5.495   4.443   2.564 -0.5799  0.1425  0.1980
 2394TIP3    H228598   5.448   4.453   2.420  0.1705  0.0816 -0.0536
 2395TIP3   OH228599   4.063   0.901   3.679 -0.2136 -0.0552  0.3548
 2395TIP3    H128600   4.154   0.871   3.672  0.2612  1.2461  0.7080
 2395TIP3    H228601   4.019   0.832   3.728  1.3580  0.7494  3.1361
 2396TIP3   OH228602   3.886   5.396  15.053  0.1891  0.2127  0.7375
 2396TIP3    H128603   3.837   5.375  15.133  0.9186  1.2026  1.4763
 2396TIP3    H228604   3.863   5.486  15.034 -1.7282 -0.6441 -1.5162
 2397TIP3   OH228605   0.515   4.168   4.899 -0.5155  0.1224  0.4518
 2397TIP3    H128606   0.581   4.121   4.951 -0.8074 -1.4528 -0.5287
 2397TIP3    H228607   0.545   4.259   4.899  2.0065 -0.6184 -0.4597
 2398TIP3   OH228608   4.732   6.761   3.922 -0.2484 -0.7001  0.7139
 2398TIP3    H128609   4.756   6.669   3.928 -2.6450 -1.4158  0.3805
 2398TIP3    H228610   4.736   6.793   4.012  0.9944 -0.9878  0.7809
 2399TIP3   OH228611   5.822   5.942   0.005  0.5508 -0.0426  0.0711
 2399TIP3    H128612   5.792   5.992   0.081  0.7587  0.1875  0.0026
 2399TIP3    H228613   5.803   5.998  -0.070  1.4661  0.2562  0.0520
 2400TIP3   OH228614   0.423   6.100   1.476  0.1866  0.1814  0.1584
 2400TIP3    H128615   0.491   6.043   1.440 -0.8475 -0.3509 -1.0555
 2400TIP3    H228616   0.432   6.092   1.571  1.0149 -0.8412  0.0136
 2401TIP3   OH228617   3.305   0.071   3.023 -0.4482  0.8969 -0.2997
 2401TIP3    H128618   3.288   0.157   2.983 -1.2851  0.6647 -0.4758
 2401TIP3    H228619   3.249   0.071   3.101 -0.3851  0.5483 -0.2566
 2402TIP3   OH228620   2.661   0.875   1.048 -0.2325  0.0882  0.6704
 2402TIP3    H128621   2.645   0.851   0.957 -0.3511 -0.0364  0.7247
 2402TIP3    H228622   2.574   0.879   1.088 -0.2965  1.3794  0.4724
 2403TIP3   OH228623   4.995   2.944  11.563  0.0393  0.0503 -0.5724
 2403TIP3    H128624   5.007   2.849  11.570  1.3648  0.2270 -0.1987
 2403TIP3    H228625   4.909   2.954  11.522 -0.0593 -1.3108 -0.7497
 2404TIP3   OH228626   1.218   1.238  13.573 -0.3468 -0.4178  0.2380
 2404TIP3    H128627   1.279   1.227  13.646 -0.5421 -0.5440  0.3815
 2404TIP3    H228628   1.157   1.306  13.602 -0.5166 -0.5749  0.2555
 2405TIP3   OH228629   1.591   5.710   2.203 -0.2742  0.1795  0.6828
 2405TIP3    H128630   1.606   5.789   2.255  0.0698  0.5497  0.0331
 2405TIP3    H228631   1.538   5.740   2.129  0.0533 -0.1445  0.3115
 2406TIP3   OH228632   3.558   3.260  14.778 -0.4296  0.4209 -0.2742
 2406TIP3    H128633   3.604   3.179  14.798  0.3731  0.6346 -1.1341
 2406TIP3    H228634   3.610   3.328  14.820 -2.3741  0.3764  2.4782
 2407TIP3   OH228635   1.051   4.548  12.802  0.0294 -0.0044 -0.1451
 2407TIP3    H128636   1.050   4.492  12.724 -0.1443  1.3086 -1.1153
 2407TIP3    H228637   0.976   4.606  12.791  0.5193  0.7895  0.5614
 2408TIP3   OH228638   6.262   1.013   4.924  0.4284  0.4415  0.9744
 2408TIP3    H128639   6.317   1.025   5.001  1.0009 -0.5346  0.7446
 2408TIP3    H228640   6.173   1.033   4.954  0.6047 -0.1879  1.9659
 2409TIP3   OH228641   6.634   0.379   4.152 -0.0647 -0.2663 -0.4232
 2409TIP3    H128642   6.647   0.344   4.240  0.0652 -0.3691 -0.4829
 2409TIP3    H228643   6.558   0.331   4.119  0.5694 -1.0400 -0.7862
 2410TIP3   OH228644   6.516   6.589   2.765 -0.4964 -0.1081  0.0076
 2410TIP3    H128645   6.507   6.683   2.746 -1.1237 -0.2597 -0.4805
 2410TIP3    H228646   6.549   6.551   2.683 -0.7967 -0.3989  0.0224
 2411TIP3   OH228647   0.688   1.329  15.103 -0.2217  0.5702  0.0203
 2411TIP3    H128648   0.650   1.243  15.086 -2.1554  1.1985  0.8101
 2411TIP3    H228649   0.624   1.372  15.161  1.3200  2.0536  0.7169
 2412TIP3   OH228650   1.782   4.832   0.222 -0.0409 -0.5981 -0.1800
 2412TIP3    H128651   1.866   4.864   0.187  1.2301 -2.0766  1.3076
 2412TIP3    H228652   1.759   4.758   0.165 -0.3808 -0.1564 -0.6231
 2413TIP3   OH228653   0.541   0.599  15.166 -0.2627 -0.2391 -0.3928
 2413TIP3    H128654   0.497   0.617  15.249 -0.7525  0.1372 -0.7301
 2413TIP3    H228655   0.549   0.504  15.164  1.2768 -0.1751  0.8578
 2414TIP3   OH228656   3.445   1.279  11.246  0.3824 -0.6365  0.4214
 2414TIP3    H128657   3.464   1.281  11.152  0.6307  1.1962  0.4672
 2414TIP3    H228658   3.352   1.261  11.252  0.3394 -0.6281 -0.1982
 2415TIP3   OH228659   5.993   0.108  16.246 -0.4372 -0.1369  0.0133
 2415TIP3    H128660   5.982   0.049  16.171 -0.7712 -0.3383  0.2185
 2415TIP3    H228661   6.073   0.158  16.226  0.7515 -1.7420  0.5515
 2416TIP3   OH228662   5.904   1.135  15.384 -0.0418 -0.0906 -0.0297
 2416TIP3    H128663   5.886   1.179  15.467 -2.3934  0.9653 -0.9896
 2416TIP3    H228664   5.843   1.176  15.322  2.0234 -0.4282 -2.4400
 2417TIP3   OH228665   4.512   4.852  12.559 -0.4090  0.5955 -0.3255
 2417TIP3    H128666   4.562   4.875  12.637  0.9170 -1.0184 -0.6488
 2417TIP3    H228667   4.471   4.769  12.581 -0.0402  0.1391 -1.3414
 2418TIP3   OH228668   1.935   4.833   3.667  0.5092 -0.0989  0.4590
 2418TIP3    H128669   1.864   4.773   3.693  0.3796 -0.1227  0.0633
 2418TIP3    H228670   1.995   4.778   3.617  1.0911 -0.1992  1.2629
 2419TIP3   OH228671   2.458   2.086  14.208 -0.0665  0.6614  0.3783
 2419TIP3    H128672   2.508   2.083  14.126  0.0716  0.4705  0.4703
 2419TIP3    H228673   2.375   2.128  14.184 -0.1935  0.2385  0.0540
 2420TIP3   OH228674   4.119   3.151   4.168  0.2801  0.1112 -0.0834
 2420TIP3    H128675   4.075   3.088   4.111  0.7401 -0.8594  0.6138
 2420TIP3    H228676   4.101   3.236   4.127 -1.8613 -0.2732 -0.0657
 2421TIP3   OH228677   3.597   6.171  14.314  0.0544 -0.1689 -0.8988
 2421TIP3    H128678   3.691   6.155  14.308  0.1172 -0.4236  0.4719
 2421TIP3    H228679   3.586   6.261  14.286  1.1737  1.0188  2.0733
 2422TIP3   OH228680   5.699   0.208   3.437 -0.7277  0.3589 -0.6613
 2422TIP3    H128681   5.627   0.162   3.481  0.2385 -1.2226 -0.6813
 2422TIP3    H228682   5.778   0.170   3.474  0.1158  1.4240 -1.3184
 2423TIP3   OH228683   4.593   6.747   4.884  0.5904 -0.3198  0.2463
 2423TIP3    H128684   4.573   6.701   4.802  0.7200  0.2102 -0.0880
 2423TIP3    H228685   4.508   6.771   4.920  0.5198 -0.8512  0.4442
 2424TIP3   OH228686   5.822   1.930  11.787  0.0054  0.0346  0.1013
 2424TIP3    H128687   5.763   1.894  11.853  0.4206 -0.7689  0.0336
 2424TIP3    H228688   5.896   1.964  11.837  0.6238 -1.1489  0.0246
 2425TIP3   OH228689   5.527   5.140   4.570  0.2913 -0.1778  0.2605
 2425TIP3    H128690   5.563   5.081   4.636 -0.4624  0.2050  1.0436
 2425TIP3    H228691   5.508   5.221   4.618 -1.5253 -0.3442 -0.0918
 2426TIP3   OH228692   1.802   3.015  11.090  0.5016  0.2854 -0.0242
 2426TIP3    H128693   1.759   3.015  11.005  0.1611 -0.6806  0.1421
 2426TIP3    H228694   1.743   2.967  11.147  2.4757 -2.5539 -0.1685
 2427TIP3   OH228695   5.500   1.571  12.576  0.3398 -0.1074  0.4549
 2427TIP3    H128696   5.534   1.633  12.512  1.6075 -0.7712  0.4461
 2427TIP3    H228697   5.456   1.504  12.523 -0.3600  0.3727  0.4177
 2428TIP3   OH228698   5.542   5.047   3.959 -0.2031  0.3863 -0.6893
 2428TIP3    H128699   5.518   5.027   3.869 -2.8912  0.5870 -0.1106
 2428TIP3    H228700   5.460   5.035   4.008  1.7443 -2.7420  2.2613
 2429TIP3   OH228701   2.206   4.860   4.125 -0.2544  0.0366 -0.1411
 2429TIP3    H128702   2.170   4.808   4.054  1.5510  0.8869 -1.7864
 2429TIP3    H228703   2.297   4.832   4.132  0.1309  1.3498  0.4935
 2430TIP3   OH228704   5.078   4.848   0.387  0.2224 -0.0251  0.4294
 2430TIP3    H128705   5.060   4.783   0.455 -0.3160  0.1651  0.4759
 2430TIP3    H228706   4.999   4.902   0.384  1.0160  1.2307  1.0453
 2431TIP3   OH228707   1.238   4.839   3.947 -0.5074  0.0847  0.1476
 2431TIP3    H128708   1.219   4.891   4.026  1.1668 -1.4287  1.6494
 2431TIP3    H228709   1.178   4.764   3.953 -1.6711  0.8767 -1.0614
 2432TIP3   OH228710   3.307   1.213  10.720 -0.0865  0.0567  0.0416
 2432TIP3    H128711   3.389   1.234  10.676 -0.6351  0.5034 -0.8088
 2432TIP3    H228712   3.241   1.216  10.650 -0.8019 -0.4753  0.6671
 2433TIP3   OH228713   3.835   0.591  15.357  0.0602 -0.1468 -0.0135
 2433TIP3    H128714   3.815   0.646  15.281 -0.5727  0.6608  0.7137
 2433TIP3    H228715   3.906   0.637  15.402  1.5614 -1.4512 -0.9550
 2434TIP3   OH228716   0.899   5.530   4.303  0.2826 -0.0488 -0.3306
 2434TIP3    H128717   0.915   5.594   4.372 -0.7422 -0.2922  0.1519
 2434TIP3    H228718   0.956   5.456   4.326  0.2229  0.0216  0.0522
 2435TIP3   OH228719   6.085   2.586  16.949  0.0770 -0.4700 -0.7977
 2435TIP3    H128720   6.144   2.605  16.876  0.9377 -1.7578 -0.4876
 2435TIP3    H228721   6.066   2.493  16.940 -2.7417  0.0867 -1.4349
 2436TIP3   OH228722   3.938   3.571  10.717 -0.4438 -0.4047 -0.8193
 2436TIP3    H128723   3.890   3.489  10.731  2.6928 -2.1291  0.6825
 2436TIP3    H228724   3.935   3.615  10.802 -0.0441 -0.1342 -0.9439
 2437TIP3   OH228725   2.796   5.042  14.083 -0.4876 -0.2467  0.9194
 2437TIP3    H128726   2.767   5.132  14.097 -0.8241 -0.1981 -0.0012
 2437TIP3    H228727   2.732   4.988  14.129 -2.3409 -0.1577 -1.3521
 2438TIP3   OH228728   2.486   4.640  10.913 -0.4729  0.0298  0.2630
 2438TIP3    H128729   2.581   4.635  10.898 -0.6708 -0.8073 -0.8449
 2438TIP3    H228730   2.455   4.551  10.897 -1.2549 -0.0923  2.2044
 2439TIP3   OH228731   6.152   6.555   1.623 -0.2485  0.5458 -0.0394
 2439TIP3    H128732   6.130   6.605   1.545 -0.8895  0.5644  0.1447
 2439TIP3    H228733   6.099   6.475   1.616 -0.3855  0.5939  0.4224
 2440TIP3   OH228734   5.033   0.379   2.065 -0.0938  0.5132 -1.0263
 2440TIP3    H128735   5.027   0.454   2.124  1.5251  1.0081 -1.4444
 2440TIP3    H228736   5.016   0.415   1.978 -1.6375 -0.0637 -0.9962
 2441TIP3   OH228737   0.444   1.534  14.391  0.5140  0.4447 -0.1619
 2441TIP3    H128738   0.457   1.610  14.447  0.5986  0.5490 -0.3234
 2441TIP3    H228739   0.476   1.460  14.443 -0.3718  0.4032  0.3332
 2442TIP3   OH228740   5.532   4.599  13.032  0.1541 -0.2398  0.0965
 2442TIP3    H128741   5.527   4.504  13.026 -2.1069 -0.2705  1.3692
 2442TIP3    H228742   5.455   4.631  12.985  0.7214  0.9673 -0.0645
 2443TIP3   OH228743   3.692   3.819   7.318  0.0282 -0.4887 -0.1193
 2443TIP3    H128744   3.693   3.733   7.276 -1.4779 -0.5450 -0.0922
 2443TIP3    H228745   3.678   3.880   7.245 -1.7654 -0.5194  0.1689
 2444TIP3   OH228746   6.234   3.900   5.922 -0.0549 -0.0586 -0.8975
 2444TIP3    H128747   6.237   3.911   5.827  2.5847  0.2721 -0.8299
 2444TIP3    H228748   6.293   3.967   5.956 -0.1559 -0.8374  0.9126
 2445TIP3   OH228749   4.602   2.498  13.137 -0.3723  0.5880  0.3171
 2445TIP3    H128750   4.514   2.519  13.168  0.1637  1.4499  1.3005
 2445TIP3    H228751   4.633   2.430  13.196 -0.8296 -0.6564 -0.8131
 2446TIP3   OH228752   4.587   0.774  13.739  0.4136 -0.2335 -0.1547
 2446TIP3    H128753   4.548   0.861  13.747  0.7264 -0.0287 -0.7502
 2446TIP3    H228754   4.678   0.791  13.715  1.1162 -0.6792  2.0123
 2447TIP3   OH228755   3.880   0.531   5.246  0.1127  0.0910  0.0420
 2447TIP3    H128756   3.900   0.438   5.233 -2.1498 -0.2272 -1.7908
 2447TIP3    H228757   3.850   0.561   5.161 -0.8958  2.0712  1.0371
 2448TIP3   OH228758   5.495   6.598   2.079 -0.2394 -0.5588  0.2187
 2448TIP3    H128759   5.493   6.582   1.985  0.8251 -1.1088  0.2761
 2448TIP3    H228760   5.574   6.554   2.110 -0.2953  0.0458  1.2931
 2449TIP3   OH228761   1.418   2.440  15.319  0.2776 -0.1779 -0.5104
 2449TIP3    H128762   1.422   2.498  15.242  1.4298 -0.0971 -0.4115
 2449TIP3    H228763   1.480   2.370  15.299  1.2813  0.3154  0.7050
 2450TIP3   OH228764   1.688   1.991  14.602  0.1460  0.0298  0.2553
 2450TIP3    H128765   1.705   2.080  14.572 -1.4267  0.5763  0.8884
 2450TIP3    H228766   1.767   1.966  14.650  1.2151  0.4891 -1.1786
 2451TIP3   OH228767   3.245   3.166   6.511  0.0420 -0.1779  0.2197
 2451TIP3    H128768   3.329   3.132   6.479 -0.1703 -0.8057  0.3331
 2451TIP3    H228769   3.182   3.145   6.442  0.2380  1.6467 -0.5782
 2452TIP3   OH228770   4.120   1.708  12.448 -0.5361  0.6805 -0.1030
 2452TIP3    H128771   4.206   1.702  12.491 -0.8847 -0.6437  0.4521
 2452TIP3    H228772   4.058   1.716  12.520 -0.9196  1.3596 -0.4989
 2453TIP3   OH228773   2.080   1.080   3.959  0.4358  0.0792  0.2222
 2453TIP3    H128774   2.034   1.051   4.038  1.3521 -0.9758  0.3840
 2453TIP3    H228775   2.027   1.047   3.886  0.7777 -0.8876  0.4042
 2454TIP3   OH228776   5.326   2.913  11.591 -0.2321 -0.4522  0.2763
 2454TIP3    H128777   5.386   2.852  11.548 -0.8982 -0.1600 -1.0871
 2454TIP3    H228778   5.276   2.953  11.520 -1.2165  0.1993  1.3017
 2455TIP3   OH228779   4.405   6.363  15.892  0.4839 -0.2424 -0.0120
 2455TIP3    H128780   4.486   6.313  15.893  1.4631  1.2744  0.0362
 2455TIP3    H228781   4.364   6.340  15.809  0.1887 -2.1602  0.6209
 2456TIP3   OH228782   5.726   1.233  16.370 -0.2688 -0.0133 -0.5370
 2456TIP3    H128783   5.718   1.140  16.391 -1.3079  0.3731  0.8753
 2456TIP3    H228784   5.821   1.247  16.360 -0.0757 -1.1441 -0.4444
 2457TIP3   OH228785   4.221   2.005   5.050  0.0590  0.3586 -0.3269
 2457TIP3    H128786   4.296   2.059   5.024 -0.1287  1.5219  1.3575
 2457TIP3    H228787   4.150   2.068   5.063 -0.5599 -0.4626  0.3737
 2458TIP3   OH228788   3.778   3.446   1.318  0.1578 -0.2202 -0.0011
 2458TIP3    H128789   3.783   3.497   1.398  1.1911 -1.0536  0.4912
 2458TIP3    H228790   3.687   3.414   1.315 -0.2401  0.8688  0.1457
 2459TIP3   OH228791   5.501   2.594  11.631 -0.3422  0.4260  0.2830
 2459TIP3    H128792   5.574   2.649  11.603  1.0420 -1.3693  0.1835
 2459TIP3    H228793   5.507   2.517  11.575 -2.4448  0.2768  0.1773
 2460TIP3   OH228794   6.657   3.829   4.368  0.1434  0.4402  0.1624
 2460TIP3    H128795   6.696   3.909   4.334  1.3031 -0.6177 -1.1237
 2460TIP3    H228796   6.630   3.780   4.291 -1.3260 -0.0699  0.9532
 2461TIP3   OH228797   6.513   6.803  11.260 -0.5587 -0.6636 -0.4315
 2461TIP3    H128798   6.599   6.785  11.298 -0.0420  1.2863 -0.5540
 2461TIP3    H228799   6.450   6.772  11.325  0.2800 -0.1488  0.6641
 2462TIP3   OH228800   1.754   3.773  11.951  0.1070 -0.4715  0.0157
 2462TIP3    H128801   1.674   3.788  12.002  0.0944 -0.9147  0.1329
 2462TIP3    H228802   1.815   3.734  12.013 -0.3096 -2.1563 -0.5657
 2463TIP3   OH228803   2.429   5.693  15.609  0.1981 -0.0286 -0.1409
 2463TIP3    H128804   2.355   5.631  15.602 -1.0121  1.2891  0.4417
 2463TIP3    H228805   2.502   5.647  15.568 -0.7130 -1.7438  0.0375
 2464TIP3   OH228806   6.435   4.308   2.747  0.0131 -0.0122 -0.1492
 2464TIP3    H128807   6.383   4.305   2.828 -1.0680 -2.8476 -0.8318
 2464TIP3    H228808   6.498   4.379   2.762 -1.8238  1.2906  2.1019
 2465TIP3   OH228809   6.185   2.316   0.194  0.3560 -0.1055  0.1224
 2465TIP3    H128810   6.128   2.298   0.119 -1.5727 -0.8724  1.6596
 2465TIP3    H228811   6.180   2.411   0.205 -0.1569 -0.0941 -0.1431
 2466TIP3   OH228812   2.180   6.633  16.784 -0.1147 -0.2443 -0.0107
 2466TIP3    H128813   2.183   6.541  16.812  0.0167 -0.0148  0.7771
 2466TIP3    H228814   2.230   6.635  16.703 -0.8489 -1.0190 -0.4923
 2467TIP3   OH228815   1.400   4.193   2.539  0.2751  0.3241 -0.0104
 2467TIP3    H128816   1.382   4.168   2.448  0.1640  0.7922 -0.1194
 2467TIP3    H228817   1.457   4.124   2.572 -0.9571 -0.7038  0.0518
 2468TIP3   OH228818   4.241   3.630  12.248 -0.6363 -0.3825  0.0847
 2468TIP3    H128819   4.291   3.708  12.270 -0.8378 -0.5175  1.1099
 2468TIP3    H228820   4.151   3.652  12.273 -0.9891 -0.3698 -1.1344
 2469TIP3   OH228821   2.536   3.740  11.702 -0.8156  0.0228  0.3815
 2469TIP3    H128822   2.543   3.645  11.715 -1.4187 -0.0424  0.2619
 2469TIP3    H228823   2.490   3.748  11.618  1.0487  0.4223 -0.6664
 2470TIP3   OH228824   6.591   6.735   5.107  0.2375  0.3880 -0.0437
 2470TIP3    H128825   6.529   6.674   5.148  0.8594 -0.5951 -0.5176
 2470TIP3    H228826   6.643   6.769   5.181  0.1054  0.0754  0.1969
 2471TIP3   OH228827   5.633   1.999   3.567 -0.2828 -0.3027 -0.6935
 2471TIP3    H128828   5.689   2.019   3.492 -0.6878 -0.6347 -1.0897
 2471TIP3    H228829   5.693   1.998   3.642  0.1781 -0.2981 -1.0571
 2472TIP3   OH228830   1.897   5.436  16.935  0.6982 -0.6184 -0.3275
 2472TIP3    H128831   1.823   5.439  16.874 -1.1682  0.0255  1.8209
 2472TIP3    H228832   1.913   5.343  16.949 -0.8384 -0.8037  0.4074
 2473TIP3   OH228833   2.752   0.240   3.835  0.0943 -0.5338  0.0334
 2473TIP3    H128834   2.762   0.182   3.910  0.1109 -0.8770 -0.2296
 2473TIP3    H228835   2.676   0.294   3.856  0.6505  0.0070  0.6981
 2474TIP3   OH228836   3.447   4.035  11.658  0.1710 -0.2623 -0.0310
 2474TIP3    H128837   3.370   3.994  11.618 -1.8098  0.5598  2.6810
 2474TIP3    H228838   3.505   3.962  11.677 -0.8289 -1.1554 -0.3077
 2475TIP3   OH228839   4.541   0.982   3.783  0.0163  0.1793 -0.6889
 2475TIP3    H128840   4.495   0.993   3.866  1.9612  0.5006  0.4124
 2475TIP3    H228841   4.475   0.946   3.724 -1.2277 -0.8809  1.2270
 2476TIP3   OH228842   4.134   0.354  11.026 -0.5930 -0.0322  0.1658
 2476TIP3    H128843   4.217   0.359  11.075 -0.0434  2.6978 -0.8507
 2476TIP3    H228844   4.087   0.433  11.052 -1.9491 -0.4706 -0.8940
 2477TIP3   OH228845   1.353   4.898  16.692 -0.1797 -0.1162  0.7669
 2477TIP3    H128846   1.307   4.872  16.613  0.3983 -1.0661  0.7360
 2477TIP3    H228847   1.297   4.966  16.730 -0.1945  0.7502 -0.7274
 2478TIP3   OH228848   2.782   6.745   0.293 -0.0404  0.4642 -0.2845
 2478TIP3    H128849   2.843   6.696   0.348 -1.5159 -0.1470  0.8716
 2478TIP3    H228850   2.831   6.763   0.213  1.5813 -0.1626  0.5185
 2479TIP3   OH228851   2.655   4.843   5.529  0.5405 -0.5019  0.5158
 2479TIP3    H128852   2.740   4.873   5.497  0.1894  1.6046  1.3719
 2479TIP3    H228853   2.592   4.902   5.486 -0.3095 -0.7418  1.3988
 2480TIP3   OH228854   2.520   1.033  15.416 -0.1659 -0.4463  0.2284
 2480TIP3    H128855   2.521   1.126  15.394 -1.2015 -0.7039 -1.0545
 2480TIP3    H228856   2.427   1.011  15.423  0.0716 -0.9592  2.5878
 2481TIP3   OH228857   1.784   3.175   1.399 -0.6970  0.2475 -0.3597
 2481TIP3    H128858   1.779   3.080   1.392 -1.1794  0.0127  2.1066
 2481TIP3    H228859   1.701   3.200   1.441 -0.1461  1.6151 -0.0236
 2482TIP3   OH228860   3.010   1.343   0.097 -0.1936  0.3377 -0.6532
 2482TIP3    H128861   2.956   1.415   0.130 -1.2764 -0.2490 -1.0741
 2482TIP3    H228862   2.959   1.264   0.117  0.7749 -0.2858 -0.5796
 2483TIP3   OH228863   2.565   2.678   4.373 -0.4660 -0.1149 -0.0093
 2483TIP3    H128864   2.584   2.765   4.336  0.8152 -0.1934  0.4355
 2483TIP3    H228865   2.557   2.621   4.296  0.4433  0.0617 -0.2426
 2484TIP3   OH228866   1.559   0.059  10.594 -0.0990  0.4817 -0.2369
 2484TIP3    H128867   1.616  -0.018  10.592 -0.9802 -0.1687 -1.8296
 2484TIP3    H228868   1.616   0.129  10.628  0.5580 -0.9410  1.7729
 2485TIP3   OH228869   1.207   1.740  10.869  0.4216  0.5163  0.7007
 2485TIP3    H128870   1.176   1.718  10.781 -0.9172 -0.1036  1.2872
 2485TIP3    H228871   1.289   1.692  10.878 -0.5003 -1.2020  0.5279
 2486TIP3   OH228872   3.216   0.116   5.949  0.1934  0.3379  0.6940
 2486TIP3    H128873   3.139   0.173   5.941 -0.5359 -0.0950  3.3303
 2486TIP3    H228874   3.179   0.030   5.969  1.3562 -0.2570  0.3561
 2487TIP3   OH228875   3.644   4.685  15.318  0.0055  0.1897  0.1963
 2487TIP3    H128876   3.606   4.632  15.248 -0.1948  0.9174 -0.2536
 2487TIP3    H228877   3.664   4.769  15.277  0.0801  0.5580  0.9615
 2488TIP3   OH228878   3.254   2.397  14.054 -0.1202 -0.7551 -0.1836
 2488TIP3    H128879   3.223   2.389  14.144 -2.5824  2.6760 -0.5393
 2488TIP3    H228880   3.295   2.312  14.035 -0.3829 -1.9534  3.7787
 2489TIP3   OH228881   6.022   3.425   6.490  0.1279  0.0921 -0.1316
 2489TIP3    H128882   6.052   3.515   6.490 -0.7732  0.4051 -0.9495
 2489TIP3    H228883   6.042   3.393   6.578 -0.9892  1.5845  0.7087
 2490TIP3   OH228884   5.909   2.180   5.588  0.6437  0.2437 -0.2402
 2490TIP3    H128885   6.001   2.203   5.576  1.0348 -1.6239 -1.1106
 2490TIP3    H228886   5.909   2.085   5.601 -1.2026  0.1169 -0.8348
 2491TIP3   OH228887   0.304   0.878   2.346 -0.7558  0.1824 -0.2532
 2491TIP3    H128888   0.362   0.928   2.403  0.3015 -0.7156 -0.5208
 2491TIP3    H228889   0.247   0.830   2.407  0.4813 -0.9128  0.0987
 2492TIP3   OH228890   2.334   2.010  15.628  0.5575  0.0121 -0.5329
 2492TIP3    H128891   2.269   1.962  15.680 -1.2210  2.1614 -0.6202
 2492TIP3    H228892   2.418   1.982  15.664 -0.5221  0.3846  2.6484
 2493TIP3   OH228893   6.675   3.786  13.502  0.4995 -0.6173  0.3461
 2493TIP3    H128894   6.756   3.737  13.487  1.5367  0.8502  0.8804
 2493TIP3    H228895   6.623   3.730  13.559  1.8575 -0.9187  1.3459
 2494TIP3   OH228896   2.417   3.562  15.668 -0.3317  0.0150  0.1123
 2494TIP3    H128897   2.456   3.476  15.652 -2.6257 -1.2782  0.9263
 2494TIP3    H228898   2.345   3.544  15.728  0.3113  2.8268  1.9031
 2495TIP3   OH228899   3.720   1.897  16.060  0.3249 -0.5980  0.0919
 2495TIP3    H128900   3.813   1.914  16.076 -0.0134 -0.9386  3.0086
 2495TIP3    H228901   3.713   1.801  16.056  0.0853 -0.5733 -0.1565
 2496TIP3   OH228902   6.226   1.726   0.353  0.2299 -0.1202  0.4743
 2496TIP3    H128903   6.298   1.676   0.391  1.3029  0.3919 -0.8023
 2496TIP3    H228904   6.153   1.713   0.413  1.2060 -1.1616  1.4764
 2497TIP3   OH228905   2.683   5.102   0.116  0.1900 -0.7502  0.0076
 2497TIP3    H128906   2.748   5.044   0.156 -1.5138 -2.0040  1.1089
 2497TIP3    H228907   2.730   5.147   0.046  1.8335 -2.7960 -0.2873
 2498TIP3   OH228908   4.754   3.460   0.203 -0.4228 -0.5085  0.1987
 2498TIP3    H128909   4.798   3.504   0.131  0.1817 -0.8820  0.3281
 2498TIP3    H228910   4.674   3.425   0.165  0.3614 -1.5489 -0.5401
 2499TIP3   OH228911   6.089   2.169   1.196 -0.2895  0.2109 -0.3028
 2499TIP3    H128912   6.138   2.240   1.238  1.1588 -0.2274 -1.2159
 2499TIP3    H228913   6.036   2.213   1.129  0.9661  0.3976 -1.1929
 2500TIP3   OH228914   2.496   0.804  16.446 -0.1663 -0.7422  0.9129
 2500TIP3    H128915   2.561   0.772  16.383  0.2795  0.0823  0.9416
 2500TIP3    H228916   2.490   0.898  16.429 -2.8822 -1.0935 -0.4700
 2501TIP3   OH228917   0.242   4.968   5.064 -0.4329  0.8164  0.0377
 2501TIP3    H128918   0.331   4.951   5.032 -0.3932 -1.4332  1.1049
 2501TIP3    H228919   0.189   4.976   4.985  0.3021 -0.6084 -0.6466
 2502TIP3   OH228920   6.222   5.899   2.288 -0.1247 -0.6672  0.2697
 2502TIP3    H128921   6.265   5.980   2.258  0.1629 -0.9291 -0.0319
 2502TIP3    H228922   6.294   5.837   2.299 -0.4484 -1.1571 -0.3738
 2503TIP3   OH228923   1.174   5.991  11.293 -0.0137  0.1923  0.2951
 2503TIP3    H128924   1.149   6.019  11.205 -1.4321 -0.6136  0.4134
 2503TIP3    H228925   1.239   5.922  11.278 -0.6762 -0.3511 -0.1500
 2504TIP3   OH228926   1.745   4.122  12.247  0.1606  0.0811 -0.2323
 2504TIP3    H128927   1.651   4.121  12.228 -0.6011  0.4463  2.9535
 2504TIP3    H228928   1.764   4.034  12.279 -0.0781  1.0217  2.7968
 2505TIP3   OH228929   1.847   1.015  15.455  0.0082 -0.5776  0.4650
 2505TIP3    H128930   1.938   0.994  15.476 -0.6678 -1.8474  2.4051
 2505TIP3    H228931   1.797   0.944  15.495 -1.7477 -0.9731 -2.1975
 2506TIP3   OH228932   6.392   5.701   2.348  0.0644  0.1295  0.1761
 2506TIP3    H128933   6.312   5.650   2.341 -0.4704  0.9508  0.2210
 2506TIP3    H228934   6.442   5.659   2.418  0.4241 -1.3712 -0.9234
 2507TIP3   OH228935   3.463   2.679  15.567 -0.0736 -0.2696 -0.0008
 2507TIP3    H128936   3.371   2.701  15.581  0.2884  0.2697  1.8259
 2507TIP3    H228937   3.478   2.603  15.624  0.3049 -1.2182 -1.3106
 2508TIP3   OH228938   4.273   4.810   1.545 -0.1712 -0.0613  0.8654
 2508TIP3    H128939   4.199   4.767   1.503  0.5629 -0.6757  0.1567
 2508TIP3    H228940   4.336   4.740   1.560  0.6074  0.5785  0.6915
 2509TIP3   OH228941   0.909   6.620  16.040 -0.2924  0.2525 -0.0752
 2509TIP3    H128942   0.899   6.705  15.996  0.7950  1.3571  1.7059
 2509TIP3    H228943   0.846   6.621  16.111  0.5870  0.1243  0.7337
 2510TIP3   OH228944   6.665   3.988   2.782 -0.2082  0.5582 -0.3639
 2510TIP3    H128945   6.753   3.957   2.763 -0.5005  1.6137 -4.4566
 2510TIP3    H228946   6.678   4.068   2.832  1.2098  0.8589 -1.1487
 2511TIP3   OH228947   5.092   4.333   0.418  0.0105  0.3129 -0.5586
 2511TIP3    H128948   5.082   4.311   0.510 -1.3867 -0.5880 -0.8887
 2511TIP3    H228949   5.160   4.400   0.416  1.5910 -1.1550  0.9053
 2512TIP3   OH228950   5.255   2.642  11.782 -0.0746  0.1631  0.0745
 2512TIP3    H128951   5.330   2.654  11.724  0.3233  2.3282  0.9405
 2512TIP3    H228952   5.291   2.600  11.861  0.1552  0.8261  0.3244
 2513TIP3   OH228953   5.181   2.323   4.226 -0.2287 -0.1182 -0.1857
 2513TIP3    H128954   5.125   2.361   4.294 -1.3217 -0.5559 -0.8184
 2513TIP3    H228955   5.236   2.261   4.274 -2.9068 -2.5681  0.0506
 2514TIP3   OH228956   1.729   6.492  12.069 -0.0630  0.2968  0.4361
 2514TIP3    H128957   1.803   6.498  12.129  1.2342 -0.3957 -1.0251
 2514TIP3    H228958   1.752   6.421  12.009 -2.1392 -0.2667  0.2238
 2515TIP3   OH228959   4.561   0.444   3.611  0.5512  0.6378  0.3488
 2515TIP3    H128960   4.601   0.530   3.624  0.9789  0.9594 -2.3388
 2515TIP3    H228961   4.634   0.386   3.589  0.1935 -0.2717  1.4961
 2516TIP3   OH228962   3.048   0.492   6.576 -0.3434 -0.0140  0.2487
 2516TIP3    H128963   3.080   0.406   6.603 -0.9400  0.0771  1.3045
 2516TIP3    H228964   2.953   0.481   6.570 -0.2920  0.1643 -1.1772
 2517TIP3   OH228965   1.385   0.348  16.864  0.6078 -0.0273  0.0904
 2517TIP3    H128966   1.310   0.369  16.809 -0.3170  1.4184  1.7747
 2517TIP3    H228967   1.457   0.334  16.803 -0.2576  1.8520 -1.4740
 2518TIP3   OH228968   0.391   5.711   4.967 -0.1679  0.0036  0.3351
 2518TIP3    H128969   0.413   5.763   5.044 -1.3844  0.8642  0.1380
 2518TIP3    H228970   0.381   5.622   5.000  3.4649 -0.5074  0.4356
 2519TIP3   OH228971   5.513   0.497   4.009 -0.1738  0.2111  0.4336
 2519TIP3    H128972   5.581   0.521   4.071  0.3010 -0.1361  0.0584
 2519TIP3    H228973   5.431   0.512   4.056  0.1389  1.1569  0.7007
 2520TIP3   OH228974   3.974   3.089   0.348 -0.0227  0.1417 -0.2453
 2520TIP3    H128975   4.035   3.103   0.420  0.7725 -0.0501 -0.8655
 2520TIP3    H228976   3.902   3.039   0.387 -0.2896  1.2399  0.7304
 2521TIP3   OH228977   4.942   1.834   4.490 -0.6822  0.8222  0.5228
 2521TIP3    H128978   4.965   1.749   4.527 -1.4891  1.0905  1.7042
 2521TIP3    H228979   4.864   1.861   4.539 -1.0856  1.7433 -0.5888
 2522TIP3   OH228980   0.035   5.395   2.887  0.7068  0.2596 -0.0737
 2522TIP3    H128981   0.064   5.442   2.965  0.1230  1.0247 -0.3141
 2522TIP3    H228982   0.115   5.360   2.849  1.0655  0.4329  0.5122
 2523TIP3   OH228983   1.480   5.346   1.826  0.1802  0.0372 -0.9119
 2523TIP3    H128984   1.556   5.293   1.848  0.0363  0.0065 -0.4828
 2523TIP3    H228985   1.405   5.293   1.850  0.0399  0.8727  0.5999
 2524TIP3   OH228986   0.811   0.979   0.269 -0.0014 -0.3178  0.0324
 2524TIP3    H128987   0.804   1.034   0.191  1.2191 -0.1317  0.0285
 2524TIP3    H228988   0.860   0.902   0.240  0.4086 -0.2767  0.6002
 2525TIP3   OH228989   6.300   1.520  11.937 -0.7316  0.5986 -0.3648
 2525TIP3    H128990   6.231   1.506  11.872  2.9794 -3.6430 -3.9997
 2525TIP3    H228991   6.311   1.435  11.979  1.6771  1.3828  0.7557
 2526TIP3   OH228992   2.640   6.348  11.302  0.1507 -0.3229  0.3069
 2526TIP3    H128993   2.598   6.425  11.341  2.1787  1.2891 -0.4782
 2526TIP3    H228994   2.602   6.342  11.214  1.9125  1.5924 -0.6884
 2527TIP3   OH228995   5.139   4.895  13.921  0.3892  0.3977 -0.2661
 2527TIP3    H128996   5.071   4.855  13.976 -0.6963 -0.3580 -2.0894
 2527TIP3    H228997   5.220   4.880  13.970 -0.6550  0.8011  1.6830
 2528TIP3   OH228998   3.881   5.062  13.973 -0.3643 -0.1645 -0.0142
 2528TIP3    H128999   3.841   5.077  14.059 -0.3126 -2.6013  0.4939
 2528TIP3    H229000   3.818   5.009  13.926 -0.6166  1.5682 -1.7347
 2529TIP3   OH229001   5.262   3.094   3.458  0.1564  0.1804 -0.7839
 2529TIP3    H129002   5.242   3.159   3.525 -0.5753  0.2901 -1.0919
 2529TIP3    H229003   5.357   3.091   3.454  0.2054  0.3374  0.0970
 2530TIP3   OH229004   3.204   6.296   2.796  0.1990  0.0443 -0.9455
 2530TIP3    H129005   3.239   6.358   2.861 -2.2289 -0.1648  0.6533
 2530TIP3    H229006   3.276   6.234   2.782  1.1801  0.7402  0.6673
 2531TIP3   OH229007   2.713   6.056  13.895 -0.1974  0.5167 -0.0262
 2531TIP3    H129008   2.783   6.055  13.831  0.6985  3.0855  0.7801
 2531TIP3    H229009   2.751   6.018  13.974 -0.3951 -0.0223 -0.1879
 2532TIP3   OH229010   0.374   4.181  10.884 -0.4248  0.3023  0.2180
 2532TIP3    H129011   0.344   4.248  10.822 -0.6325 -0.0048 -0.0134
 2532TIP3    H229012   0.356   4.219  10.970  2.1586  1.8566  0.2027
 2533TIP3   OH229013   4.497   4.773   0.451  0.1371  0.3752 -0.2654
 2533TIP3    H129014   4.443   4.820   0.388 -2.0577 -1.4867  0.0781
 2533TIP3    H229015   4.487   4.822   0.533 -0.3954  0.5105 -0.4058
 2534TIP3   OH229016   1.812   5.828  14.421  0.1227 -0.0471  0.2602
 2534TIP3    H129017   1.772   5.781  14.348  0.8298  0.5247 -0.5120
 2534TIP3    H229018   1.870   5.892  14.380 -2.2015  2.8646  1.1503
 2535TIP3   OH229019   6.779   5.256  14.237  0.1264  0.0373 -0.2538
 2535TIP3    H129020   6.736   5.250  14.322  0.5595 -0.2340 -0.0518
 2535TIP3    H229021   6.735   5.328  14.193  1.1865  1.4695  0.9288
 2536TIP3   OH229022   2.771   0.643  10.715  0.9094 -0.0409 -0.4310
 2536TIP3    H129023   2.714   0.569  10.695 -1.6712  1.1253  1.9445
 2536TIP3    H229024   2.815   0.618  10.796  1.2569  0.4363 -0.4697
 2537TIP3   OH229025   2.395   1.765  12.734 -0.2783  0.8613 -0.2308
 2537TIP3    H129026   2.364   1.814  12.809  1.8217  1.7358  0.1423
 2537TIP3    H229027   2.476   1.809  12.708 -0.3431 -0.1014 -2.3064
 2538TIP3   OH229028   5.441   0.400  13.315  0.1496 -0.7212 -0.1941
 2538TIP3    H129029   5.404   0.394  13.227  1.3387  0.1645 -0.7889
 2538TIP3    H229030   5.526   0.356  13.309  2.3567  3.0869 -0.8144
 2539TIP3   OH229031   1.012   5.976  13.664 -0.1092 -0.0224 -0.1129
 2539TIP3    H129032   1.073   6.039  13.627 -2.4428  1.0233 -2.5569
 2539TIP3    H229033   1.030   5.895  13.616  0.5763 -0.2526  0.5224
 2540TIP3   OH229034   1.400   5.124  14.832 -0.4409 -0.6451 -0.3908
 2540TIP3    H129035   1.355   5.194  14.879 -0.2399  0.1896 -1.4188
 2540TIP3    H229036   1.431   5.164  14.751  2.5267 -1.0425  0.4105
 2541TIP3   OH229037   2.897   3.291   4.494  0.3729  0.4865  0.1024
 2541TIP3    H129038   2.902   3.383   4.471 -1.1888  0.2487 -1.4613
 2541TIP3    H229039   2.812   3.262   4.460 -0.7166 -0.7804  3.4372
 2542TIP3   OH229040   4.109   5.544  16.255  0.2907  0.1270 -0.0871
 2542TIP3    H129041   4.128   5.625  16.207  2.1692 -0.4355 -0.3632
 2542TIP3    H229042   4.123   5.568  16.347 -2.5474  0.9947  0.1980
 2543TIP3   OH229043   2.992   0.777   5.368  0.2508  0.2198 -0.0487
 2543TIP3    H129044   2.906   0.787   5.328  0.2447  0.5223  0.0413
 2543TIP3    H229045   2.978   0.715   5.440  0.5737 -1.6453 -1.5022
 2544TIP3   OH229046   1.844   2.227  14.184 -0.3404  0.5921 -0.0388
 2544TIP3    H129047   1.772   2.170  14.211 -0.5828  0.9178  0.0135
 2544TIP3    H229048   1.805   2.314  14.181  0.3780  0.9856  1.3225
 2545TIP3   OH229049   1.734   0.250  11.076  0.2515 -0.1437 -0.5944
 2545TIP3    H129050   1.793   0.186  11.035  0.8451 -0.3592  0.5692
 2545TIP3    H229051   1.667   0.266  11.009  0.7271 -1.1123 -1.3372
 2546TIP3   OH229052   5.518   1.570  11.560  0.0384  0.1166  0.4129
 2546TIP3    H129053   5.570   1.497  11.525 -2.1687 -0.9250 -0.8787
 2546TIP3    H229054   5.511   1.631  11.487 -0.4699  0.3081  0.6199
 2547TIP3   OH229055   5.819   1.843  14.286  0.3318 -0.2809 -0.2368
 2547TIP3    H129056   5.850   1.932  14.272 -2.0478  0.5836 -0.4288
 2547TIP3    H229057   5.833   1.799  14.202 -0.6914  0.6459 -0.9101
 2548TIP3   OH229058   4.197   6.014   3.016 -0.6383 -0.1350  0.0647
 2548TIP3    H129059   4.120   6.055   3.054 -0.4754  0.5675 -0.3382
 2548TIP3    H229060   4.197   6.042   2.925 -2.3917 -3.7566 -1.2168
 2549TIP3   OH229061   3.176   3.267   3.041  0.5011  0.4346  0.0059
 2549TIP3    H129062   3.236   3.311   2.980  0.5640  0.8382  0.3531
 2549TIP3    H229063   3.203   3.175   3.038  0.6216  0.4790 -0.4366
 2550TIP3   OH229064   6.777   4.870  10.960 -0.0142 -0.3145 -0.3642
 2550TIP3    H129065   6.780   4.961  10.991 -1.0423  0.2608 -1.8119
 2550TIP3    H229066   6.723   4.825  11.025  1.3848 -0.1662  0.9430
 2551TIP3   OH229067   0.827   4.471   0.756  0.7863 -0.4925 -0.5809
 2551TIP3    H129068   0.758   4.536   0.746  0.6565 -0.7143 -1.1847
 2551TIP3    H229069   0.815   4.436   0.845  0.6369  0.0475 -0.3855
 2552TIP3   OH229070   3.002   4.955  13.034  0.0571 -0.1559 -0.3699
 2552TIP3    H129071   2.930   4.905  13.073  0.8506 -2.0408 -1.1491
 2552TIP3    H229072   3.014   4.915  12.947  1.4235  0.7440 -0.6350
 2553TIP3   OH229073   4.106   2.576  11.615  0.1613 -0.1861  0.2727
 2553TIP3    H129074   4.035   2.634  11.588  0.0625 -0.2922  0.3069
 2553TIP3    H229075   4.070   2.525  11.687  0.1366 -0.5328  0.0176
 2554TIP3   OH229076   3.422   1.534   2.806 -0.0490  0.1385  0.2411
 2554TIP3    H129077   3.340   1.541   2.855  0.9426  1.6159  1.7719
 2554TIP3    H229078   3.488   1.514   2.872  0.7611 -1.8547 -1.0781
 2555TIP3   OH229079   1.785   3.655   2.099 -0.1621 -0.4601 -0.6600
 2555TIP3    H129080   1.766   3.564   2.122  0.8136 -0.8574 -1.3231
 2555TIP3    H229081   1.881   3.661   2.104 -0.2755  0.8728  0.5551
 2556TIP3   OH229082   2.746   3.928  15.237 -0.2917  0.3643 -0.4355
 2556TIP3    H129083   2.813   3.989  15.206 -0.9164  2.2497  1.6914
 2556TIP3    H229084   2.716   3.883  15.158  3.0963 -0.2646 -1.5388
 2557TIP3   OH229085   2.877   5.266  13.475 -0.4450 -0.2275 -0.2295
 2557TIP3    H129086   2.831   5.350  13.484 -0.2731 -0.2355  0.8539
 2557TIP3    H229087   2.864   5.223  13.560  0.1655 -0.9429 -0.4929
 2558TIP3   OH229088   0.713   4.565   0.406 -0.6376  0.5619 -0.3121
 2558TIP3    H129089   0.653   4.640   0.406 -1.5914 -0.1310  1.7212
 2558TIP3    H229090   0.664   4.495   0.450  1.1614 -0.4792  0.1369
 2559TIP3   OH229091   5.457   0.434   6.395 -0.0653  0.3798  0.6021
 2559TIP3    H129092   5.390   0.376   6.432  0.5047  1.2481  3.2580
 2559TIP3    H229093   5.463   0.507   6.457  2.2576  1.1132 -0.3429
 2560TIP3   OH229094   3.505   4.375   5.684 -0.2282 -0.5505  0.6439
 2560TIP3    H129095   3.484   4.316   5.612 -0.9637 -1.6672  1.7140
 2560TIP3    H229096   3.420   4.402   5.719  0.1105  0.1271  0.9710
 2561TIP3   OH229097   3.122   2.537   2.633  0.1850 -0.3701 -0.0212
 2561TIP3    H129098   3.110   2.526   2.727  1.1390  0.5906  0.2210
 2561TIP3    H229099   3.041   2.580   2.604 -0.5307 -1.5415  0.1779
 2562TIP3   OH229100   1.566   0.967   2.413 -0.1256  0.3984  0.2802
 2562TIP3    H129101   1.553   0.949   2.506 -1.2739  0.7722  0.2054
 2562TIP3    H229102   1.661   0.972   2.402  0.1822 -2.4464  0.8825
 2563TIP3   OH229103   6.781   3.595  13.777 -0.7236  0.4455  0.5201
 2563TIP3    H129104   6.814   3.603  13.687  1.3684  0.7426  1.2488
 2563TIP3    H229105   6.836   3.526  13.816 -2.2960 -0.4209  1.2887
 2564TIP3   OH229106   1.332   0.562   0.772  0.0336 -0.1279  0.1016
 2564TIP3    H129107   1.248   0.520   0.791 -0.3417  0.5932  0.0849
 2564TIP3    H229108   1.383   0.496   0.726 -0.9241 -0.2227 -0.8627
 2565TIP3   OH229109   3.431   0.537   4.761  0.3364  0.1616  0.1571
 2565TIP3    H129110   3.403   0.608   4.704 -0.4468 -0.4587 -0.2536
 2565TIP3    H229111   3.468   0.471   4.701 -1.8897 -1.1685  0.1427
 2566TIP3   OH229112   1.941   2.890  16.287  0.3076  0.5526 -0.0200
 2566TIP3    H129113   1.928   2.886  16.193  2.7161 -0.3939 -0.3809
 2566TIP3    H229114   1.919   2.980  16.311  0.1072  0.9322 -1.5683
 2567TIP3   OH229115   1.716   4.386  13.418 -0.7555 -0.0704  0.3282
 2567TIP3    H129116   1.656   4.346  13.481  0.8321 -0.6112  1.5839
 2567TIP3    H229117   1.803   4.372  13.456  0.0678  2.2978 -0.4945
 2568TIP3   OH229118   3.761   3.872   1.338  0.0049 -0.1744  0.3865
 2568TIP3    H129119   3.712   3.946   1.375  0.0891 -0.2831  0.7230
 2568TIP3    H229120   3.722   3.795   1.379  1.0215 -0.2120  1.3331
 2569TIP3   OH229121   6.148   3.020  12.394  0.2704  0.2429 -0.0429
 2569TIP3    H129122   6.156   2.980  12.480  0.0974 -0.5413 -0.3782
 2569TIP3    H229123   6.059   3.055  12.392 -0.1044 -0.6905 -0.2816
 2570TIP3   OH229124   4.855   4.434   2.338 -0.3222  0.4192 -0.5208
 2570TIP3    H129125   4.942   4.396   2.346 -0.0387  1.3027  0.8433
 2570TIP3    H229126   4.796   4.359   2.339  0.2720 -0.0633  1.3044
 2571TIP3   OH229127   5.697   2.058  15.222  0.0585  0.1197 -0.1131
 2571TIP3    H129128   5.771   2.040  15.165  1.6553 -0.4971  2.0140
 2571TIP3    H229129   5.629   1.997  15.194  1.3098 -1.1868 -0.4310
 2572TIP3   OH229130   2.338   5.799  14.136 -0.2683  0.1586 -0.6558
 2572TIP3    H129131   2.411   5.758  14.182  0.3617  3.9152  2.1814
 2572TIP3    H229132   2.380   5.851  14.067 -0.6018 -0.1184 -1.0759
 2573TIP3   OH229133   5.862   5.096  14.813  0.0898  0.1427 -0.3237
 2573TIP3    H129134   5.861   5.164  14.880 -1.1335 -1.7010  1.6691
 2573TIP3    H229135   5.785   5.114  14.759 -0.1097  0.4745  0.0643
 2574TIP3   OH229136   3.722   0.662  14.274  0.3414  0.3112  0.3976
 2574TIP3    H129137   3.658   0.732  14.267 -0.1757 -0.0502  1.4193
 2574TIP3    H229138   3.786   0.694  14.338  0.9560  0.4883 -0.2902
 2575TIP3   OH229139   3.473   5.506  13.667  0.4267 -0.8896  0.1189
 2575TIP3    H129140   3.523   5.424  13.664  1.7672 -0.1084 -0.0054
 2575TIP3    H229141   3.530   5.570  13.623 -1.1046 -0.1461 -0.8953
 2576TIP3   OH229142   0.325   5.656   0.729 -0.3186  0.3339 -0.1058
 2576TIP3    H129143   0.283   5.646   0.643 -0.3053 -1.9810  0.1054
 2576TIP3    H229144   0.347   5.749   0.734 -2.2624  0.9479 -1.6969
 2577TIP3   OH229145   6.723   0.367  14.888  0.2151  0.0243  0.5991
 2577TIP3    H129146   6.658   0.301  14.913 -0.6973  1.1180  1.2306
 2577TIP3    H229147   6.807   0.321  14.893 -0.4495 -1.2979  0.2343
 2578TIP3   OH229148   0.575   3.785  13.900 -0.0850 -0.1139  0.4430
 2578TIP3    H129149   0.556   3.871  13.865 -0.1832 -0.0380  0.6806
 2578TIP3    H229150   0.593   3.800  13.993  0.3452 -0.2884  0.3918
 2579TIP3   OH229151   4.317   5.118  11.156 -0.2532  0.1749 -0.1823
 2579TIP3    H129152   4.245   5.071  11.198 -0.9759  0.5998 -0.9092
 2579TIP3    H229153   4.353   5.174  11.225 -1.0592  0.4512  0.0190
 2580TIP3   OH229154   1.056   3.959   0.275  0.7068  0.3080 -0.0564
 2580TIP3    H129155   0.993   3.887   0.268 -0.1386  1.1191 -1.1049
 2580TIP3    H229156   1.009   4.028   0.321  1.9629 -0.2445  2.1812
 2581TIP3   OH229157   2.475   5.118   4.387 -0.0425  0.5613 -0.3255
 2581TIP3    H129158   2.403   5.145   4.331  0.2194 -0.0551 -0.9755
 2581TIP3    H229159   2.466   5.171   4.466 -1.9641 -0.3722  0.1462
 2582TIP3   OH229160   4.290   4.077  11.047  0.1632 -0.7939 -0.1857
 2582TIP3    H129161   4.336   4.081  10.963 -0.3288  0.4501 -0.4253
 2582TIP3    H229162   4.217   4.018  11.031 -0.3376 -0.0156 -0.8616
 2583TIP3   OH229163   5.550   5.789  12.045  0.1113 -0.6885 -0.1003
 2583TIP3    H129164   5.611   5.861  12.026 -1.1104  0.4519  0.1532
 2583TIP3    H229165   5.542   5.743  11.961 -0.1117  0.2840 -0.6369
 2584TIP3   OH229166   5.223   1.989   0.669  0.0603  0.3110  0.1160
 2584TIP3    H129167   5.242   1.973   0.577 -1.8540  0.0509 -0.2728
 2584TIP3    H229168   5.146   2.045   0.669  0.4587  0.9248  1.5700
 2585TIP3   OH229169   2.456   4.541  13.025  0.0143  0.2660  0.1713
 2585TIP3    H129170   2.442   4.625  12.981 -0.2408  0.4347  0.5774
 2585TIP3    H229171   2.448   4.476  12.955 -0.5341  0.5225 -0.0110
 2586TIP3   OH229172   4.468   5.306   1.144 -0.2650  0.4262  0.0601
 2586TIP3    H129173   4.424   5.263   1.071  0.5325 -0.5727  0.1389
 2586TIP3    H229174   4.499   5.388   1.108  0.7564 -0.3746 -0.9607
 2587TIP3   OH229175   3.925   2.707   5.339 -0.3157 -0.0855 -0.0459
 2587TIP3    H129176   3.945   2.614   5.349 -0.6172 -0.1387  0.0813
 2587TIP3    H229177   3.842   2.719   5.386 -0.3117  0.2330 -0.1169
 2588TIP3   OH229178   1.234   0.390  15.454  0.7164 -0.1852  0.1312
 2588TIP3    H129179   1.217   0.462  15.515  0.2034  0.0142 -0.2370
 2588TIP3    H229180   1.148   0.369  15.418  0.8008 -1.2457  0.5223
 2589TIP3   OH229181   2.496   6.705   5.396  0.4399 -0.1455  0.3758
 2589TIP3    H129182   2.460   6.650   5.327  0.2741 -0.0989  0.4256
 2589TIP3    H229183   2.585   6.672   5.408  0.7987  0.4505 -0.5116
 2590TIP3   OH229184   6.020   5.493   0.770  0.0405 -0.6876  0.6289
 2590TIP3    H129185   5.987   5.412   0.731  0.7171 -0.9102  0.5037
 2590TIP3    H229186   6.056   5.466   0.854 -0.6494 -0.3451  1.0426
 2591TIP3   OH229187   3.671   1.172  10.860 -0.3709 -0.1227  0.0210
 2591TIP3    H129188   3.617   1.177  10.782  0.4564 -0.2915 -0.5729
 2591TIP3    H229189   3.738   1.239  10.847 -1.4325  1.3144  1.5507
 2592TIP3   OH229190   2.071   2.978   2.294 -0.0775  0.0613  0.3272
 2592TIP3    H129191   2.053   3.011   2.382 -0.4238  0.2261  0.1970
 2592TIP3    H229192   2.022   2.896   2.288  0.9498 -0.5993  0.7219
 2593TIP3   OH229193   0.235   3.564  11.579  0.1597 -0.0080 -0.1496
 2593TIP3    H129194   0.259   3.479  11.542  0.6887 -0.6482  1.5935
 2593TIP3    H229195   0.267   3.562  11.669 -0.2974  1.8389  0.1059
 2594TIP3   OH229196   5.237   5.373  12.361  0.3923 -0.0059 -0.2041
 2594TIP3    H129197   5.255   5.286  12.326  0.5224  0.4602 -1.3607
 2594TIP3    H229198   5.310   5.426  12.330 -1.0524  1.1215 -1.8699
 2595TIP3   OH229199   0.751   5.259  16.306  0.1542 -0.5866 -0.4559
 2595TIP3    H129200   0.745   5.347  16.269 -1.2015 -0.0490  0.9216
 2595TIP3    H229201   0.812   5.267  16.378  0.0296 -0.7695 -0.3276
 2596TIP3   OH229202   3.686   2.645   2.398  0.5638  0.4858 -0.1292
 2596TIP3    H129203   3.683   2.716   2.334  1.4929  0.0236 -0.7056
 2596TIP3    H229204   3.742   2.579   2.358  0.9785  0.0827  1.0725
 2597TIP3   OH229205   3.907   0.798  14.443  0.5248 -0.7256 -0.2674
 2597TIP3    H129206   3.983   0.754  14.405 -0.7610 -3.3841  0.0393
 2597TIP3    H229207   3.923   0.796  14.537  0.7419  0.1181 -0.2733
 2598TIP3   OH229208   1.044   5.363   2.678  0.1673 -0.2802  0.2282
 2598TIP3    H129209   1.108   5.419   2.721 -0.3413 -0.6354  1.4947
 2598TIP3    H229210   1.094   5.289   2.645  0.3676 -0.7455  1.5410
 2599TIP3   OH229211   5.219   5.389   3.278  0.1080 -0.2033 -0.6375
 2599TIP3    H129212   5.263   5.465   3.239  1.0099 -0.0384  0.6348
 2599TIP3    H229213   5.275   5.364   3.351 -0.9709 -1.1625 -0.1102
 2600TIP3   OH229214   4.416   1.629  15.421 -0.2463 -0.1309  0.0773
 2600TIP3    H129215   4.496   1.587  15.451  0.1731  1.2048  0.8771
 2600TIP3    H229216   4.446   1.703  15.368 -0.9751 -0.9807 -1.6124
 2601TIP3   OH229217   2.068   5.375   2.974  0.4273 -0.4191  0.0285
 2601TIP3    H129218   2.113   5.452   3.008 -0.9785  0.0877  0.8276
 2601TIP3    H229219   2.028   5.404   2.892 -3.1934  0.9445  2.0279
 2602TIP3   OH229220   6.125   3.069   0.822  0.0674 -0.4442  0.9953
 2602TIP3    H129221   6.113   3.156   0.861 -1.3167 -0.6194  0.9887
 2602TIP3    H229222   6.141   3.086   0.730  0.0066 -0.1894  1.0303
 2603TIP3   OH229223   4.891   5.000  14.568  0.4148 -0.3656 -0.0028
 2603TIP3    H129224   4.827   4.955  14.624 -0.1261  0.8570  0.3885
 2603TIP3    H229225   4.857   4.990  14.480  1.0692 -1.9710 -0.1128
 2604TIP3   OH229226   5.463   5.568   2.233  0.1931  0.1665 -0.0865
 2604TIP3    H129227   5.492   5.611   2.314 -2.0404  0.3024  0.7014
 2604TIP3    H229228   5.471   5.475   2.251  0.5962  0.2034 -0.0621
 2605TIP3   OH229229   2.301   6.430   4.540  0.5970  0.4520 -0.4688
 2605TIP3    H129230   2.339   6.350   4.576  0.2750 -0.1158 -1.3307
 2605TIP3    H229231   2.206   6.416   4.546  0.5370  0.9236 -0.2975
 2606TIP3   OH229232   0.014   6.011   1.003  0.5903 -0.4048  0.4772
 2606TIP3    H129233   0.043   5.923   0.978  2.0549  0.4022 -0.8858
 2606TIP3    H229234  -0.007   6.054   0.920 -0.7002  0.3606  1.1699
 2607TIP3   OH229235   1.635   5.765   0.911 -0.1168  0.4527  0.0904
 2607TIP3    H129236   1.713   5.802   0.871  0.4088  0.1014  0.7644
 2607TIP3    H229237   1.668   5.696   0.969 -1.0720 -1.0183 -1.0669
 2608TIP3   OH229238   1.472   5.883   5.117  0.2014 -0.5763  0.2088
 2608TIP3    H129239   1.506   5.940   5.186 -0.4694 -0.9560  0.8643
 2608TIP3    H229240   1.381   5.912   5.104  0.1654 -0.8419 -0.1515
 2609TIP3   OH229241   6.610   0.292   5.931 -0.2458  0.0326 -0.3674
 2609TIP3    H129242   6.634   0.322   6.018  0.3431  2.1623 -1.1861
 2609TIP3    H229243   6.663   0.214   5.916  0.4159  0.2486  0.7884
 2610TIP3   OH229244   6.429   5.520   1.877 -0.2113  0.0827  0.7299
 2610TIP3    H129245   6.354   5.519   1.936  0.2185  0.2254  1.2950
 2610TIP3    H229246   6.391   5.515   1.789 -1.0141  2.5170  0.8808
 2611TIP3   OH229247   1.339   3.806  13.815  0.7924 -0.2929  0.8315
 2611TIP3    H129248   1.277   3.869  13.850 -0.5461 -1.1786  0.1131
 2611TIP3    H229249   1.398   3.787  13.889  0.6270  1.0251  1.3343
 2612TIP3   OH229250   4.928   3.301   3.031 -0.1502  0.0093 -0.3773
 2612TIP3    H129251   4.997   3.329   2.971  0.2885  0.1701  0.1817
 2612TIP3    H229252   4.887   3.383   3.059  0.0239 -0.0205 -0.0288
 2613TIP3   OH229253   0.464   5.568   1.774 -0.2577 -0.0647 -0.4672
 2613TIP3    H129254   0.521   5.636   1.812  0.8146 -0.8003 -0.7172
 2613TIP3    H229255   0.379   5.610   1.767  0.4399  1.3680 -0.8610
 2614TIP3   OH229256   2.827   0.422   3.625  0.2928  0.1033 -0.7847
 2614TIP3    H129257   2.789   0.385   3.705  0.7348 -0.7756 -0.9680
 2614TIP3    H229258   2.752   0.456   3.576 -0.0688 -0.0713 -0.3639
 2615TIP3   OH229259   1.620   1.180   1.711 -0.0081 -0.0927 -0.1827
 2615TIP3    H129260   1.546   1.182   1.650  0.4904  0.1187 -0.8023
 2615TIP3    H229261   1.607   1.257   1.767  0.1085  0.3455 -0.7473
 2616TIP3   OH229262   1.264   1.217  12.450 -0.2838 -0.1867 -0.4389
 2616TIP3    H129263   1.259   1.311  12.467 -1.6355  0.1923 -2.5115
 2616TIP3    H229264   1.179   1.183  12.479  0.5662 -1.0128  1.2507
 2617TIP3   OH229265   3.499   0.333   4.111  0.4544  0.3061  0.0435
 2617TIP3    H129266   3.555   0.263   4.078  0.7319 -0.2739  1.6401
 2617TIP3    H229267   3.541   0.413   4.081  1.8161 -0.1412  0.6646
 2618TIP3   OH229268   4.318   5.428   1.334  0.2137  0.0392 -0.6713
 2618TIP3    H129269   4.265   5.484   1.277 -1.1276 -0.2791  0.2229
 2618TIP3    H229270   4.368   5.373   1.274 -1.6954 -0.7821 -1.5686
 2619TIP3   OH229271   0.090   5.593   0.109 -0.0988  0.2589 -0.5213
 2619TIP3    H129272   0.041   5.652   0.167  0.3586  1.3037 -1.1687
 2619TIP3    H229273   0.179   5.596   0.143 -0.2358 -0.6921 -0.0744
 2620TIP3   OH229274   3.891   5.096  16.021 -0.4170 -0.4157  0.3678
 2620TIP3    H129275   3.842   5.174  16.047  0.1978  0.0063  0.3099
 2620TIP3    H229276   3.970   5.099  16.076  1.7059  1.3617 -2.4688
 2621TIP3   OH229277   3.844   1.839   0.965  0.1884 -0.0573  0.1713
 2621TIP3    H129278   3.887   1.759   0.934 -0.8969 -0.9606  0.8992
 2621TIP3    H229279   3.894   1.910   0.926  1.0445 -1.0968 -0.6872
 2622TIP3   OH229280   6.064   0.242   0.509  0.4158 -0.0809  0.3760
 2622TIP3    H129281   5.989   0.290   0.475  0.8547 -0.0824 -0.6045
 2622TIP3    H229282   6.138   0.271   0.457  1.4756  1.2499  2.4842
 2623TIP3   OH229283   0.662   6.544  13.026  0.6966 -0.1756 -0.2831
 2623TIP3    H129284   0.711   6.592  12.959  0.9059  0.1885  0.1274
 2623TIP3    H229285   0.680   6.590  13.107 -0.9752  0.4629 -0.2305
 2624TIP3   OH229286   3.961   0.589  13.563 -0.2584 -0.3918 -0.0061
 2624TIP3    H129287   3.966   0.684  13.552 -1.2927 -0.0303  2.1463
 2624TIP3    H229288   3.934   0.556  13.477  1.6765  1.0543 -1.2513
 2625TIP3   OH229289   0.937   0.337  16.048 -0.4675  0.1978 -0.6867
 2625TIP3    H129290   0.963   0.409  15.990 -0.7697  0.0246 -1.0405
 2625TIP3    H229291   1.010   0.275  16.043 -0.0368  0.6437 -0.0914
 2626TIP3   OH229292   6.109   6.638   3.737  0.1172 -0.4045 -0.2947
 2626TIP3    H129293   6.039   6.685   3.783  1.0077 -0.5963  1.3350
 2626TIP3    H229294   6.083   6.546   3.741  0.4358 -0.4736  0.2956
 2627TIP3   OH229295   0.839   6.482   4.999  0.9133 -0.2737 -1.0484
 2627TIP3    H129296   0.892   6.404   4.984 -1.0568 -1.6726 -1.0820
 2627TIP3    H229297   0.749   6.451   4.998  0.1103  1.2434  3.0563
 2628TIP3   OH229298   4.950   0.979  12.586  0.3661  0.1926 -0.6020
 2628TIP3    H129299   5.043   0.996  12.602  0.7882 -2.1637 -0.0590
 2628TIP3    H229300   4.909   0.982  12.672  0.6501 -2.1564 -0.3164
 2629TIP3   OH229301   3.209   2.127  14.357 -0.1416  0.0581  0.0809
 2629TIP3    H129302   3.242   2.048  14.400 -2.3932 -0.1489  1.6173
 2629TIP3    H229303   3.182   2.184  14.429 -0.2721  1.4576 -1.0311
 2630TIP3   OH229304   5.592   2.576   6.182  0.6127  0.0155  0.7227
 2630TIP3    H129305   5.538   2.623   6.118  0.2628  0.3457  1.2511
 2630TIP3    H229306   5.534   2.507   6.216  0.8776 -0.3180  0.5041
 2631TIP3   OH229307   5.958   2.823  12.787  0.1854 -0.4688 -0.6971
 2631TIP3    H129308   5.901   2.849  12.714  0.5742 -0.0066 -0.8403
 2631TIP3    H229309   5.932   2.733  12.806 -1.8348  0.2609  0.4103
 2632TIP3   OH229310   4.936   6.471   1.912 -0.0858  0.1573  0.4037
 2632TIP3    H129311   4.995   6.517   1.852 -0.0566  1.0561  1.1020
 2632TIP3    H229312   4.910   6.392   1.864 -0.2546  0.9654 -0.8845
 2633TIP3   OH229313   5.700   1.400  13.379  0.2955  0.1848 -0.1904
 2633TIP3    H129314   5.723   1.405  13.472 -0.5629  0.0819  0.0276
 2633TIP3    H229315   5.785   1.405  13.334  0.7213  0.2070  0.5927
 2634TIP3   OH229316   6.601   1.766  16.115 -0.4087 -0.0031 -0.5087
 2634TIP3    H129317   6.636   1.839  16.166 -0.1179 -1.1904  1.0625
 2634TIP3    H229318   6.665   1.695  16.128  0.3894 -0.0038 -3.6072
 2635TIP3   OH229319   5.390   0.183  15.295  0.7510 -0.0158 -0.1923
 2635TIP3    H129320   5.361   0.256  15.350  1.2200  0.4792 -0.5850
 2635TIP3    H229321   5.311   0.132  15.279  0.3609  0.5589 -0.1297
 2636TIP3   OH229322   3.043   3.912   2.944 -0.1461 -0.0752  0.1052
 2636TIP3    H129323   2.982   3.941   3.012 -1.2583  0.0417 -0.9124
 2636TIP3    H229324   2.990   3.903   2.865  1.3493  1.0885 -1.1018
 2637TIP3   OH229325   5.840   0.915   3.765 -0.3827  0.2436 -0.4850
 2637TIP3    H129326   5.801   1.002   3.769  0.4687  0.6151 -0.0547
 2637TIP3    H229327   5.868   0.905   3.674  2.0124  1.5750  0.0105
 2638TIP3   OH229328   5.432   6.635   0.536 -0.4507  0.2727  0.0078
 2638TIP3    H129329   5.403   6.626   0.626 -0.4794  1.5302  0.1383
 2638TIP3    H229330   5.524   6.608   0.537 -0.4315  0.3638  0.4164
 2639TIP3   OH229331   4.298   2.139   3.739 -0.2556 -0.4206  0.5503
 2639TIP3    H129332   4.276   2.219   3.786 -1.8894 -1.2573  1.2909
 2639TIP3    H229333   4.387   2.153   3.708 -0.7633  2.0042 -0.0421
 2640TIP3   OH229334   1.025   0.799   3.723  0.2017 -0.0387  0.1427
 2640TIP3    H129335   1.060   0.885   3.701  0.8815 -0.1090  0.8927
 2640TIP3    H229336   0.957   0.783   3.658 -1.9965  2.3347  1.6558
 2641TIP3   OH229337   4.115   1.161   5.804  0.6284  0.0610  0.5031
 2641TIP3    H129338   4.171   1.183   5.878 -0.6709  2.2948  0.8944
 2641TIP3    H229339   4.164   1.190   5.727  0.8343  0.1883  0.6828
 2642TIP3   OH229340   2.332   3.624  16.901 -0.0482 -0.4144  0.0186
 2642TIP3    H129341   2.310   3.534  16.877 -1.5071 -0.5430  1.6250
 2642TIP3    H229342   2.366   3.618  16.991  0.4776  0.5757 -0.0906
 2643TIP3   OH229343   5.457   2.244   5.717  0.2667 -0.0438  0.8695
 2643TIP3    H129344   5.418   2.179   5.660  0.8908 -0.0696  0.4567
 2643TIP3    H229345   5.500   2.193   5.786  1.3007 -0.1262  0.1991
 2644TIP3   OH229346   3.133   2.636   1.709  0.1484  0.5775 -0.1059
 2644TIP3    H129347   3.067   2.568   1.697 -1.4514  2.3190 -1.8395
 2644TIP3    H229348   3.206   2.609   1.654  0.8689 -1.2171  1.5959
 2645TIP3   OH229349   2.962   1.964  11.845 -0.3450  0.3288  0.1571
 2645TIP3    H129350   2.868   1.970  11.859 -0.2831  0.5272  0.4955
 2645TIP3    H229351   2.992   2.055  11.841  0.0788  0.2768  1.7558
 2646TIP3   OH229352   5.592   3.997  16.458  0.1113 -0.3736  0.7999
 2646TIP3    H129353   5.591   4.090  16.435 -1.4482 -0.5693 -0.0546
 2646TIP3    H229354   5.558   3.994  16.548 -0.6196 -0.1766  0.5347
 2647TIP3   OH229355   3.480   2.545   0.715 -0.3883  0.8363 -0.0657
 2647TIP3    H129356   3.572   2.555   0.737 -0.2327  1.4071 -0.9268
 2647TIP3    H229357   3.439   2.627   0.741 -0.2707  1.3701 -1.4552
 2648TIP3   OH229358   4.152   2.282   5.345 -0.4615 -0.0355  0.3424
 2648TIP3    H129359   4.132   2.190   5.365 -0.0353 -0.0980  0.4945
 2648TIP3    H229360   4.096   2.303   5.270  0.5862 -0.9033 -0.7217
 2649TIP3   OH229361   5.146   3.817   3.757 -0.4735 -0.2821  0.0113
 2649TIP3    H129362   5.172   3.822   3.665  1.3070 -0.8401  0.4428
 2649TIP3    H229363   5.057   3.853   3.759 -1.2528 -1.8569 -2.1913
 2650TIP3   OH229364   0.797   4.674   4.905 -0.6801 -0.1874 -0.0467
 2650TIP3    H129365   0.861   4.699   4.839  1.0553 -3.2787  0.2392
 2650TIP3    H229366   0.830   4.713   4.986  0.4404 -1.0495 -0.0604
 2651TIP3   OH229367   4.621   0.409  11.418  0.6937  0.3425 -0.0365
 2651TIP3    H129368   4.589   0.331  11.465  0.7874  0.4336  0.1823
 2651TIP3    H229369   4.643   0.377  11.331 -2.5344  0.7813 -1.1336
 2652TIP3   OH229370   2.353   0.625  16.622  0.0569  0.2886 -0.0680
 2652TIP3    H129371   2.343   0.679  16.701  0.8359 -0.8571  0.8393
 2652TIP3    H229372   2.398   0.682  16.560  0.5850  0.8020  0.7589
 2653TIP3   OH229373   4.607   1.335   0.439  0.0249 -0.3982  0.3600
 2653TIP3    H129374   4.565   1.417   0.415 -1.4797 -1.7007 -1.9328
 2653TIP3    H229375   4.535   1.280   0.471  0.0393 -2.2023 -2.2916
 2654TIP3   OH229376   1.266   1.836   3.849  0.2014  0.1497 -0.5262
 2654TIP3    H129377   1.270   1.743   3.826 -1.4084 -0.8770  2.6488
 2654TIP3    H229378   1.352   1.855   3.887  0.0840 -0.5018  0.0965
 2655TIP3   OH229379   0.082   3.084  13.984 -0.2661 -0.5390  0.2495
 2655TIP3    H129380   0.093   3.066  13.890  0.9068 -2.9897  0.7717
 2655TIP3    H229381  -0.011   3.101  13.995 -0.3837  0.0646 -1.3781
 2656TIP3   OH229382   4.311   1.354  15.367 -0.6021  0.1987  0.0492
 2656TIP3    H129383   4.252   1.378  15.295 -1.3093  0.9720  0.8642
 2656TIP3    H229384   4.382   1.418  15.362 -0.3702 -0.0797 -0.2817
 2657TIP3   OH229385   4.538   5.126   1.633  0.0824  0.0494 -0.4765
 2657TIP3    H129386   4.566   5.066   1.701 -0.9105 -0.7732 -0.7741
 2657TIP3    H229387   4.480   5.188   1.677 -0.1381 -0.1601 -0.4728
 2658TIP3   OH229388   3.919   0.222  10.883 -0.1845 -0.5566 -0.8813
 2658TIP3    H129389   4.003   0.260  10.908 -0.4974 -0.3373 -0.1414
 2658TIP3    H229390   3.940   0.163  10.810  0.5214 -0.0874 -1.0632
 2659TIP3   OH229391   4.020   0.610   0.637 -0.5282 -0.5663 -0.0256
 2659TIP3    H129392   4.010   0.700   0.668  0.3057 -0.9980  1.5951
 2659TIP3    H229393   4.019   0.617   0.542 -0.5401  1.1446  0.0737
 2660TIP3   OH229394   3.215   5.135  13.042  1.3674 -0.0383  0.2077
 2660TIP3    H129395   3.216   5.155  12.948  0.6419  0.4035  0.2900
 2660TIP3    H229396   3.127   5.104  13.060  0.6499  2.3566  1.2294
 2661TIP3   OH229397   0.955   1.564  12.511 -0.9062  0.0989 -0.2772
 2661TIP3    H129398   0.895   1.608  12.450 -0.4002 -0.3655 -1.1274
 2661TIP3    H229399   0.901   1.543  12.587 -1.3793  1.3420 -0.2461
 2662TIP3   OH229400   2.975   3.444   4.798 -0.0372  0.5282  0.4473
 2662TIP3    H129401   3.042   3.377   4.807 -1.8519 -2.0083 -2.9926
 2662TIP3    H229402   2.899   3.409   4.845 -0.5101  0.9493  0.0105
 2663TIP3   OH229403   5.062   6.530   0.062 -0.1647  0.2627  0.6672
 2663TIP3    H129404   5.025   6.501  -0.021 -0.6404  0.5647  0.7629
 2663TIP3    H229405   5.149   6.562   0.041  0.0414 -0.4458  0.4273
 2664TIP3   OH229406   6.200   5.765   2.564 -0.3439  0.2347 -0.1124
 2664TIP3    H129407   6.231   5.689   2.614 -2.3435  0.8588  2.2662
 2664TIP3    H229408   6.172   5.728   2.481 -0.3694 -1.4975  0.6112
 2665TIP3   OH229409   2.134   5.619  14.145  0.5095  0.5408  0.0827
 2665TIP3    H129410   2.184   5.550  14.102 -0.9361  1.3689 -3.2517
 2665TIP3    H229411   2.197   5.691  14.155  0.4322  1.1953 -3.0899
 2666TIP3   OH229412   2.449   3.245   3.899  0.4167 -0.2703 -0.2399
 2666TIP3    H129413   2.477   3.153   3.896 -0.1254 -0.4128 -1.5761
 2666TIP3    H229414   2.519   3.291   3.852 -0.0589 -0.2184 -0.9081
 2667TIP3   OH229415   5.241   0.803  14.215 -0.4650  0.3294  0.2486
 2667TIP3    H129416   5.277   0.715  14.203  1.1469  1.0034 -0.1016
 2667TIP3    H229417   5.306   0.849  14.267 -1.1354  1.4282  0.1555
 2668TIP3   OH229418   2.765   5.046  11.123 -0.2650  0.3123  0.6246
 2668TIP3    H129419   2.795   4.960  11.093 -0.2439  0.7594 -0.7003
 2668TIP3    H229420   2.808   5.058  11.208  0.8097 -0.4164  0.2100
 2669TIP3   OH229421   2.108   5.667   3.973  0.2063 -0.5640  0.0534
 2669TIP3    H129422   2.121   5.653   3.879  0.5184 -1.8295  0.2551
 2669TIP3    H229423   2.025   5.713   3.979  0.8368  0.7606 -0.9045
 2670TIP3   OH229424   1.707   0.224  15.696  0.0489 -0.1087 -0.2478
 2670TIP3    H129425   1.763   0.184  15.629 -0.4134 -2.0355  0.4493
 2670TIP3    H229426   1.670   0.149  15.743  1.4238  1.1386  3.0815
 2671TIP3   OH229427   2.928   6.048   4.909 -0.0578 -0.5546  0.0402
 2671TIP3    H129428   2.869   5.983   4.871 -0.2640 -0.2065 -0.2441
 2671TIP3    H229429   2.875   6.128   4.913  0.4748 -0.1716 -0.4533
 2672TIP3   OH229430   3.003   4.084  13.486 -0.3777 -0.0306  0.0080
 2672TIP3    H129431   2.919   4.045  13.461 -1.0555 -0.3063  2.3929
 2672TIP3    H229432   3.027   4.038  13.567  1.4335  0.9392  0.0710
 2673TIP3   OH229433   1.847   1.844  15.824  0.1867  0.4403  0.1766
 2673TIP3    H129434   1.853   1.770  15.764  0.9654  1.2073 -0.7419
 2673TIP3    H229435   1.761   1.836  15.865 -0.5821  0.1480 -1.4116
 2674TIP3   OH229436   2.912   0.452   6.046  0.6431 -0.0826 -0.3037
 2674TIP3    H129437   2.935   0.395   6.119  0.7370  1.1239  0.6486
 2674TIP3    H229438   2.968   0.529   6.056  1.9778 -0.6462 -2.7235
 2675TIP3   OH229439   4.955   0.303   2.928  0.1319  0.2773 -0.6469
 2675TIP3    H129440   5.007   0.380   2.951 -1.3089  1.3609 -0.8865
 2675TIP3    H229441   4.891   0.335   2.865  0.3056 -1.4099 -1.7528
 2676TIP3   OH229442   2.378   6.268  16.413  0.3421 -0.2008 -0.0337
 2676TIP3    H129443   2.343   6.180  16.405  1.6021 -0.5990 -1.6958
 2676TIP3    H229444   2.385   6.282  16.507  0.0765 -1.8502  0.2641
 2677TIP3   OH229445   5.488   6.666  11.581 -0.0585  0.4187 -0.7832
 2677TIP3    H129446   5.485   6.610  11.503  0.6900 -0.6350 -0.0836
 2677TIP3    H229447   5.415   6.634  11.635  0.1288  0.3829 -0.5523
 2678TIP3   OH229448   1.932   4.678  14.879  0.1130  0.1154  0.4013
 2678TIP3    H129449   1.991   4.604  14.892  0.5009  0.4974  0.8682
 2678TIP3    H229450   1.872   4.649  14.810  1.9498  0.4049 -1.4001
 2679TIP3   OH229451   6.643   4.973  11.833 -0.1609  0.9579 -0.5221
 2679TIP3    H129452   6.599   4.930  11.760  1.7420  1.9927 -2.3841
 2679TIP3    H229453   6.655   5.063  11.804 -1.7982  2.2033  2.2482
 2680TIP3   OH229454   1.183   3.319  15.907  0.4501  0.5298  0.4073
 2680TIP3    H129455   1.248   3.300  15.975  1.1391 -1.1608 -0.6454
 2680TIP3    H229456   1.109   3.357  15.954  0.7225 -1.0107  2.1908
 2681TIP3   OH229457   1.480   1.131   3.393 -1.1789  0.5139 -0.4725
 2681TIP3    H129458   1.413   1.180   3.441 -0.2552  0.5477  0.8210
 2681TIP3    H229459   1.448   1.041   3.394 -1.1266  0.4922  0.3300
 2682TIP3   OH229460   0.581   2.557   2.804 -0.2127 -0.2116  0.1479
 2682TIP3    H129461   0.659   2.561   2.748  1.4413  0.9193  2.3795
 2682TIP3    H229462   0.536   2.640   2.787 -0.4729 -0.4788 -0.4978
 2683TIP3   OH229463   2.224   0.502  14.352 -0.6917  0.1090 -0.3596
 2683TIP3    H129464   2.133   0.477  14.367 -0.8876  1.4684  1.0328
 2683TIP3    H229465   2.222   0.597  14.345  0.7278  0.2721  0.8149
 2684TIP3   OH229466   4.368   0.543  16.686  0.1240  0.8677  0.4081
 2684TIP3    H129467   4.298   0.534  16.620  0.6630  0.9168 -0.1840
 2684TIP3    H229468   4.322   0.568  16.766 -0.7646 -1.1530  0.5858
 2685TIP3   OH229469   3.953   1.875   4.586 -0.3115  0.2670  0.2205
 2685TIP3    H129470   3.858   1.865   4.576 -0.1409 -0.0289 -1.3534
 2685TIP3    H229471   3.988   1.865   4.497  1.2239  0.0770  0.8129
 2686TIP3   OH229472   5.436   1.223   6.021  0.0850  0.5307 -1.1020
 2686TIP3    H129473   5.343   1.200   6.025  0.2215  0.0822  0.7992
 2686TIP3    H229474   5.442   1.306   6.068  0.7456  0.1233 -0.4459
 2687TIP3   OH229475   4.254   5.867   5.564  0.5326  0.0324  0.2505
 2687TIP3    H129476   4.164   5.848   5.541  0.3620 -0.2141  1.0747
 2687TIP3    H229477   4.304   5.854   5.484 -0.1382 -0.0025 -0.1604
 2688TIP3   OH229478   0.299   6.636  10.115 -0.0671  0.1277  0.0182
 2688TIP3    H129479   0.296   6.621  10.021  0.0992 -0.2666  0.0731
 2688TIP3    H229480   0.355   6.566  10.149  0.7064  0.8741  0.2941
 2689TIP3   OH229481   4.996   0.110  11.283 -0.4995  0.2435  0.1123
 2689TIP3    H129482   5.014   0.162  11.205 -1.4737  0.0913 -0.2272
 2689TIP3    H229483   5.077   0.063  11.301  0.1340  1.2464 -0.0635
 2690TIP3   OH229484   4.012   2.180  10.788  0.5512  0.0621  0.3535
 2690TIP3    H129485   4.032   2.231  10.866 -0.1274  1.1943 -0.1904
 2690TIP3    H229486   4.038   2.237  10.715 -1.1898  0.0878 -0.2912
 2691TIP3   OH229487   3.507   3.850   2.336  0.3529 -0.5114  0.3714
 2691TIP3    H129488   3.499   3.838   2.431 -2.6931  2.3948  0.6614
 2691TIP3    H229489   3.537   3.941   2.326  3.8212 -1.6932 -1.5586
 2692TIP3   OH229490   4.824   3.908   4.216 -0.0630 -0.1659 -0.0359
 2692TIP3    H129491   4.894   3.891   4.279  0.4802 -0.8015 -0.7866
 2692TIP3    H229492   4.858   3.978   4.160 -0.0084 -0.4987 -0.4239
 2693TIP3   OH229493   5.580   0.920   5.347  0.7630  0.2533 -0.0357
 2693TIP3    H129494   5.519   0.967   5.404  0.1318 -1.5617  0.8590
 2693TIP3    H229495   5.631   0.865   5.406 -0.1180 -1.9341 -1.1856
 2694TIP3   OH229496   4.346   4.638  12.359 -0.4560 -0.2411 -0.6067
 2694TIP3    H129497   4.401   4.568  12.323  1.2684  1.1045 -0.7277
 2694TIP3    H229498   4.359   4.632  12.454 -2.9073 -2.0913 -0.2830
 2695TIP3   OH229499   5.322   0.656  12.993 -0.2318 -0.2555 -0.4951
 2695TIP3    H129500   5.385   0.641  12.923  0.5374  0.7484 -0.0468
 2695TIP3    H229501   5.373   0.695  13.064 -1.6098  2.1710 -0.7316
 2696TIP3   OH229502   0.846   4.388  15.774 -0.1354  0.2355  0.3529
 2696TIP3    H129503   0.895   4.453  15.825  0.0559  0.4811 -0.1357
 2696TIP3    H229504   0.762   4.430  15.755  0.6225  1.0453 -1.4233
 2697TIP3   OH229505   1.514   5.906  12.004  0.0610 -0.0353 -0.1138
 2697TIP3    H129506   1.430   5.868  11.979 -0.5265  1.1456 -0.0092
 2697TIP3    H229507   1.507   5.920  12.098  0.8614 -1.0663  0.1192
 2698TIP3   OH229508   1.059   2.352  13.220  1.0284 -0.3557  0.8990
 2698TIP3    H129509   0.986   2.413  13.233 -0.4087 -2.1801  1.8064
 2698TIP3    H229510   1.056   2.330  13.127  1.0318  0.2855  0.7411
 2699TIP3   OH229511   0.831   5.606   6.254  0.1156 -0.7300 -0.5581
 2699TIP3    H129512   0.787   5.689   6.240 -0.5426 -1.3434 -2.5137
 2699TIP3    H229513   0.767   5.552   6.300 -0.0287 -0.6328 -0.6455
 2700TIP3   OH229514   0.056   2.598   5.765  0.2413 -0.1906  0.5303
 2700TIP3    H129515   0.058   2.635   5.854  1.6108 -0.0718  0.4718
 2700TIP3    H229516  -0.036   2.575   5.751 -0.1706  0.6736  1.6130
 2701TIP3   OH229517   5.528   1.780   3.218 -0.0496  0.6453 -0.3951
 2701TIP3    H129518   5.436   1.795   3.240  0.9416  3.8418  2.2418
 2701TIP3    H229519   5.559   1.718   3.284  0.3714  2.0441  0.7753
 2702TIP3   OH229520   1.930   6.217  14.944  0.2726 -0.7643 -0.6741
 2702TIP3    H129521   1.906   6.300  14.902  2.5708 -0.0986 -0.7760
 2702TIP3    H229522   1.963   6.242  15.030 -1.1768 -1.8335  0.2515
 2703TIP3   OH229523   3.895   2.418   3.556 -0.5546 -0.2173  0.0475
 2703TIP3    H129524   3.859   2.502   3.583 -1.1325 -0.6410  0.6228
 2703TIP3    H229525   3.820   2.359   3.555 -0.5570 -0.2681 -2.3877
 2704TIP3   OH229526   2.254   1.813   5.604  0.1426  0.3768 -0.3616
 2704TIP3    H129527   2.266   1.904   5.575 -0.9392  0.1623 -1.5924
 2704TIP3    H229528   2.193   1.819   5.677  1.1100  0.7336  0.4392
 2705TIP3   OH229529   1.659   0.105   0.703  0.4833 -0.0642  0.2014
 2705TIP3    H129530   1.621   0.071   0.784  0.6905  0.1898  0.4068
 2705TIP3    H229531   1.663   0.030   0.644 -1.4368  0.1367 -0.2420
 2706TIP3   OH229532   2.671   5.798   5.862 -0.3192  0.0730 -0.7160
 2706TIP3    H129533   2.724   5.822   5.938 -0.1896  1.3741 -1.2014
 2706TIP3    H229534   2.627   5.717   5.889  0.9421 -0.3643  0.1468
 2707TIP3   OH229535   4.210   3.637  15.228 -0.2468  0.5077 -0.1122
 2707TIP3    H129536   4.151   3.705  15.262  1.4323  1.7706  0.4213
 2707TIP3    H229537   4.232   3.584  15.304 -1.5537 -0.7018 -0.5290
 2708TIP3   OH229538   0.653   4.874   4.365  0.1323  0.7840 -0.5491
 2708TIP3    H129539   0.711   4.827   4.426 -0.1950  0.7082 -0.2895
 2708TIP3    H229540   0.667   4.966   4.386  1.2892  0.8477 -1.5296
 2709TIP3   OH229541   6.707   4.938  14.533  0.4598 -0.1253  0.2114
 2709TIP3    H129542   6.752   4.887  14.465 -0.2608 -2.1446  1.1623
 2709TIP3    H229543   6.628   4.888  14.551 -0.7682  1.8706  0.5889
 2710TIP3   OH229544   5.411   2.035  13.219 -0.0814 -0.2263  0.3072
 2710TIP3    H129545   5.449   2.036  13.131  0.2576  1.2726  0.4423
 2710TIP3    H229546   5.444   1.954  13.258 -0.7062 -1.2000 -1.1274
 2711TIP3   OH229547   6.107   6.638  16.351 -0.1314 -0.1733  0.3853
 2711TIP3    H129548   6.125   6.652  16.444 -1.7649 -2.0507  1.0304
 2711TIP3    H229549   6.123   6.724  16.311 -1.0145  1.1327  2.6467
 2712TIP3   OH229550   1.170   4.412   5.239 -0.0941 -0.6525 -0.7244
 2712TIP3    H129551   1.220   4.435   5.161  0.6702  0.9185  0.1803
 2712TIP3    H229552   1.224   4.441   5.312 -0.1115 -3.4413  0.5011
 2713TIP3   OH229553   6.672   0.659  12.617  0.2045 -0.3134  0.5315
 2713TIP3    H129554   6.609   0.593  12.589  0.6283 -0.6707  0.4105
 2713TIP3    H229555   6.618   0.731  12.650 -0.2899 -0.1425 -0.6216
 2714TIP3   OH229556   1.638   2.862   4.637  0.2859  0.5657  0.2122
 2714TIP3    H129557   1.615   2.888   4.548  1.3025 -0.3569 -0.3555
 2714TIP3    H229558   1.562   2.813   4.668 -0.3421  1.4591  0.1081
 2715TIP3   OH229559   0.666   1.370  14.132 -1.0490  0.6426  0.6167
 2715TIP3    H129560   0.716   1.324  14.199  1.4380  0.8980 -0.9257
 2715TIP3    H229561   0.600   1.307  14.103  0.9952 -1.3298 -0.0589
 2716TIP3   OH229562   5.207   4.887  12.057  0.0980 -0.1624 -0.1456
 2716TIP3    H129563   5.237   4.954  11.995  1.0788 -0.8986 -0.4954
 2716TIP3    H229564   5.166   4.820  12.003  0.2320 -0.4288  0.0806
 2717TIP3   OH229565   0.372   6.290  15.159 -0.2959 -1.0254  1.0242
 2717TIP3    H129566   0.304   6.341  15.204  0.7417 -0.8131  2.4290
 2717TIP3    H229567   0.372   6.323  15.070 -0.1649  0.9139  1.7040
 2718TIP3   OH229568   1.911   0.044  11.266  0.3701 -0.1427  0.6072
 2718TIP3    H129569   1.888   0.010  11.352  3.3005  2.8260  2.8415
 2718TIP3    H229570   1.857   0.122  11.256 -0.8420 -1.1334 -0.8921
 2719TIP3   OH229571   3.304   1.867  15.061  0.0080  0.2390 -0.2882
 2719TIP3    H129572   3.250   1.859  15.139 -1.8367  0.6586 -1.4579
 2719TIP3    H229573   3.374   1.803  15.074 -0.8799 -0.4838  1.2081
 2720TIP3   OH229574   4.035   2.343  14.739 -0.5348  0.1350 -0.2293
 2720TIP3    H129575   4.070   2.264  14.698  0.1093  0.7835 -0.9636
 2720TIP3    H229576   4.044   2.327  14.833  1.3924  0.1196 -0.3926
 2721TIP3   OH229577   3.713   3.628  12.320 -0.4192  0.5181 -0.0212
 2721TIP3    H129578   3.801   3.663  12.310 -0.8538  1.3899 -0.9819
 2721TIP3    H229579   3.677   3.626  12.231 -1.7413  1.1944  0.4624
 2722TIP3   OH229580   3.609   1.513  10.452  0.1612  0.3274  0.2493
 2722TIP3    H129581   3.659   1.539  10.374  0.8086  1.3420  0.9839
 2722TIP3    H229582   3.603   1.418  10.445 -3.9759  0.5264 -3.5622
 2723TIP3   OH229583   4.031   0.979   1.522 -0.9984 -0.0230 -0.5503
 2723TIP3    H129584   4.027   0.952   1.431 -3.0206  0.3984 -0.6365
 2723TIP3    H229585   3.984   0.910   1.569  0.1835 -0.3324  0.2278
 2724TIP3   OH229586   2.311   5.879   3.600  0.0236  0.0034 -0.4140
 2724TIP3    H129587   2.309   5.922   3.514 -0.1636 -0.7178 -0.7769
 2724TIP3    H229588   2.319   5.786   3.580 -0.3136 -0.1957  0.3469
 2725TIP3   OH229589   0.768   3.561   5.071  0.0563 -0.7641  0.0648
 2725TIP3    H129590   0.765   3.602   4.984  0.4863 -1.6193 -0.3615
 2725TIP3    H229591   0.704   3.490   5.066 -0.6397 -0.1996  0.7786
 2726TIP3   OH229592   3.175   3.808  14.577  0.8022  0.3663  0.1226
 2726TIP3    H129593   3.132   3.758  14.508  2.1466  1.1397 -1.3165
 2726TIP3    H229594   3.162   3.900  14.552  3.0518  0.6239 -0.2325
 2727TIP3   OH229595   4.954   2.942   1.055  1.0279  0.4359 -0.5669
 2727TIP3    H129596   4.859   2.942   1.060  1.0762  0.9667  1.0286
 2727TIP3    H229597   4.980   3.032   1.078  1.9090  0.2805 -0.8966
 2728TIP3   OH229598   3.909   6.593   1.812  0.0052  0.3085  0.2306
 2728TIP3    H129599   4.004   6.604   1.820 -0.1801  1.8798  0.5403
 2728TIP3    H229600   3.890   6.619   1.722  0.2298 -3.2359 -0.9983
 2729TIP3   OH229601   6.023   4.207   3.537  0.1303 -0.6834 -0.0072
 2729TIP3    H129602   6.114   4.228   3.558  0.6964 -3.5768  0.9220
 2729TIP3    H229603   5.990   4.285   3.492  3.2250  0.2325 -0.9226
 2730TIP3   OH229604   4.552   3.999   4.229  0.7806  0.5681 -0.8303
 2730TIP3    H129605   4.644   3.975   4.239  0.5815  0.5778  1.5145
 2730TIP3    H229606   4.504   3.919   4.249  0.2452  1.1595  0.3049
 2731TIP3   OH229607   1.995   4.225   3.353  0.3884  0.2237 -0.7841
 2731TIP3    H129608   1.995   4.164   3.427  3.2342  0.3971 -0.5330
 2731TIP3    H229609   2.044   4.301   3.385 -2.0546  2.2068 -1.4954
 2732TIP3   OH229610   0.727   1.363   5.963  0.0544  0.1423  0.5045
 2732TIP3    H129611   0.759   1.319   6.042 -0.4201  0.8163  1.0926
 2732TIP3    H229612   0.805   1.400   5.923  0.1823  0.7363  1.2649
 2733TIP3   OH229613   5.866   6.077   1.673  0.0263  0.3948 -0.0984
 2733TIP3    H129614   5.943   6.068   1.729  0.1043 -0.2154 -0.2967
 2733TIP3    H229615   5.867   5.999   1.618  0.4524  1.4128 -1.5965
 2734TIP3   OH229616   0.441   1.044   2.506  0.5059 -0.2414  0.1617
 2734TIP3    H129617   0.480   1.040   2.593 -0.9432  2.2660  1.0337
 2734TIP3    H229618   0.480   1.122   2.465 -0.6567  0.0584 -0.4333
 2735TIP3   OH229619   4.086   1.872   4.818 -0.2827 -0.0668  0.4169
 2735TIP3    H129620   4.145   1.797   4.817 -1.3054 -0.9173  1.2557
 2735TIP3    H229621   4.046   1.871   4.732  3.0874  2.3965 -1.4168
 2736TIP3   OH229622   4.937   3.668  13.930  0.2510  0.5449 -0.3909
 2736TIP3    H129623   4.921   3.763  13.923  1.8265  0.8162 -0.5978
 2736TIP3    H229624   4.853   3.632  13.960 -0.4435  1.9733 -0.5325
 2737TIP3   OH229625   1.045   0.147  15.589 -0.0917  1.1787 -0.1441
 2737TIP3    H129626   1.098   0.222  15.560  1.8744  0.0979  0.4853
 2737TIP3    H229627   1.099   0.103  15.654 -2.4268  0.8339  1.6834
 2738TIP3   OH229628   4.237   6.127   3.697 -0.1936 -0.4168 -0.3620
 2738TIP3    H129629   4.161   6.145   3.752 -0.0860  0.8695 -0.5971
 2738TIP3    H229630   4.301   6.089   3.757 -0.8540 -1.0837 -0.0693
 2739TIP3   OH229631   2.398   5.864  13.412 -0.0245  0.1850 -0.0836
 2739TIP3    H129632   2.409   5.956  13.390 -1.2789  0.5910  0.8501
 2739TIP3    H229633   2.479   5.839  13.456  0.6026  0.6233 -0.9541
 2740TIP3   OH229634   2.355   5.593   3.621  0.1584 -0.1366  0.2421
 2740TIP3    H129635   2.371   5.564   3.532  1.1390  1.6374 -0.2069
 2740TIP3    H229636   2.400   5.530   3.676  1.0585 -0.2532 -0.6095
 2741TIP3   OH229637   6.442   5.716  16.503  0.1770  0.8103  0.2138
 2741TIP3    H129638   6.462   5.727  16.410 -2.4438  1.4823 -0.3212
 2741TIP3    H229639   6.473   5.627  16.523  1.7270  1.0281 -0.9791
 2742TIP3   OH229640   5.921   6.453  13.149  0.1755 -0.3432 -0.3501
 2742TIP3    H129641   5.986   6.408  13.203  0.1385 -1.1841 -0.9803
 2742TIP3    H229642   5.961   6.537  13.128  1.9014 -1.5322 -2.2549
 2743TIP3   OH229643   6.087   0.310   5.159  0.2513 -0.0315  0.4085
 2743TIP3    H129644   6.024   0.245   5.130  1.4191 -1.0368  0.0270
 2743TIP3    H229645   6.073   0.318   5.254  1.0679 -1.9990  0.7524
 2744TIP3   OH229646   1.355   1.339   4.479  0.3435  0.2107  0.1822
 2744TIP3    H129647   1.354   1.409   4.544  0.7642 -0.3963  0.8673
 2744TIP3    H229648   1.337   1.382   4.396  1.2629  1.2363  0.4937
 2745TIP3   OH229649   1.852   0.484  16.380 -0.1907  0.2381  0.7119
 2745TIP3    H129650   1.831   0.393  16.404 -2.3264  0.7633  1.0625
 2745TIP3    H229651   1.773   0.515  16.335  1.3864  1.2263 -1.5411
 2746TIP3   OH229652   6.293   2.268   1.611  0.3873  0.4610  0.1013
 2746TIP3    H129653   6.334   2.344   1.654 -0.4799  1.7043 -1.1779
 2746TIP3    H229654   6.341   2.259   1.528 -0.4911  0.5578 -0.4221
 2747TIP3   OH229655   4.180   0.418   2.100  0.8130 -0.4849  0.0354
 2747TIP3    H129656   4.138   0.497   2.066 -0.1663 -0.8589  0.3461
 2747TIP3    H229657   4.119   0.348   2.081  1.6692 -1.1755 -0.2202
 2748TIP3   OH229658   1.389   3.129   0.056 -0.6949 -0.1769  0.2105
 2748TIP3    H129659   1.462   3.101   0.111 -0.6363 -2.5651 -0.9454
 2748TIP3    H229660   1.312   3.120   0.111 -0.3165  0.8058  0.9340
 2749TIP3   OH229661   1.812   2.607   4.377 -0.1865 -0.2399  0.1875
 2749TIP3    H129662   1.868   2.671   4.422 -0.7843  0.7347 -0.3947
 2749TIP3    H229663   1.729   2.654   4.364 -1.7490 -2.1399  2.4183
 2750TIP3   OH229664   4.001   2.563   1.492 -0.2761  0.1660  0.8029
 2750TIP3    H129665   3.998   2.616   1.412  1.6672  1.0693  1.2775
 2750TIP3    H229666   4.014   2.627   1.562 -1.7799 -0.6226  1.8706
 2751TIP3   OH229667   5.229   5.682   4.728  0.2405 -0.1421  0.0161
 2751TIP3    H129668   5.322   5.693   4.745  0.0165 -1.2003  2.3701
 2751TIP3    H229669   5.191   5.770   4.741  0.7876  0.0928  0.0312
 2752TIP3   OH229670   4.219   0.839   2.511  0.5051  0.9557  0.1970
 2752TIP3    H129671   4.295   0.782   2.519 -0.5686 -0.6419 -0.5237
 2752TIP3    H229672   4.255   0.924   2.485  2.0874  0.4562  0.6760
 2753TIP3   OH229673   1.503   3.489   5.609  0.4078  0.6157 -0.6215
 2753TIP3    H129674   1.564   3.414   5.608 -0.3413 -0.0022 -0.5032
 2753TIP3    H229675   1.473   3.496   5.518  1.0954  1.2936 -0.8039
 2754TIP3   OH229676   6.754   0.488   1.712 -0.3025 -0.0218  0.4769
 2754TIP3    H129677   6.684   0.426   1.731  0.3931  0.1869  4.5771
 2754TIP3    H229678   6.726   0.570   1.753  0.5866  1.3250 -1.4008
 2755TIP3   OH229679   0.730   0.729   0.540 -0.0076 -0.0895 -0.0864
 2755TIP3    H129680   0.818   0.732   0.503  0.2164  0.0104  0.4445
 2755TIP3    H229681   0.725   0.644   0.583 -0.5728 -0.5723 -1.0791
 2756TIP3   OH229682   0.564   1.684  16.802  0.2713 -0.0689 -0.3461
 2756TIP3    H129683   0.483   1.652  16.842  0.9143 -0.1654  0.9380
 2756TIP3    H229684   0.581   1.767  16.846 -0.2664  1.0672 -2.1636
 2757TIP3   OH229685   5.496   4.417   6.005 -0.4162 -0.7945 -0.2772
 2757TIP3    H129686   5.474   4.381   6.092  1.9119  2.3032  1.8261
 2757TIP3    H229687   5.493   4.512   6.018  2.8396 -0.2075 -2.7717
 2758TIP3   OH229688   2.856   1.849   2.477  0.6313  0.2596 -0.8159
 2758TIP3    H129689   2.896   1.812   2.555 -0.8860 -0.3589 -0.2901
 2758TIP3    H229690   2.872   1.784   2.409  0.1244 -0.2100 -0.4951
 2759TIP3   OH229691   1.539   5.718   3.956  0.4404  0.2176  1.1107
 2759TIP3    H129692   1.599   5.645   3.965 -0.7802 -1.0769 -0.6765
 2759TIP3    H229693   1.525   5.728   3.862 -1.1171  1.3190  1.4033
 2760TIP3   OH229694   6.328   5.846   0.817  0.1410 -0.6138  0.4892
 2760TIP3    H129695   6.247   5.839   0.766  1.0942 -2.1232 -0.9102
 2760TIP3    H229696   6.310   5.916   0.880 -1.7193  0.1080 -0.7421
 2761TIP3   OH229697   4.285   5.689   0.657  0.2306  0.6696 -0.4182
 2761TIP3    H129698   4.193   5.671   0.672 -0.4429  1.7376 -2.7048
 2761TIP3    H229699   4.315   5.619   0.599  0.7290  0.5806 -0.0630
 2762TIP3   OH229700   6.370   0.342  11.358  0.0146 -0.2467  0.2001
 2762TIP3    H129701   6.386   0.435  11.348 -0.1515 -0.1294  0.9913
 2762TIP3    H229702   6.429   0.301  11.294  1.4222  0.3087  1.0936
 2763TIP3   OH229703   6.626   6.024   0.035 -0.1191 -0.3793  0.0218
 2763TIP3    H129704   6.707   6.069   0.059 -0.8523  0.3821  1.1989
 2763TIP3    H229705   6.645   5.932   0.048  0.7404 -0.2498 -0.2783
 2764TIP3   OH229706   4.790   3.821   4.837 -0.3020  0.3815 -0.3867
 2764TIP3    H129707   4.778   3.852   4.927  0.4373  0.5127 -0.3293
 2764TIP3    H229708   4.879   3.786   4.835 -0.9717 -1.4570 -0.5333
 2765TIP3   OH229709   4.081   5.914   0.057  0.0281 -0.2874 -0.8261
 2765TIP3    H129710   4.064   6.008   0.058 -0.9636 -0.4258 -2.0512
 2765TIP3    H229711   4.171   5.905   0.089 -0.0381  1.0254 -0.2257
 2766TIP3   OH229712   3.639   1.185   5.133 -0.2503 -0.0165 -0.4971
 2766TIP3    H129713   3.632   1.105   5.184 -0.5716  0.7025  0.6141
 2766TIP3    H229714   3.562   1.236   5.157  0.2088  0.8480 -0.8007
 2767TIP3   OH229715   0.010   0.131   1.620 -0.3841 -0.4386  0.5897
 2767TIP3    H129716  -0.054   0.135   1.549 -0.5871 -1.5611  0.6872
 2767TIP3    H229717  -0.041   0.148   1.699 -0.8873 -2.6790  0.8182
 2768TIP3   OH229718   4.866   0.968   2.964 -0.6556 -0.5292  0.1862
 2768TIP3    H129719   4.893   0.881   2.935  0.7083  0.7422 -2.8825
 2768TIP3    H229720   4.829   1.009   2.885  1.1898  2.5114  0.7328
 2769TIP3   OH229721   5.492   4.522   3.997  0.4163  0.3275 -0.4787
 2769TIP3    H129722   5.555   4.507   4.068  0.4400  0.4963 -0.4639
 2769TIP3    H229723   5.514   4.609   3.963  0.0718  0.4693 -0.3491
 2770TIP3   OH229724   0.032   2.587  12.560 -0.1142 -0.0569  0.3847
 2770TIP3    H129725   0.050   2.496  12.535  0.4962 -0.1670  1.2018
 2770TIP3    H229726  -0.063   2.590  12.572 -0.0570 -0.7738  1.0867
 2771TIP3   OH229727   6.180   3.967   5.663  0.3442  0.0526 -0.2170
 2771TIP3    H129728   6.169   3.975   5.568 -0.7641 -0.9594 -0.1986
 2771TIP3    H229729   6.106   4.014   5.700  0.3226 -0.2449  0.1258
 2772TIP3   OH229730   2.935   6.112  12.913  0.0759 -0.8384  0.3276
 2772TIP3    H129731   3.016   6.062  12.917 -0.7998 -2.3592 -0.3272
 2772TIP3    H229732   2.893   6.097  12.998 -0.6647 -2.0764 -0.2423
 2773TIP3   OH229733   2.848   3.124  15.500  0.0235 -0.2751  0.6933
 2773TIP3    H129734   2.780   3.168  15.450  0.5518  0.0465  0.2458
 2773TIP3    H229735   2.928   3.174  15.481  0.4580 -0.8859  0.8926
 2774TIP3   OH229736   3.571   6.483   0.729 -1.2521 -0.2191  0.4422
 2774TIP3    H129737   3.501   6.547   0.742 -0.8775  0.1505  0.6964
 2774TIP3    H229738   3.652   6.534   0.740 -0.9410 -0.5581 -0.2296
 2775TIP3   OH229739   2.507   6.612  11.373  0.1560 -0.3948  0.0314
 2775TIP3    H129740   2.421   6.574  11.392 -0.1834  0.8914  1.2333
 2775TIP3    H229741   2.486   6.698  11.337  0.9049  1.0067  2.6920
 2776TIP3   OH229742   4.989   2.796  12.648 -0.0852 -0.4059  0.0650
 2776TIP3    H129743   5.047   2.757  12.713  0.4438 -0.0882 -0.2083
 2776TIP3    H229744   5.000   2.891  12.660 -0.3654 -0.3442 -0.1502
 2777TIP3   OH229745   3.546   5.172   5.761  0.3716  0.7214  0.1370
 2777TIP3    H129746   3.492   5.161   5.682  0.4888  1.6253 -0.0826
 2777TIP3    H229747   3.482   5.177   5.832  0.3200 -1.4856  0.2936
 2778TIP3   OH229748   4.744   1.940   1.631  0.4167 -0.0861  0.4393
 2778TIP3    H129749   4.836   1.914   1.642  1.5858  2.0036 -2.7515
 2778TIP3    H229750   4.704   1.867   1.584  0.9358 -0.2839  0.3000
 2779TIP3   OH229751   2.812   6.454  11.661 -0.5656 -0.2761 -0.2041
 2779TIP3    H129752   2.740   6.431  11.720 -0.9183  2.6966  0.7175
 2779TIP3    H229753   2.803   6.549  11.650  1.7301 -0.2146 -2.1109
 2780TIP3   OH229754   6.492   6.334  16.659  0.2942  0.3221  0.4740
 2780TIP3    H129755   6.454   6.257  16.616 -0.6956 -0.0903  1.9951
 2780TIP3    H229756   6.540   6.298  16.733 -0.7822  1.1868  1.6258
 2781TIP3   OH229757   0.072   2.710   2.046  0.1167  0.3496 -0.0601
 2781TIP3    H129758  -0.004   2.694   2.103  0.7632  0.0251  0.7405
 2781TIP3    H229759   0.128   2.633   2.059 -0.5648 -0.6750 -2.5996
 2782TIP3   OH229760   2.538   5.328   4.857  0.2366  0.4050 -0.3358
 2782TIP3    H129761   2.623   5.287   4.844  0.5097  0.4793  1.0671
 2782TIP3    H229762   2.558   5.421   4.867 -0.0450  0.4637 -0.3215
 2783TIP3   OH229763   2.478   5.264  15.098 -0.6918  0.0718 -0.9234
 2783TIP3    H129764   2.474   5.358  15.077 -0.0234 -0.4677 -4.0760
 2783TIP3    H229765   2.571   5.246  15.108 -0.8892 -0.0875  1.0045
 2784TIP3   OH229766   3.274   1.028  14.440 -0.3174 -0.3708 -0.4485
 2784TIP3    H129767   3.180   1.034  14.424 -0.9954  1.2147  3.1975
 2784TIP3    H229768   3.284   0.949  14.493  0.4905 -0.6355 -0.9701
 2785TIP3   OH229769   4.656   4.846  15.316  0.7162  0.0898 -0.1495
 2785TIP3    H129770   4.722   4.830  15.383  0.5523 -0.3982 -0.1054
 2785TIP3    H229771   4.575   4.859  15.364  0.9212  1.5444 -0.1494
 2786TIP3   OH229772   1.849   4.356   4.023 -0.2689 -0.1405  0.3716
 2786TIP3    H129773   1.842   4.451   4.037 -0.5101  0.0193 -0.7785
 2786TIP3    H229774   1.846   4.319   4.111 -1.1402  0.8609  0.7836
 2787TIP3   OH229775   0.723   0.963   4.055  0.1613 -0.5001 -0.1866
 2787TIP3    H129776   0.730   1.054   4.083 -0.3015 -0.4374 -0.2667
 2787TIP3    H229777   0.644   0.931   4.099 -1.6963  0.1387 -2.8515
 2788TIP3   OH229778   0.031   4.627   3.371 -0.0782  0.5742  0.3524
 2788TIP3    H129779  -0.056   4.664   3.353  0.5947  1.7975 -0.4895
 2788TIP3    H229780   0.067   4.607   3.285 -0.0280 -1.2056  0.7444
 2789TIP3   OH229781   5.642   4.672   4.779  0.2564  0.1091 -0.3900
 2789TIP3    H129782   5.677   4.602   4.724  2.7743  2.9842 -2.7583
 2789TIP3    H229783   5.684   4.659   4.864 -0.3438 -1.9049 -0.3371
 2790TIP3   OH229784   4.952   1.881   2.169 -0.6212  0.5802  0.2321
 2790TIP3    H129785   4.881   1.945   2.161  0.8904  2.5128  1.3951
 2790TIP3    H229786   4.931   1.832   2.249  0.2907  2.5133  1.7379
 2791TIP3   OH229787   1.379   3.554  12.907  0.4539  0.4968  0.8110
 2791TIP3    H129788   1.347   3.489  12.844  0.6230 -1.9270  3.0262
 2791TIP3    H229789   1.371   3.637  12.861 -0.4685 -0.9700 -1.9726
 2792TIP3   OH229790   5.451   4.461  14.644 -0.1282 -0.0317 -0.1064
 2792TIP3    H129791   5.456   4.452  14.739  0.1715 -1.8341 -0.2514
 2792TIP3    H229792   5.541   4.480  14.616 -0.0379 -0.4391 -0.0986
 2793TIP3   OH229793   4.699   4.663  16.397 -0.2012 -0.4650 -0.0802
 2793TIP3    H129794   4.749   4.654  16.315 -1.0259  1.0111 -0.7967
 2793TIP3    H229795   4.682   4.574  16.425  0.9257 -1.0016 -1.0178
 2794TIP3   OH229796   6.645   6.648   6.044 -0.3466  0.1283 -0.8957
 2794TIP3    H129797   6.691   6.613   6.121 -1.2483 -2.6306 -1.4750
 2794TIP3    H229798   6.560   6.675   6.078 -0.0975  0.6247 -0.6492
 2795TIP3   OH229799   5.727   5.709   4.566 -0.3348  0.0552 -0.4617
 2795TIP3    H129800   5.744   5.804   4.564 -1.2359  0.2185 -1.2658
 2795TIP3    H229801   5.663   5.695   4.496 -1.7412 -0.8585  0.9334
 2796TIP3   OH229802   1.333   1.685  15.856  0.8299 -0.2618  0.3664
 2796TIP3    H129803   1.369   1.634  15.783  2.5017  0.2744  0.7794
 2796TIP3    H229804   1.253   1.724  15.819  1.5118 -0.1796 -1.1202
 2797TIP3   OH229805   3.951   5.751  15.494 -0.1903 -0.0765  0.8787
 2797TIP3    H129806   3.962   5.825  15.435 -0.0013 -1.5089 -0.9534
 2797TIP3    H229807   4.019   5.764  15.561  0.8760  0.5713 -0.2981
 2798TIP3   OH229808   6.361   3.686  16.667 -0.1170  0.2204  0.3154
 2798TIP3    H129809   6.339   3.678  16.574  0.2954  0.2552  0.2141
 2798TIP3    H229810   6.313   3.614  16.709  0.4111 -0.3513 -0.0507
 2799TIP3   OH229811   5.412   4.349   4.849  0.4538  0.0069 -0.3742
 2799TIP3    H129812   5.377   4.422   4.799  0.1118 -0.2364 -0.4960
 2799TIP3    H229813   5.340   4.323   4.907  1.1738  0.9442  0.9848
 2800TIP3   OH229814   2.636   5.208   6.610 -0.2950 -0.0420 -0.0847
 2800TIP3    H129815   2.591   5.251   6.682 -0.9202  0.9929 -1.0632
 2800TIP3    H229816   2.566   5.171   6.557  0.1405 -0.4414 -0.3955
 2801TIP3   OH229817   5.562   5.774  15.565 -0.2686  0.2216  0.1688
 2801TIP3    H129818   5.641   5.733  15.603  0.4020 -0.1031 -1.4941
 2801TIP3    H229819   5.489   5.728  15.607  0.4556 -1.3970 -0.2461
 2802TIP3   OH229820   5.477   2.162   6.400  0.0829  0.4542  0.2412
 2802TIP3    H129821   5.517   2.078   6.421 -0.5906  0.5427  2.0758
 2802TIP3    H229822   5.445   2.195   6.484 -0.4856  2.1193 -0.5810
 2803TIP3   OH229823   1.978   6.649  16.527  0.0261 -0.9373 -0.5896
 2803TIP3    H129824   1.973   6.569  16.475 -0.8899 -2.4990  1.7216
 2803TIP3    H229825   1.949   6.622  16.614 -0.0366  1.8807  0.3469
 2804TIP3   OH229826   5.353   5.007   1.921 -0.3067  0.3701  0.0404
 2804TIP3    H129827   5.334   5.087   1.871  0.4107 -0.2934 -1.3687
 2804TIP3    H229828   5.446   4.989   1.902 -0.8125 -1.5776 -0.8642
 2805TIP3   OH229829   2.031   1.740   5.020 -0.3498 -0.2442  0.0306
 2805TIP3    H129830   1.966   1.732   4.950 -1.0537 -0.7915  0.7252
 2805TIP3    H229831   1.989   1.796   5.086  0.9527  1.6806 -0.6856
 2806TIP3   OH229832   5.553   1.036   0.664  0.3173 -0.1748  0.0491
 2806TIP3    H129833   5.611   0.961   0.652 -0.5108 -1.1979  1.9906
 2806TIP3    H229834   5.471   0.999   0.697 -0.6288  1.4539 -0.3398
 2807TIP3   OH229835   6.756   1.554  11.564  0.3901  0.5500  0.0948
 2807TIP3    H129836   6.723   1.625  11.620 -1.1616  0.5591 -0.7761
 2807TIP3    H229837   6.709   1.565  11.482  0.9565 -0.8256 -0.4375
 2808TIP3   OH229838   1.075   1.836   1.823  0.2263  0.2122 -0.4277
 2808TIP3    H129839   1.160   1.803   1.853 -0.5508 -0.3927  1.2115
 2808TIP3    H229840   1.097   1.905   1.760  1.9104 -1.2149 -1.5082
 2809TIP3   OH229841   2.998   4.314   2.058  0.6351 -0.1913 -0.0178
 2809TIP3    H129842   3.004   4.272   1.972 -0.3924  0.2335 -0.3197
 2809TIP3    H229843   2.951   4.396   2.041 -0.7997 -0.7260  1.1399
 2810TIP3   OH229844   1.360   4.778  13.674 -0.5115 -0.4667  0.0425
 2810TIP3    H129845   1.412   4.793  13.595  0.0276  1.1311  0.6649
 2810TIP3    H229846   1.337   4.865  13.704 -1.7351 -1.0908  1.0060
 2811TIP3   OH229847   4.057   3.515   6.287  0.0630  0.1421 -0.3182
 2811TIP3    H129848   4.019   3.428   6.300 -1.2688  0.6293 -0.7342
 2811TIP3    H229849   3.993   3.561   6.234  0.0028  1.8715  1.1505
 2812TIP3   OH229850   0.948   4.737   5.128 -0.4959 -0.6792 -0.3021
 2812TIP3    H129851   1.033   4.777   5.143 -0.1618 -0.8665 -1.5273
 2812TIP3    H229852   0.944   4.664   5.190 -0.5093  0.3615  0.9470
 2813TIP3   OH229853   2.267   6.077   1.061 -0.1357  0.0092  0.3218
 2813TIP3    H129854   2.362   6.075   1.061 -0.1331 -0.0095 -0.0507
 2813TIP3    H229855   2.240   5.992   1.096 -0.0175  0.0783  0.5818
 2814TIP3   OH229856   3.520   6.249  11.567 -0.1761  0.3689 -0.4438
 2814TIP3    H129857   3.557   6.222  11.483  0.3623 -0.1805 -0.0413
 2814TIP3    H229858   3.450   6.310  11.545  0.9098  1.3609 -1.2323
 2815TIP3   OH229859   2.007   0.132  14.469  0.0762  0.5425 -0.5437
 2815TIP3    H129860   1.974   0.078  14.397  1.7234 -1.0010 -0.1972
 2815TIP3    H229861   2.021   0.218  14.429 -1.1549  0.3225 -1.4914
 2816TIP3   OH229862   3.601   5.917  14.249  0.3268  0.3838 -0.3401
 2816TIP3    H129863   3.584   6.007  14.278 -0.2419 -0.3454  1.7846
 2816TIP3    H229864   3.554   5.863  14.313  1.3196 -1.4382 -1.1066
 2817TIP3   OH229865   2.216   6.514   1.807  0.6767 -0.5092  0.2253
 2817TIP3    H129866   2.230   6.587   1.868  0.3943 -1.7868  1.9033
 2817TIP3    H229867   2.130   6.531   1.768  0.2637 -0.3434  1.1861
 2818TIP3   OH229868   0.470   1.202  11.880 -0.1521 -0.0433 -0.3665
 2818TIP3    H129869   0.491   1.114  11.849 -0.9038 -0.4333  0.2094
 2818TIP3    H229870   0.470   1.256  11.801  1.3342 -0.3441 -0.5921
 2819TIP3   OH229871   1.232   0.009  14.127 -0.1814  0.2873  0.3454
 2819TIP3    H129872   1.199  -0.023  14.211 -1.3453  0.6400  0.0274
 2819TIP3    H229873   1.273   0.093  14.148  0.4244 -0.0855  0.7106
 2820TIP3   OH229874   3.599   2.948  13.194 -0.2128  0.1810  0.0103
 2820TIP3    H129875   3.512   2.908  13.187 -0.6583  1.3605 -2.1314
 2820TIP3    H229876   3.583   3.041  13.179  1.4993  0.3041 -1.2809
 2821TIP3   OH229877   2.167   0.949   0.409 -0.3650  0.0566  0.4501
 2821TIP3    H129878   2.078   0.976   0.433 -0.2824  0.5691  0.1857
 2821TIP3    H229879   2.222   0.986   0.478 -0.1588  1.2948 -0.3295
 2822TIP3   OH229880   0.279   3.861   5.753  0.1097 -0.3837 -0.8612
 2822TIP3    H129881   0.204   3.887   5.700  0.0461  0.5121 -0.3440
 2822TIP3    H229882   0.302   3.939   5.804  1.6413 -0.5092 -1.2894
 2823TIP3   OH229883   1.835   5.918   2.685 -0.3292  0.0162 -0.4939
 2823TIP3    H129884   1.904   5.942   2.747  0.6685  1.2630 -2.0139
 2823TIP3    H229885   1.765   5.882   2.740  0.2171  1.7180  1.4466
 2824TIP3   OH229886   3.429   3.592  11.536 -0.4653  0.6463 -0.4561
 2824TIP3    H129887   3.347   3.618  11.578  0.0950  1.6420  0.0608
 2824TIP3    H229888   3.491   3.580  11.608 -0.3323 -0.8258 -0.7836
 2825TIP3   OH229889   5.668   3.578   2.340 -0.2716  0.3659  0.3717
 2825TIP3    H129890   5.732   3.645   2.363  0.1474 -0.6180  2.3103
 2825TIP3    H229891   5.598   3.588   2.405 -0.5897 -0.5662  0.1950
 2826TIP3   OH229892   4.133   2.267   2.077 -0.0355 -0.1988 -0.3013
 2826TIP3    H129893   4.168   2.356   2.083  0.9948 -0.6841  2.0278
 2826TIP3    H229894   4.205   2.215   2.043  0.1944 -0.5112  0.6243
 2827TIP3   OH229895   0.608   0.067  15.528 -0.9499  0.0808 -0.0258
 2827TIP3    H129896   0.621   0.085  15.436  0.0407  1.8195  0.4184
 2827TIP3    H229897   0.513   0.071  15.540 -0.9620  3.0554 -0.4293
 2828TIP3   OH229898   6.457   3.707   1.404  0.0433 -0.1567  0.3850
 2828TIP3    H129899   6.451   3.639   1.336 -1.3145 -2.7685  2.9241
 2828TIP3    H229900   6.550   3.707   1.429  0.6643  1.1804 -1.6712
 2829TIP3   OH229901   6.187   5.579  14.291 -0.2540  0.0506 -0.2475
 2829TIP3    H129902   6.172   5.673  14.301  0.0680  0.3534 -2.0847
 2829TIP3    H229903   6.146   5.539  14.367  0.8175  1.7699  1.3203
 2830TIP3   OH229904   5.701   2.312  15.315 -0.4893 -0.2943 -0.4309
 2830TIP3    H129905   5.672   2.221  15.307 -0.9669 -0.3301  1.3292
 2830TIP3    H229906   5.743   2.331  15.231 -0.4057 -2.1204 -0.8492
 2831TIP3   OH229907   3.388   0.987   5.061  0.1661  0.1360  0.1870
 2831TIP3    H129908   3.481   0.977   5.085  0.1694 -2.3152 -0.5140
 2831TIP3    H229909   3.340   0.954   5.137  0.0302 -2.1025 -0.7868
 2832TIP3   OH229910   1.349   3.578  12.303  0.4622 -0.4655 -0.0326
 2832TIP3    H129911   1.304   3.629  12.371  2.2109  0.1804  0.7027
 2832TIP3    H229912   1.325   3.487  12.322 -1.0071 -0.1092 -0.0579
 2833TIP3   OH229913   0.864   1.623   0.477  0.3407  0.8967  0.6007
 2833TIP3    H129914   0.770   1.639   0.480 -0.6377 -3.1484 -1.4643
 2833TIP3    H229915   0.876   1.539   0.521  3.1967  1.6483  1.5167
 2834TIP3   OH229916   2.221   5.622   3.114  0.1804 -0.6991 -0.0614
 2834TIP3    H129917   2.293   5.634   3.052 -0.9591 -0.4175 -1.3969
 2834TIP3    H229918   2.248   5.670   3.192  1.2266 -0.1824 -0.7197
 2835TIP3   OH229919   1.383   1.388   3.472  0.0031 -0.1223 -0.0082
 2835TIP3    H129920   1.388   1.475   3.434  1.1909 -1.0366 -2.0721
 2835TIP3    H229921   1.293   1.359   3.456 -0.2291  0.4866  0.1838
 2836TIP3   OH229922   2.670   6.112   1.946  0.1286  0.3847  0.3681
 2836TIP3    H129923   2.702   6.109   1.855  1.1879 -1.0270  0.7387
 2836TIP3    H229924   2.597   6.173   1.944  0.3311  0.6272 -1.3781
 2837TIP3   OH229925   3.951   1.856  14.830 -0.5098 -0.5507 -0.5000
 2837TIP3    H129926   3.909   1.842  14.915 -0.8466 -1.5074 -0.8175
 2837TIP3    H229927   4.018   1.788  14.825 -0.5097 -0.5132 -1.0103
 2838TIP3   OH229928   5.975   0.097  15.612 -0.0457 -0.1183 -0.3151
 2838TIP3    H129929   5.887   0.115  15.647  0.6171 -1.2160  2.1662
 2838TIP3    H229930   6.022   0.180  15.621 -0.5645  0.2487 -0.8760
 2839TIP3   OH229931   5.378   4.305   0.185  0.2325  0.3194  0.4341
 2839TIP3    H129932   5.403   4.267   0.269  0.2777 -0.8675 -0.0992
 2839TIP3    H229933   5.455   4.355   0.157  1.4227 -1.8272 -0.3381
 2840TIP3   OH229934   1.240   1.863   0.508 -0.3289  0.0712 -0.3778
 2840TIP3    H129935   1.190   1.934   0.548  0.2235  0.4545 -0.3619
 2840TIP3    H229936   1.325   1.866   0.551  0.1193  0.2024 -1.2521
 2841TIP3   OH229937   1.719   1.972   0.413  0.2328  0.1420  0.5187
 2841TIP3    H129938   1.767   1.967   0.331  0.7136  1.8532  0.6589
 2841TIP3    H229939   1.785   1.991   0.479 -0.2060 -0.7722  1.2561
 2842TIP3   OH229940   4.706   5.466   5.461  0.6543 -0.2210  0.1446
 2842TIP3    H129941   4.689   5.430   5.374  0.1812  0.5219 -0.0839
 2842TIP3    H229942   4.644   5.539   5.469 -0.0817 -0.9562  1.5504
 2843TIP3   OH229943   4.248   5.358   2.874  0.4388  0.1927 -0.0612
 2843TIP3    H129944   4.274   5.407   2.952  0.7166 -2.0683  1.3872
 2843TIP3    H229945   4.325   5.357   2.818  0.4494  1.2959 -0.0793
 2844TIP3   OH229946   1.956   5.146   0.074 -0.1589 -0.5169 -0.0082
 2844TIP3    H129947   1.867   5.111   0.073 -0.1744 -0.4968  0.4183
 2844TIP3    H229948   2.001   5.100   0.003 -0.0858 -1.6386  0.7438
 2845TIP3   OH229949   4.853   1.684  11.286 -0.3375 -0.1262  0.0897
 2845TIP3    H129950   4.915   1.730  11.231 -0.7717 -1.2337 -1.3753
 2845TIP3    H229951   4.897   1.675  11.371  1.3579 -0.5975 -0.8162
 2846TIP3   OH229952   4.375   3.527   0.164 -0.1727 -0.3598  0.1239
 2846TIP3    H129953   4.304   3.587   0.144 -0.8284 -1.3314 -0.5405
 2846TIP3    H229954   4.340   3.471   0.234  0.5756  0.2652  1.0258
 2847TIP3   OH229955   3.499   4.616   0.907  0.3834  0.0939  0.0639
 2847TIP3    H129956   3.415   4.605   0.952  1.0816 -0.7093  1.1968
 2847TIP3    H229957   3.483   4.582   0.819  0.3252 -3.0591  1.1668
 2848TIP3   OH229958   6.001   6.583   4.018 -0.0987 -0.3154  0.0451
 2848TIP3    H129959   5.928   6.614   3.964 -0.6673  1.2998  1.6656
 2848TIP3    H229960   5.960   6.549   4.097  0.8719  0.1295  0.7535
 2849TIP3   OH229961   3.770   4.564  13.684  0.3752 -0.3975 -0.2676
 2849TIP3    H129962   3.828   4.627  13.640 -0.1808 -0.4296 -1.0511
 2849TIP3    H229963   3.740   4.506  13.614 -2.4954  1.0402 -0.3518
 2850TIP3   OH229964   5.762   4.961  13.555 -0.5104 -0.5036  0.7566
 2850TIP3    H129965   5.750   4.985  13.463 -1.1547  1.5063  1.3108
 2850TIP3    H229966   5.752   4.866  13.556  2.5717 -1.0245 -1.6926
 2851TIP3   OH229967   5.583   2.999   1.846 -0.2515 -0.4414  0.5522
 2851TIP3    H129968   5.649   3.035   1.905 -1.1622  0.1577  1.2364
 2851TIP3    H229969   5.504   3.051   1.864 -0.4964 -0.0616 -1.3788
 2852TIP3   OH229970   5.104   4.864   1.817 -0.2868  0.1532  0.0756
 2852TIP3    H129971   5.049   4.904   1.884  0.1036  1.1835 -0.1895
 2852TIP3    H229972   5.193   4.886   1.844 -0.0993  0.0185 -0.4289
 2853TIP3   OH229973   4.043   0.367   1.798  0.1373  0.6301 -0.4452
 2853TIP3    H129974   3.986   0.366   1.875 -0.6642 -0.5124 -1.0230
 2853TIP3    H229975   3.989   0.403   1.728  0.3178  0.1093 -0.8576
 2854TIP3   OH229976   4.728   0.105  13.106 -0.0600 -0.3535  0.1999
 2854TIP3    H129977   4.656   0.142  13.158 -0.0241  0.9781 -0.6485
 2854TIP3    H229978   4.806   0.150  13.137 -0.0284  0.4076 -0.9295
 2855TIP3   OH229979   4.274   4.527  14.830  0.2116 -0.1856  0.0550
 2855TIP3    H129980   4.260   4.505  14.738  1.8383 -0.1591 -0.2236
 2855TIP3    H229981   4.345   4.592  14.829 -1.4091  1.7267  1.1752
 2856TIP3   OH229982   2.625   4.797  14.029  0.6981 -0.2546 -0.0449
 2856TIP3    H129983   2.641   4.745  14.108  1.8865 -1.3152 -0.9425
 2856TIP3    H229984   2.545   4.846  14.049  1.3813  0.0915  2.0843
 2857TIP3   OH229985   6.162   6.151  10.004  0.1866 -0.1429  0.2171
 2857TIP3    H129986   6.146   6.228  10.060  0.9511 -0.6888  1.2239
 2857TIP3    H229987   6.251   6.164   9.971 -0.2740  0.1941 -0.9320
 2858TIP3   OH229988   0.022   0.104   3.212  0.4161  0.2657 -0.3880
 2858TIP3    H129989   0.015   0.188   3.257  1.8272  0.0994  0.2050
 2858TIP3    H229990  -0.055   0.100   3.156  0.0826  1.7414 -0.0747
 2859TIP3   OH229991   5.768   6.048   6.294 -0.4426  0.2103 -0.3835
 2859TIP3    H129992   5.736   6.015   6.210  0.4566 -1.1734 -0.2289
 2859TIP3    H229993   5.842   6.104   6.271 -0.4178  0.1141 -0.5379
 2860TIP3   OH229994   3.733   2.186   2.477 -0.1784  0.3703  0.6920
 2860TIP3    H129995   3.705   2.270   2.513 -0.7794 -0.0122  1.1353
 2860TIP3    H229996   3.791   2.209   2.404  0.6782  1.1738  1.5844
 2861TIP3   OH229997   1.851   0.759   3.170 -0.2886  0.9437  0.0111
 2861TIP3    H129998   1.803   0.828   3.215  0.7497  1.7035  0.0166
 2861TIP3    H229999   1.929   0.804   3.136  0.4905 -0.2656  0.1524
 2862TIP3   OH230000   5.328   2.100   4.304  0.0301  0.4168  0.1051
 2862TIP3    H130001   5.366   2.025   4.258  0.4481  0.5222  0.2725
 2862TIP3    H230002   5.281   2.062   4.378  0.7084  0.3478  0.5118
 2863TIP3   OH230003   6.368   6.251  13.641  0.3377 -0.4903 -0.2385
 2863TIP3    H130004   6.416   6.242  13.724  0.5908  0.5447 -0.2580
 2863TIP3    H230005   6.436   6.252  13.574  0.2808  0.7075 -0.2910
 2864TIP3   OH230006   6.294   4.972   2.825 -0.0475  0.0705  0.2358
 2864TIP3    H130007   6.334   4.955   2.911 -0.2791  2.4861  0.8870
 2864TIP3    H230008   6.230   5.041   2.842 -0.5912  0.1051 -1.7716
 2865TIP3   OH230009   1.938   3.547  13.597 -0.1494  0.0126 -0.1120
 2865TIP3    H130010   1.984   3.482  13.544 -2.6775 -0.6588 -1.6589
 2865TIP3    H230011   1.984   3.629  13.579  0.7140 -0.6799 -1.2164
 2866TIP3   OH230012   4.587   3.524   4.432  0.1387  0.1249 -0.8779
 2866TIP3    H130013   4.616   3.541   4.522  0.0439 -1.5071 -0.5027
 2866TIP3    H230014   4.667   3.532   4.379  0.1467  1.3494 -0.6958
 2867TIP3   OH230015   6.443   1.482   1.601  0.4052  0.8655 -0.0042
 2867TIP3    H130016   6.530   1.485   1.562  1.8296 -2.2857  2.4496
 2867TIP3    H230017   6.389   1.435   1.538  1.8277 -1.3436  0.3035
 2868TIP3   OH230018   3.143   6.009  16.108 -0.1773 -0.2854 -0.2681
 2868TIP3    H130019   3.202   6.082  16.125 -0.3563 -0.5442  1.7732
 2868TIP3    H230020   3.202   5.934  16.095  0.0072 -0.4709  1.3953
 2869TIP3   OH230021   4.979   4.724   0.150 -0.5593  0.1555 -0.0677
 2869TIP3    H130022   5.033   4.771   0.214 -0.1192 -0.4337  0.0002
 2869TIP3    H230023   4.955   4.643   0.194 -0.3378 -0.2085 -0.6098
 2870TIP3   OH230024   0.392   3.788  12.443  0.0598  0.1374 -0.0920
 2870TIP3    H130025   0.338   3.804  12.366 -0.0263  0.0743 -0.0460
 2870TIP3    H230026   0.412   3.695  12.439  1.0652  0.3645 -0.6842
 2871TIP3   OH230027   6.042   5.917   4.362  0.3369 -0.2761  0.1892
 2871TIP3    H130028   5.968   5.937   4.304  0.7032 -0.3763 -0.3154
 2871TIP3    H230029   6.114   5.969   4.327  0.4547 -0.0133  0.8101
 2872TIP3   OH230030   2.478   0.073   3.264  0.0297 -0.3603 -0.4156
 2872TIP3    H130031   2.388   0.082   3.233  0.2597  2.2179 -0.5137
 2872TIP3    H230032   2.470   0.019   3.343 -1.4261 -1.2216 -1.1073
 2873TIP3   OH230033   1.141   0.375  12.390  0.4199  0.5052 -0.1880
 2873TIP3    H130034   1.151   0.340  12.479 -0.7716  0.7699  0.0691
 2873TIP3    H230035   1.185   0.311  12.334 -0.9567 -0.9883  0.3636
 2874TIP3   OH230036   0.070   2.112  13.343  0.3812 -0.1404 -0.2892
 2874TIP3    H130037   0.057   2.163  13.263  1.7543  1.0131  0.1661
 2874TIP3    H230038   0.162   2.128  13.366  0.2984 -1.2957  0.9407
 2875TIP3   OH230039   2.231   1.480  15.582  0.0155 -0.2175 -0.2072
 2875TIP3    H130040   2.208   1.453  15.493  0.1891 -2.0802  0.2733
 2875TIP3    H230041   2.179   1.559  15.597 -0.9055 -0.5371 -1.5527
 2876TIP3   OH230042   3.907   1.269   4.253  0.0145  0.1607  0.5282
 2876TIP3    H130043   3.938   1.224   4.332 -0.0879 -0.7170  0.0842
 2876TIP3    H230044   3.812   1.258   4.256  0.0344 -0.1193  0.1386
 2877TIP3   OH230045   2.393   0.023  15.297  0.0488 -0.4682 -0.4404
 2877TIP3    H130046   2.367   0.106  15.255  0.6152 -0.9872 -1.9015
 2877TIP3    H230047   2.333   0.014  15.371 -0.2813  1.0543 -0.4857
 2878TIP3   OH230048   4.603   1.179   1.482  0.2508  0.1749 -0.0031
 2878TIP3    H130049   4.580   1.086   1.479  0.6379  0.0712  0.1452
 2878TIP3    H230050   4.534   1.218   1.536 -0.9510  0.3026 -1.5668
 2879TIP3   OH230051   4.206   3.620   7.066 -0.6320 -0.6659  0.5060
 2879TIP3    H130052   4.136   3.608   7.002  0.7749  0.1992 -1.2715
 2879TIP3    H230053   4.286   3.629   7.014  0.2851  2.6324  2.2079
 2880TIP3   OH230054   4.660   4.377  16.463 -0.1813  0.2750 -0.0033
 2880TIP3    H130055   4.581   4.332  16.491  0.4065 -0.1783  0.9728
 2880TIP3    H230056   4.731   4.334  16.511  0.7727  0.0706 -1.5138
 2881TIP3   OH230057   4.669   3.197  12.862 -0.0100 -0.0477  0.0559
 2881TIP3    H130058   4.604   3.241  12.807  0.0332 -1.1388 -0.9199
 2881TIP3    H230059   4.625   3.185  12.946 -2.2360 -3.2357 -1.3719
 2882TIP3   OH230060   3.708   3.678   3.620 -0.1109  0.1036 -0.1342
 2882TIP3    H130061   3.615   3.688   3.641 -0.6654 -1.1297 -1.8314
 2882TIP3    H230062   3.727   3.586   3.640  0.5578  0.1671 -0.4594
 2883TIP3   OH230063   3.612   1.762   5.310 -0.1419 -0.3827  0.2482
 2883TIP3    H130064   3.664   1.830   5.267  1.4664  0.7959  3.6669
 2883TIP3    H230065   3.522   1.792   5.303  0.2525  0.6446 -0.7356
 2884TIP3   OH230066   1.538   1.238  12.647 -0.0146  0.0320  0.3853
 2884TIP3    H130067   1.570   1.325  12.621 -1.8865  0.7124  0.2357
 2884TIP3    H230068   1.565   1.181  12.576  0.7585  0.5872  0.2168
 2885TIP3   OH230069   2.470   6.620  12.214 -0.2981  0.6842  0.6731
 2885TIP3    H130070   2.450   6.678  12.140  0.8458  0.5669  0.2480
 2885TIP3    H230071   2.410   6.546  12.203 -0.2823  0.7654 -0.0259
 2886TIP3   OH230072   5.092   0.984   0.703  0.3380  0.1061  0.0369
 2886TIP3    H130073   5.097   0.889   0.716 -1.3015  0.0208  0.2963
 2886TIP3    H230074   5.000   1.005   0.718  0.6625  1.7391 -0.0865
 2887TIP3   OH230075   2.144   4.883   1.738 -0.3166 -0.5537 -0.1669
 2887TIP3    H130076   2.207   4.813   1.758 -0.4535 -0.2877  1.3293
 2887TIP3    H230077   2.111   4.910   1.824 -0.3217  1.3116 -0.7197
 2888TIP3   OH230078   6.693   0.002   4.109  0.1806  0.4249  0.0215
 2888TIP3    H130079   6.603  -0.012   4.081  0.0640 -0.0798  0.6184
 2888TIP3    H230080   6.746  -0.051   4.049 -0.0313 -0.2992  0.4536
 2889TIP3   OH230081   0.032   2.269   5.432 -0.0937  0.5505  0.1530
 2889TIP3    H130082   0.127   2.264   5.437  0.1047  2.3995 -0.7666
 2889TIP3    H230083   0.008   2.213   5.358  0.3923  0.8453 -0.2353
 2890TIP3   OH230084   0.259   0.570   3.597 -0.3624 -1.0488 -0.3756
 2890TIP3    H130085   0.305   0.486   3.587 -0.6394 -1.0542 -1.8546
 2890TIP3    H230086   0.180   0.560   3.544  0.2936  0.6092 -1.7597
 2891TIP3   OH230087   4.064   2.483   0.221  0.3361  0.3554  0.3763
 2891TIP3    H130088   4.106   2.416   0.167  1.5297  0.6536  0.9109
 2891TIP3    H230089   4.000   2.524   0.163  0.2967 -0.5647 -0.2516
 2892TIP3   OH230090   1.938   1.295  16.590  0.1209  0.0481 -0.2826
 2892TIP3    H130091   1.957   1.269  16.500 -2.1558 -1.3675 -0.4223
 2892TIP3    H230092   1.903   1.384  16.583  0.6853  0.2495 -0.6769
 2893TIP3   OH230093   0.052   0.773  15.922 -0.2682  0.0295  0.3238
 2893TIP3    H130094   0.037   0.700  15.982 -3.5150 -0.0408 -0.4143
 2893TIP3    H230095   0.127   0.820  15.959  1.2457 -3.0113  1.4031
 2894TIP3   OH230096   2.933   5.574  16.998  0.1495  0.3628 -0.1634
 2894TIP3    H130097   3.007   5.543  16.947 -0.4964 -0.7673 -0.4770
 2894TIP3    H230098   2.971   5.608  17.079  0.9888 -0.6364 -0.1134
 2895TIP3   OH230099   1.248   5.184   2.622  0.5390  0.2076  0.1494
 2895TIP3    H130100   1.256   5.194   2.717 -0.1561  1.7210  0.0698
 2895TIP3    H230101   1.300   5.106   2.602 -0.3294 -0.8885  1.9158
 2896TIP3   OH230102   3.468   3.962   4.235  0.3498 -0.1460 -0.2378
 2896TIP3    H130103   3.412   4.039   4.243 -0.1003 -0.4161 -0.7311
 2896TIP3    H230104   3.539   3.990   4.179 -0.5316 -0.4713 -1.5541
 2897TIP3   OH230105   0.109   2.071  14.273 -0.3680  0.5361 -0.5369
 2897TIP3    H130106   0.163   2.077  14.194  0.4791 -1.8997 -0.2439
 2897TIP3    H230107   0.050   1.998  14.256 -1.3931  1.1065  0.4239
 2898TIP3   OH230108   4.303   1.724  11.304  0.4779  0.2949  0.0491
 2898TIP3    H130109   4.324   1.653  11.243 -1.4575  0.2855 -0.6539
 2898TIP3    H230110   4.306   1.803  11.251 -1.1717  0.2900 -0.1077
 2899TIP3   OH230111   0.410   2.116   1.757  0.4483  0.4149 -0.2874
 2899TIP3    H130112   0.379   2.026   1.747  1.7046 -0.0861  0.0492
 2899TIP3    H230113   0.376   2.144   1.841  0.4883  0.0563 -0.1496
 2900TIP3   OH230114   6.183   0.042   0.274  0.1115  0.2540 -0.0523
 2900TIP3    H130115   6.190   0.135   0.293  0.3034  0.1805  0.2345
 2900TIP3    H230116   6.132   0.006   0.347 -0.8387  0.2978 -0.6630
 2901TIP3   OH230117   5.237   4.675  11.506  0.2266  0.1294 -0.1259
 2901TIP3    H130118   5.234   4.579  11.511 -1.6354  0.1673  0.3430
 2901TIP3    H230119   5.210   4.696  11.417 -0.6961  0.2236  0.1626
 2902TIP3   OH230120   0.669   4.253  16.748  0.3781  0.1591 -0.3057
 2902TIP3    H130121   0.603   4.260  16.678 -0.5448 -1.0115  0.4070
 2902TIP3    H230122   0.658   4.333  16.799 -0.9506 -0.2950  0.1623
 2903TIP3   OH230123   5.561   6.067  13.217  0.1135  0.3954 -0.0551
 2903TIP3    H130124   5.567   5.977  13.248 -1.1191  0.7374  1.2515
 2903TIP3    H230125   5.651   6.100  13.224  0.6333 -0.7806 -0.7986
 2904TIP3   OH230126   4.991   4.541  13.961  0.3179  0.0633 -0.1646
 2904TIP3    H130127   4.917   4.494  13.999  1.5771 -0.8620  1.2242
 2904TIP3    H230128   4.978   4.534  13.866 -0.8595 -0.9037  0.0561
 2905TIP3   OH230129   5.722   5.347   3.308  0.2598 -0.3915 -0.0341
 2905TIP3    H130130   5.750   5.345   3.400 -0.4017 -0.5755  0.1712
 2905TIP3    H230131   5.688   5.259   3.291 -0.2620 -0.1564 -0.2445
 2906TIP3   OH230132   0.724   0.312   5.038  0.1958 -0.2829  0.2315
 2906TIP3    H130133   0.718   0.217   5.033  1.0274 -0.4220  1.4202
 2906TIP3    H230134   0.638   0.340   5.067  0.3899 -0.8179  1.3680
 2907TIP3   OH230135   4.636   3.736  15.319 -0.0963 -0.0040  0.0505
 2907TIP3    H130136   4.626   3.702  15.408  0.1584  0.7490  0.3707
 2907TIP3    H230137   4.608   3.827  15.324  2.1231  0.7584 -0.0946
 2908TIP3   OH230138   6.522   6.051  14.923  0.0060  0.3683  0.1947
 2908TIP3    H130139   6.614   6.045  14.950 -0.4385 -0.5221  1.5874
 2908TIP3    H230140   6.483   6.113  14.984 -0.6257 -0.3256  0.5096
 2909TIP3   OH230141   0.428   4.802   0.968 -0.3597 -0.6075 -0.7271
 2909TIP3    H130142   0.494   4.732   0.968  0.4937  0.1543  0.2965
 2909TIP3    H230143   0.473   4.877   0.931 -0.5406  0.0082  0.2602
 2910TIP3   OH230144   6.521   0.207   3.782 -0.0133 -0.4931 -0.1985
 2910TIP3    H130145   6.474   0.249   3.853 -0.8914 -0.2008 -0.9340
 2910TIP3    H230146   6.504   0.113   3.794 -0.2046 -0.4404 -0.0498
 2911TIP3   OH230147   0.361   4.553   5.465 -0.2757  0.0215 -0.9387
 2911TIP3    H130148   0.402   4.589   5.544 -0.1539 -0.6061 -0.7088
 2911TIP3    H230149   0.349   4.460   5.485 -2.1458  0.2402 -0.8474
 2912TIP3   OH230150   3.098   2.798   0.967 -0.3670 -0.6188  0.0177
 2912TIP3    H130151   3.139   2.747   1.036  3.1881 -0.4198 -1.7291
 2912TIP3    H230152   3.152   2.783   0.890 -3.0911  0.5528 -2.3436
 2913TIP3   OH230153   2.770   2.302  12.547 -0.0401  0.1774 -0.1703
 2913TIP3    H130154   2.799   2.278  12.635  1.4913 -2.0548 -1.1838
 2913TIP3    H230155   2.696   2.244  12.529 -1.1585  1.4766  0.0408
 2914TIP3   OH230156   4.590   2.162   0.361 -0.6488 -0.0531  0.8316
 2914TIP3    H130157   4.679   2.196   0.360 -0.3339 -0.8071 -1.3317
 2914TIP3    H230158   4.574   2.141   0.454  1.5585 -0.2595  1.2285
 2915TIP3   OH230159   4.706   0.018   2.305 -0.0762 -0.4890  0.0897
 2915TIP3    H130160   4.662   0.032   2.221  0.9397 -0.7882 -0.5191
 2915TIP3    H230161   4.721  -0.077   2.308  4.3341 -0.0911 -1.8148
 2916TIP3   OH230162   2.788   1.622  12.194  0.5471  0.7774  0.3508
 2916TIP3    H130163   2.851   1.641  12.125 -0.7167  2.7647 -0.3597
 2916TIP3    H230164   2.754   1.535  12.173  0.8021  1.0025 -1.0698
 2917TIP3   OH230165   1.297   1.215   5.413  0.4242  0.5540  0.2237
 2917TIP3    H130166   1.287   1.165   5.494  0.3348  0.9917  0.4858
 2917TIP3    H230167   1.210   1.212   5.372 -0.1809  2.2659  1.2828
 2918TIP3   OH230168   1.224   3.356   5.123 -0.1669  0.5712 -0.2693
 2918TIP3    H130169   1.280   3.383   5.050  0.1045  1.4820  0.2588
 2918TIP3    H230170   1.266   3.279   5.159  0.2001  0.6609 -0.5048
 2919TIP3   OH230171   2.648   6.449   5.521 -0.2509 -0.3529  0.3717
 2919TIP3    H130172   2.580   6.390   5.553  0.1619 -0.6059  0.8002
 2919TIP3    H230173   2.682   6.491   5.600  0.5205 -0.6951  0.2352
 2920TIP3   OH230174   3.427   0.651   1.932 -0.2509 -1.0513  0.1918
 2920TIP3    H130175   3.456   0.566   1.967 -0.6465 -1.2419  0.0570
 2920TIP3    H230176   3.337   0.660   1.962 -0.7108 -1.3720 -1.0367
 2921TIP3   OH230177   5.114   3.360  12.471 -0.6911 -0.2351  0.3292
 2921TIP3    H130178   5.028   3.392  12.444 -0.8534 -0.0913  0.9881
 2921TIP3    H230179   5.130   3.405  12.554  0.1074 -0.1189  0.1151
 2922TIP3   OH230180   6.404   1.113  12.893  0.9199  0.5625  0.2926
 2922TIP3    H130181   6.397   1.053  12.967 -1.7432  0.2213 -0.1300
 2922TIP3    H230182   6.458   1.185  12.926  2.0058 -0.8128  1.6574
 2923TIP3   OH230183   6.815   6.366   2.340  0.7285 -0.0949  0.4123
 2923TIP3    H130184   6.780   6.282   2.367 -0.1052  0.2506  0.4418
 2923TIP3    H230185   6.839   6.354   2.248 -0.4752 -0.0503  0.0754
 2924TIP3   OH230186   2.534   5.889   0.106 -0.3381 -0.0190  0.7525
 2924TIP3    H130187   2.544   5.812   0.162  0.1644  0.1034  0.8328
 2924TIP3    H230188   2.450   5.927   0.133 -0.3154 -0.2166  1.1059
 2925TIP3   OH230189   4.632   2.820   3.779  0.3658 -0.5075  0.0661
 2925TIP3    H130190   4.587   2.844   3.698  2.1633 -1.4573 -1.3049
 2925TIP3    H230191   4.570   2.763   3.825 -1.4191  1.5177  0.3122
 2926TIP3   OH230192   6.023   3.936   1.685  0.0988 -0.3934 -0.3163
 2926TIP3    H130193   6.026   3.843   1.663 -0.6823 -0.3416 -0.6619
 2926TIP3    H230194   6.036   3.981   1.602  2.3227 -0.1558  0.0888
 2927TIP3   OH230195   4.505   5.709  15.328 -0.6563  0.3493 -0.3064
 2927TIP3    H130196   4.557   5.630  15.340 -1.7040 -0.4284 -0.6574
 2927TIP3    H230197   4.522   5.762  15.406  2.2319  1.1052 -1.3458
 2928TIP3   OH230198   1.504   4.818   2.203 -0.1501 -0.0104  0.3815
 2928TIP3    H130199   1.517   4.912   2.214 -0.7655  0.1668 -0.3057
 2928TIP3    H230200   1.546   4.778   2.279  0.5696  0.7842  0.4100
 2929TIP3   OH230201   6.460   0.699   0.689 -0.1375  0.1003 -0.0356
 2929TIP3    H130202   6.506   0.734   0.613  1.2248  0.4169  0.9110
 2929TIP3    H230203   6.369   0.727   0.676 -0.1882 -0.8671 -2.1211
 2930TIP3   OH230204   1.324   4.318   5.496 -0.7803  0.1022  0.4419
 2930TIP3    H130205   1.370   4.267   5.430 -1.3750  0.0645  0.0454
 2930TIP3    H230206   1.239   4.275   5.504 -2.3841  2.5399 -1.8759
 2931TIP3   OH230207   1.367   3.262  10.871  0.3444 -0.3290 -0.4088
 2931TIP3    H130208   1.298   3.328  10.863  0.1286 -0.5113 -0.0722
 2931TIP3    H230209   1.329   3.183  10.835  0.1487 -0.5913  0.3549
 2932TIP3   OH230210   6.166   5.846  11.466 -0.1039  0.2356  0.1161
 2932TIP3    H130211   6.209   5.909  11.524  2.0379 -0.6829 -0.3870
 2932TIP3    H230212   6.080   5.832  11.506  0.9251  0.3525  2.5270
 2933TIP3   OH230213   5.130   2.366   2.279  0.0610  0.7612 -0.4310
 2933TIP3    H130214   5.186   2.413   2.218  0.6759  0.3174 -0.2295
 2933TIP3    H230215   5.066   2.430   2.309  1.3621  1.7085  0.4476
 2934TIP3   OH230216   5.958   5.100   4.195  0.0773  0.0543 -0.3708
 2934TIP3    H130217   5.863   5.109   4.194 -0.0525 -0.8524  1.0749
 2934TIP3    H230218   5.973   5.006   4.182  0.6579 -0.1714  1.5897
 2935TIP3   OH230219   3.497   1.967   0.564 -0.5246 -0.0174  0.0265
 2935TIP3    H130220   3.563   1.928   0.622 -0.6045 -0.7621 -0.3746
 2935TIP3    H230221   3.416   1.921   0.587 -0.2574 -1.5038 -1.7856
 2936TIP3   OH230222   0.890   0.298  15.069  0.5581  0.3357  0.0146
 2936TIP3    H130223   0.985   0.291  15.060  0.6404  0.7555  0.5494
 2936TIP3    H230224   0.858   0.289  14.979  1.0621 -0.3519 -0.1097
 2937TIP3   OH230225   6.355   1.060  14.360 -0.0168 -0.0807  0.2084
 2937TIP3    H130226   6.323   1.049  14.270  0.3971  1.6501 -0.1909
 2937TIP3    H230227   6.380   0.972  14.388 -1.0320 -0.7911 -1.0260
 2938TIP3   OH230228   1.027   4.097   4.607  0.7981 -0.4733  0.0426
 2938TIP3    H130229   0.972   4.170   4.637 -0.8388 -2.6665  2.9494
 2938TIP3    H230230   0.985   4.068   4.526  0.4291  0.7226 -0.2150
 2939TIP3   OH230231   5.562   3.772   5.322 -0.4462 -0.0445 -0.5381
 2939TIP3    H130232   5.519   3.728   5.396  1.5581  0.7011  1.1866
 2939TIP3    H230233   5.490   3.803   5.268 -2.0366 -0.2885  1.3107
 2940TIP3   OH230234   4.643   5.387   5.197 -0.3266 -0.0285 -0.2614
 2940TIP3    H130235   4.605   5.310   5.155  1.1833 -0.2810 -1.2417
 2940TIP3    H230236   4.675   5.441   5.124 -0.7327  1.2091  0.4409
 2941TIP3   OH230237   3.812   4.543  14.404  0.1757 -0.2073  0.6714
 2941TIP3    H130238   3.779   4.624  14.366 -1.1260 -0.4106  1.3367
 2941TIP3    H230239   3.835   4.489  14.328  2.6144  1.3319  0.1818
 2942TIP3   OH230240   4.794   4.576   2.603  0.2945 -0.0957  0.4296
 2942TIP3    H130241   4.851   4.652   2.609 -1.2857  1.2068 -0.4489
 2942TIP3    H230242   4.797   4.550   2.511 -1.4752  0.7957  0.0789
 2943TIP3   OH230243   6.719   6.294   4.578 -0.0730 -0.5816 -0.4612
 2943TIP3    H130244   6.642   6.319   4.528 -0.0047 -0.3976 -0.4727
 2943TIP3    H230245   6.755   6.219   4.531  0.0859 -0.3059 -0.7812
 2944TIP3   OH230246   5.189   6.148   3.807 -0.2652  0.2135  0.0514
 2944TIP3    H130247   5.126   6.126   3.740  1.2539 -3.2122 -0.4634
 2944TIP3    H230248   5.149   6.119   3.889 -1.0923  2.1191  0.3686
 2945TIP3   OH230249   0.620   2.027   1.254  0.5958 -0.2269  0.0368
 2945TIP3    H130250   0.608   1.950   1.198 -3.9111  0.8458 -0.8872
 2945TIP3    H230251   0.697   2.071   1.218  0.8451 -2.1859 -2.0494
 2946TIP3   OH230252   4.601   6.596  16.359  0.0610  0.0545 -0.5160
 2946TIP3    H130253   4.557   6.665  16.310 -0.4391 -0.0985 -0.2855
 2946TIP3    H230254   4.689   6.592  16.321 -0.2355  0.1178 -1.2207
 2947TIP3   OH230255   2.081   2.438   0.557  0.8160 -0.1384 -0.6619
 2947TIP3    H130256   2.148   2.506   0.564 -0.0011  0.7504 -1.2301
 2947TIP3    H230257   2.130   2.357   0.542  1.7636  0.4683 -0.9020
 2948TIP3   OH230258   6.195   0.579   2.839 -0.2264 -0.7471  0.6270
 2948TIP3    H130259   6.148   0.548   2.917 -1.6464 -3.6782 -1.2279
 2948TIP3    H230260   6.127   0.618   2.784  0.4991 -0.0750  0.1874
 2949TIP3   OH230261   6.190   6.119  13.042 -0.0992 -0.5190 -0.2807
 2949TIP3    H130262   6.226   6.091  13.127 -1.6292 -2.3829 -0.1949
 2949TIP3    H230263   6.222   6.054  12.980 -1.2215 -0.7379 -0.6394
 2950TIP3   OH230264   1.244   0.547  14.621 -0.1449  0.0398  0.3520
 2950TIP3    H130265   1.184   0.617  14.647 -1.2377 -0.4010 -0.9179
 2950TIP3    H230266   1.211   0.469  14.665 -1.5354 -0.5439 -1.5923
 2951TIP3   OH230267   2.472   1.163  13.895 -0.0861  0.1628  0.0471
 2951TIP3    H130268   2.419   1.124  13.964  0.8340 -1.6544 -0.2002
 2951TIP3    H230269   2.471   1.098  13.825  1.6920  0.4784 -0.3113
 2952TIP3   OH230270   5.298   5.110  12.271  0.4194 -0.4430 -0.6449
 2952TIP3    H130271   5.356   5.071  12.206 -0.7508 -0.9691 -1.4295
 2952TIP3    H230272   5.326   5.072  12.354  0.7496 -1.2255 -1.0992
 2953TIP3   OH230273   5.615   1.111   5.795  0.5394  0.1094 -0.0109
 2953TIP3    H130274   5.564   1.170   5.851 -2.2136  0.6353 -2.7255
 2953TIP3    H230275   5.563   1.031   5.791  1.3313 -0.3804 -0.7742
 2954TIP3   OH230276   1.993   2.211  16.396  0.5436  0.6145 -0.2904
 2954TIP3    H130277   2.076   2.221  16.349  0.0650  0.9185 -1.0965
 2954TIP3    H230278   1.951   2.136  16.353  0.8449 -0.1948  0.7957
 2955TIP3   OH230279   5.094   2.056   1.974 -0.1086 -0.5132 -0.1383
 2955TIP3    H130280   5.091   2.000   2.052 -0.0322 -0.1965  0.0962
 2955TIP3    H230281   5.041   2.132   1.997 -2.3216 -1.6086 -1.3652
 2956TIP3   OH230282   5.009   3.150   2.749 -0.4094 -0.6903  0.0801
 2956TIP3    H130283   4.991   3.080   2.811  2.9151 -0.2742  1.7671
 2956TIP3    H230284   5.105   3.156   2.747 -0.5041  2.7824 -1.1273
 2957TIP3   OH230285   4.676   4.154   3.350  0.0852  0.2070 -0.3197
 2957TIP3    H130286   4.585   4.134   3.328  0.3214  0.5185 -1.7176
 2957TIP3    H230287   4.727   4.093   3.297  0.7235  1.9515 -1.8788
 2958TIP3   OH230288   5.194   0.091  15.132 -0.1781 -0.0090 -0.0457
 2958TIP3    H130289   5.197   0.164  15.070 -0.3019 -0.0263 -0.0723
 2958TIP3    H230290   5.148   0.022  15.085 -0.7177  0.1481  0.2458
 2959TIP3   OH230291   3.870   5.581  13.081  0.8626 -0.0604 -0.1661
 2959TIP3    H130292   3.783   5.590  13.044  1.4527  0.3361 -1.5101
 2959TIP3    H230293   3.907   5.670  13.078  0.8644  0.0509  1.6302
 2960TIP3   OH230294   1.264   0.309   0.681 -0.0870  0.5555 -0.8527
 2960TIP3    H130295   1.261   0.354   0.596  0.2941  0.8210 -0.7299
 2960TIP3    H230296   1.217   0.227   0.667 -1.3611  1.2703 -0.9195
 2961TIP3   OH230297   3.919   1.575   3.849 -0.0938 -0.7050 -0.3802
 2961TIP3    H130298   3.920   1.515   3.774 -0.1341 -0.2481 -0.7529
 2961TIP3    H230299   3.945   1.521   3.924  0.2911 -1.0870 -0.7841
 2962TIP3   OH230300   2.467   0.870   0.802 -0.5149 -0.6747  0.3448
 2962TIP3    H130301   2.478   0.957   0.763  0.2597 -0.5979  0.7211
 2962TIP3    H230302   2.495   0.810   0.733 -0.2436 -0.5839  0.3720
 2963TIP3   OH230303   1.897   3.076   4.202 -0.6349 -0.7081 -0.4046
 2963TIP3    H130304   1.879   3.123   4.284  1.0285 -1.4848  0.4487
 2963TIP3    H230305   1.815   3.081   4.154 -1.3726  0.6094  0.8819
 2964TIP3   OH230306   2.957   1.715  11.986  0.1884 -0.4441  0.2994
 2964TIP3    H130307   2.898   1.758  11.925  0.5727 -0.3983 -0.0464
 2964TIP3    H230308   3.028   1.778  12.000  0.5149 -0.7769  0.1552
 2965TIP3   OH230309   6.423   4.097  12.825 -0.6250 -0.0394  0.0069
 2965TIP3    H130310   6.401   4.141  12.907 -0.0701  0.7473 -0.2429
 2965TIP3    H230311   6.466   4.165  12.773  2.7234 -1.4623  0.6051
 2966TIP3   OH230312   0.248   6.009   2.687 -0.1227  0.3109 -0.3005
 2966TIP3    H130313   0.215   5.964   2.764 -0.6971  1.3231  0.0692
 2966TIP3    H230314   0.171   6.026   2.634  0.4107 -1.6196 -1.8322
 2967TIP3   OH230315   4.477   2.374  15.863 -0.0181  0.0000  0.8526
 2967TIP3    H130316   4.459   2.308  15.796  0.3722 -0.7629  1.4957
 2967TIP3    H230317   4.443   2.336  15.944  1.3453  0.0324  1.4590
 2968TIP3   OH230318   6.284   5.652  13.399  0.2476 -0.4543  0.0092
 2968TIP3    H130319   6.379   5.650  13.410  0.3729 -0.3549 -0.9434
 2968TIP3    H230320   6.265   5.743  13.376 -0.1319 -0.3911  0.5500
 2969TIP3   OH230321   0.586   2.779  14.024  0.0103  0.3599  0.4875
 2969TIP3    H130322   0.600   2.820  14.109 -1.2940  1.2934  0.2838
 2969TIP3    H230323   0.670   2.739  14.002  0.3334  0.0237  2.2445
 2970TIP3   OH230324   0.172   3.212  15.464  0.7989 -0.4099  0.6461
 2970TIP3    H130325   0.151   3.305  15.472  0.7541 -0.2095 -1.3542
 2970TIP3    H230326   0.233   3.207  15.390  0.1018 -2.0612  0.1391
 2971TIP3   OH230327   5.682   1.206  15.219  0.5330 -0.2695 -0.8019
 2971TIP3    H130328   5.609   1.199  15.280  0.7949  0.2521 -0.4208
 2971TIP3    H230329   5.674   1.128  15.163  0.2608 -0.7261 -0.1426
 2972TIP3   OH230330   1.130   2.801  10.884 -0.5040 -0.1381 -0.3503
 2972TIP3    H130331   1.103   2.825  10.973 -2.7252  0.0621 -1.0061
 2972TIP3    H230332   1.050   2.808  10.832  0.2434 -2.3363 -1.9721
 2973TIP3   OH230333   1.409   2.963  16.188 -0.8104 -0.3070 -0.3168
 2973TIP3    H130334   1.426   2.878  16.147 -0.1381  0.4905 -1.7829
 2973TIP3    H230335   1.455   2.959  16.272  0.1475 -1.0023 -0.8552
 2974TIP3   OH230336   5.341   5.840  13.541 -0.0047 -0.2131 -0.5698
 2974TIP3    H130337   5.415   5.828  13.482  0.6224 -0.9587  0.3405
 2974TIP3    H230338   5.340   5.934  13.560 -1.1258  0.3215 -2.8847
 2975TIP3   OH230339   0.429   1.162   2.771 -0.2949  0.5736  0.3752
 2975TIP3    H130340   0.359   1.186   2.832  0.6013  0.0425  1.6412
 2975TIP3    H230341   0.446   1.241   2.721 -1.1464  0.9799  0.7083
 2976TIP3   OH230342   5.184   6.365   4.581  0.4124  0.2467 -0.1685
 2976TIP3    H130343   5.198   6.453   4.616  1.7617  0.4509 -1.1441
 2976TIP3    H230344   5.112   6.375   4.519  1.0322  0.8541 -0.8241
 2977TIP3   OH230345   4.022   2.891   0.669  0.4146  0.1908  0.3376
 2977TIP3    H130346   4.094   2.896   0.732  0.0719 -1.7355  0.9261
 2977TIP3    H230347   3.962   2.961   0.696  0.7937  0.0980  1.4807
 2978TIP3   OH230348   1.825   5.715   0.550  0.1262 -0.0801 -0.0488
 2978TIP3    H130349   1.850   5.624   0.562 -2.9638 -1.0639 -0.2016
 2978TIP3    H230350   1.781   5.717   0.466 -0.3844  1.4221  0.2209
 2979TIP3   OH230351   4.674   5.962   5.247 -0.4581  0.3988  0.3672
 2979TIP3    H130352   4.726   5.993   5.321 -0.5359 -0.7187  0.9065
 2979TIP3    H230353   4.723   5.888   5.212 -0.0131  1.3921 -1.2184
 2980TIP3   OH230354   1.068   1.822   3.271  0.1320 -0.0328  0.2000
 2980TIP3    H130355   1.146   1.857   3.227  0.9266 -1.5344  0.3634
 2980TIP3    H230356   1.076   1.727   3.262 -0.8449 -0.2782  1.6615
 2981TIP3   OH230357   0.133   4.263   0.908  0.2649 -0.3854  1.0619
 2981TIP3    H130358   0.171   4.178   0.886 -1.1991 -0.6506 -0.7238
 2981TIP3    H230359   0.039   4.247   0.908 -0.0380  1.2259  0.6966
 2982TIP3   OH230360   3.025   2.709  12.033 -0.7362  0.4841  0.6774
 2982TIP3    H130361   3.073   2.718  11.951 -2.1012 -0.3542 -0.2668
 2982TIP3    H230362   3.087   2.736  12.101  1.0495 -0.5623 -0.4637
 2983TIP3   OH230363   5.989   5.255   6.119  0.1252  0.6156 -0.3632
 2983TIP3    H130364   6.079   5.248   6.087  0.6535 -1.6553  1.3363
 2983TIP3    H230365   5.995   5.310   6.197  0.0809  0.3110 -0.1427
 2984TIP3   OH230366   2.207   0.399   4.277 -0.5876  0.3503 -0.2229
 2984TIP3    H130367   2.237   0.399   4.368 -0.7105  0.9349 -0.1797
 2984TIP3    H230368   2.123   0.445   4.280 -0.4831  0.5685 -0.6688
 2985TIP3   OH230369   1.161   5.906   3.357  0.1647 -0.3000 -0.5000
 2985TIP3    H130370   1.219   5.954   3.299  1.5622  0.8193  1.6863
 2985TIP3    H230371   1.117   5.842   3.300 -0.7680  2.5902 -3.3100
 2986TIP3   OH230372   0.170   3.090   5.603 -0.0750 -0.7529 -0.1077
 2986TIP3    H130373   0.222   3.033   5.660 -0.1645 -1.7994 -1.0247
 2986TIP3    H230374   0.107   3.030   5.561 -3.0023  0.6075  1.9396
 2987TIP3   OH230375   3.823   2.837   2.592  0.1143 -0.2602 -0.0062
 2987TIP3    H130376   3.871   2.781   2.654 -2.6303 -0.4986  2.1280
 2987TIP3    H230377   3.776   2.775   2.535  1.9144 -0.0323 -1.8322
 2988TIP3   OH230378   4.670   4.338  12.655 -0.4727  0.1752  0.1576
 2988TIP3    H130379   4.581   4.302  12.654 -0.5540  0.3761 -0.0198
 2988TIP3    H230380   4.662   4.420  12.705 -0.3084 -0.0060  0.4827
 2989TIP3   OH230381   0.154   4.687   5.324  0.6312  0.2444 -0.3781
 2989TIP3    H130382   0.232   4.650   5.367  0.3437  0.8268  0.6741
 2989TIP3    H230383   0.129   4.621   5.260  1.4297 -0.3832 -0.0674
 2990TIP3   OH230384   0.159   3.233  11.339 -0.2425 -0.1071 -0.3082
 2990TIP3    H130385   0.182   3.155  11.389  2.4148  0.9941  0.3845
 2990TIP3    H230386   0.065   3.245  11.354 -0.5607 -2.6801  0.1723
 2991TIP3   OH230387   6.084   3.125   6.832  0.4221  0.7829 -0.1629
 2991TIP3    H130388   6.163   3.091   6.875  0.7319  0.5334 -0.9241
 2991TIP3    H230389   6.095   3.102   6.740 -1.2050 -0.4974 -0.0745
 2992TIP3   OH230390   4.919   6.453  11.008 -0.3308  0.2076  0.5600
 2992TIP3    H130391   4.999   6.432  10.961 -0.8252 -0.3881 -0.0381
 2992TIP3    H230392   4.927   6.407  11.092 -1.2877 -2.3242 -0.6243
 2993TIP3   OH230393   6.285   1.407  13.073  0.3272  0.2765 -1.0483
 2993TIP3    H130394   6.213   1.357  13.111  0.4092  1.2523  0.4913
 2993TIP3    H230395   6.247   1.446  12.994 -0.1134 -1.1189 -1.5533
 2994TIP3   OH230396   0.834   0.283   2.207  0.5881  0.0873 -0.2978
 2994TIP3    H130397   0.795   0.222   2.269 -0.1827  0.6850 -0.1839
 2994TIP3    H230398   0.761   0.336   2.175  0.9480 -0.2919 -1.8228
 2995TIP3   OH230399   1.281   3.789   4.624  0.1220  0.1475  0.4180
 2995TIP3    H130400   1.294   3.699   4.594  0.4363 -0.1124  1.3078
 2995TIP3    H230401   1.246   3.834   4.547  0.6765 -0.5446 -0.2669
 2996TIP3   OH230402   2.474   3.412   3.107  0.0574  0.2176 -0.3496
 2996TIP3    H130403   2.404   3.395   3.044  0.3969  2.6340 -1.4869
 2996TIP3    H230404   2.444   3.489   3.156  0.3773 -0.8515  1.5999
 2997TIP3   OH230405   4.456   3.791   5.461  0.1450 -0.1151 -0.5217
 2997TIP3    H130406   4.466   3.732   5.536 -0.5641 -0.6018 -0.7918
 2997TIP3    H230407   4.545   3.804   5.428  0.2665 -1.5811 -0.8528
 2998TIP3   OH230408   1.686   6.057  11.844 -0.0630  0.0094 -0.0809
 2998TIP3    H130409   1.727   6.090  11.925 -3.2306  1.0514  1.2785
 2998TIP3    H230410   1.622   5.993  11.874 -1.3474  0.4444 -1.7618
 2999TIP3   OH230411   0.500   4.957   0.691 -0.2935 -0.0081  0.2085
 2999TIP3    H130412   0.503   5.043   0.647 -0.4573 -0.4326 -0.6519
 2999TIP3    H230413   0.526   4.976   0.781 -0.2838  0.9441  0.0205
 3000TIP3   OH230414   5.254   5.389   1.417 -0.0767 -0.3673  0.2551
 3000TIP3    H130415   5.250   5.476   1.377 -0.7904 -0.5369 -0.0488
 3000TIP3    H230416   5.261   5.329   1.342 -0.6127 -0.6367  0.4218
 3001TIP3   OH230417   6.078   5.207   4.441  0.6324 -0.2696 -0.2897
 3001TIP3    H130418   5.995   5.236   4.480  0.8767 -1.3691  1.1023
 3001TIP3    H230419   6.051   5.156   4.365 -0.0493 -1.4611  0.7093
 3002TIP3   OH230420   0.368   2.227   5.390 -0.2842  0.2580 -0.0414
 3002TIP3    H130421   0.337   2.137   5.387  0.1867 -0.0195  1.9187
 3002TIP3    H230422   0.463   2.220   5.383 -0.1469  0.4801  1.4152
 3003TIP3   OH230423   2.835   4.905   0.660  0.3202  0.0629  0.2156
 3003TIP3    H130424   2.799   4.987   0.693  2.1154  0.8277  0.3543
 3003TIP3    H230425   2.776   4.837   0.694  0.6474  1.0212  2.8634
 3004TIP3   OH230426   3.419   2.151   0.203 -0.1453  0.5284 -0.2082
 3004TIP3    H130427   3.405   2.240   0.171  0.8366  0.7938  0.0594
 3004TIP3    H230428   3.428   2.098   0.124 -0.5604  0.6904 -0.3669
 3005TIP3   OH230429   3.776   3.228   5.789  0.0342 -0.0035  0.0543
 3005TIP3    H130430   3.691   3.192   5.764 -0.0111  0.4342 -0.4313
 3005TIP3    H230431   3.822   3.242   5.706  1.0674 -1.3738  0.3522
 3006TIP3   OH230432   5.453   4.197  11.568 -0.3394 -0.1990 -0.2336
 3006TIP3    H130433   5.528   4.145  11.597 -0.9519 -0.8298  0.2754
 3006TIP3    H230434   5.412   4.145  11.499 -1.5140 -0.8926  0.9399
 3007TIP3   OH230435   2.808   4.243   4.193 -0.3936 -0.5512 -0.0983
 3007TIP3    H130436   2.723   4.261   4.234  0.0949 -1.0215  1.1867
 3007TIP3    H230437   2.872   4.268   4.260  0.4108 -2.4841 -0.0991
 3008TIP3   OH230438   4.624   4.950   0.064 -0.2192  0.0006 -0.5759
 3008TIP3    H130439   4.543   4.900   0.069 -0.5813  0.5049 -1.3676
 3008TIP3    H230440   4.675   4.920   0.140 -1.5462  0.4047  0.4924
 3009TIP3   OH230441   0.241   2.708   4.796  0.3065 -0.7229  0.0076
 3009TIP3    H130442   0.211   2.655   4.869  0.2484  0.5931  0.9574
 3009TIP3    H230443   0.195   2.791   4.804 -0.6698 -0.9651 -2.2656
 3010TIP3   OH230444   2.989   0.286   6.244 -0.4162 -0.1622  0.9983
 3010TIP3    H130445   2.943   0.220   6.297 -0.2069 -0.6906  0.5340
 3010TIP3    H230446   3.078   0.251   6.234 -0.4026  0.0141  0.4516
 3011TIP3   OH230447   3.196   6.076  12.608 -0.0817  0.6326  0.0051
 3011TIP3    H130448   3.130   6.144  12.598  1.6372  2.1707 -1.7777
 3011TIP3    H230449   3.173   6.010  12.543 -1.0568  0.0593  0.8987
 3012TIP3   OH230450   2.337   1.537  14.589  0.3958 -0.1486  0.0543
 3012TIP3    H130451   2.357   1.546  14.683  1.8317  1.1527 -0.3325
 3012TIP3    H230452   2.422   1.524  14.548 -0.0742  0.6087 -1.1998
 3013TIP3   OH230453   0.726   2.980   4.807 -0.5093 -0.0104  0.0894
 3013TIP3    H130454   0.643   2.937   4.787 -1.2480  1.3233  0.2332
 3013TIP3    H230455   0.763   2.928   4.879 -1.6127 -0.1110  0.5927
 3014TIP3   OH230456   4.036   4.218   0.465  0.1306  0.6744 -0.1939
 3014TIP3    H130457   4.020   4.195   0.557 -0.0988 -0.1756 -0.4373
 3014TIP3    H230458   4.008   4.309   0.458 -1.5377  0.2209  0.1705
 3015TIP3   OH230459   3.632   1.815   3.370 -0.2632 -0.0629  0.1552
 3015TIP3    H130460   3.654   1.863   3.450  0.5491  0.7793 -0.5480
 3015TIP3    H230461   3.679   1.862   3.301 -2.3429  0.3003 -1.0898
 3016TIP3   OH230462   6.664   2.658  12.972  0.4113 -0.1151  0.0158
 3016TIP3    H130463   6.735   2.595  12.980  0.7077  0.0451 -1.1018
 3016TIP3    H230464   6.616   2.652  13.055  0.4257 -1.7998 -0.0663
 3017TIP3   OH230465   6.037   2.471   2.186  0.3674 -0.7197 -0.0022
 3017TIP3    H130466   6.070   2.458   2.097  1.2540  4.8577 -0.8665
 3017TIP3    H230467   5.946   2.498   2.173  0.7713  1.0432  0.5812
 3018TIP3   OH230468   1.851   2.501  11.563 -0.4000  0.6496  0.0769
 3018TIP3    H130469   1.941   2.475  11.541 -1.0322 -0.6668 -1.1646
 3018TIP3    H230470   1.859   2.547  11.646  1.4623  0.8694 -0.1742
 3019TIP3   OH230471   1.566   6.359  14.451 -0.2015 -0.1485  0.7038
 3019TIP3    H130472   1.588   6.273  14.489  0.4904  0.0789  0.8344
 3019TIP3    H230473   1.483   6.383  14.492  0.1006 -0.3074  1.4211
 3020TIP3   OH230474   5.776   3.707  15.266  0.4870  0.8009 -0.2784
 3020TIP3    H130475   5.776   3.781  15.326  0.1474  1.5830 -1.2030
 3020TIP3    H230476   5.753   3.746  15.181 -0.3916 -0.4779 -0.6517
 3021TIP3   OH230477   1.641   0.446  12.919 -0.1021 -0.2227 -0.0317
 3021TIP3    H130478   1.627   0.520  12.977 -1.3275 -1.2740  1.0791
 3021TIP3    H230479   1.557   0.431  12.877  0.6523  0.2569 -1.8334
 3022TIP3   OH230480   4.403   1.861   4.771  0.8174  0.0457  0.2196
 3022TIP3    H130481   4.472   1.849   4.836  0.4223 -0.6988  0.5048
 3022TIP3    H230482   4.340   1.791   4.788 -0.2510  0.9855  0.2674
 3023TIP3   OH230483   1.908   4.000   0.253  0.0789  0.2767 -0.7597
 3023TIP3    H130484   1.889   3.914   0.216 -1.4605 -0.5193  1.6900
 3023TIP3    H230485   1.822   4.042   0.261  0.3877  0.6339  1.2281
 3024TIP3   OH230486   3.057   5.495  12.738  0.7347 -0.3572 -0.2160
 3024TIP3    H130487   3.097   5.501  12.651  0.3470 -0.0771 -0.3729
 3024TIP3    H230488   2.977   5.445  12.725  0.6910 -0.3439 -0.0106
 3025TIP3   OH230489   5.914   4.503  16.141  0.4472 -0.5916 -0.5382
 3025TIP3    H130490   6.009   4.486  16.139  0.6015 -0.1448  1.2598
 3025TIP3    H230491   5.884   4.482  16.053  2.1272 -1.3264 -0.9720
 3026TIP3   OH230492   2.375   0.356   2.666 -0.1001  0.3253 -0.1226
 3026TIP3    H130493   2.460   0.326   2.699  1.0163  2.2934 -1.0263
 3026TIP3    H230494   2.333   0.397   2.742 -0.1558 -0.4362  0.2677
 3027TIP3   OH230495   2.122   4.017   5.419 -0.1599 -0.6547 -0.0901
 3027TIP3    H130496   2.037   4.036   5.459  0.5695  0.3779  1.0776
 3027TIP3    H230497   2.123   4.069   5.339 -0.4776 -0.3431  0.1045
 3028TIP3   OH230498   5.905   4.769   0.070 -0.2335 -0.1115  0.3027
 3028TIP3    H130499   5.912   4.752   0.164  2.7745 -0.1978  0.1580
 3028TIP3    H230500   5.923   4.685   0.028 -1.0602  0.0390 -0.3989
 3029TIP3   OH230501   4.431   5.843  11.450 -0.2643  0.3113  0.3618
 3029TIP3    H130502   4.386   5.760  11.432  0.5508 -0.3833  1.3632
 3029TIP3    H230503   4.493   5.852  11.377 -2.7370  1.8949 -1.6950
 3030TIP3   OH230504   3.156   6.209   4.782  0.0001  0.0474 -0.1145
 3030TIP3    H130505   3.128   6.288   4.828 -1.1424  0.1099 -0.8961
 3030TIP3    H230506   3.248   6.226   4.759 -0.0480  0.8810  0.2766
 3031TIP3   OH230507   6.285   1.260  16.251 -0.4250 -0.6248  0.7815
 3031TIP3    H130508   6.380   1.257  16.266 -0.4554  1.3996  1.6935
 3031TIP3    H230509   6.264   1.354  16.247 -1.9013 -0.9218 -2.8582
 3032TIP3   OH230510   6.046   3.149   2.985  0.3859 -0.1231  0.1302
 3032TIP3    H130511   6.110   3.111   3.046 -1.7873 -1.4262  1.7516
 3032TIP3    H230512   6.044   3.242   3.008  0.7494 -0.3045  0.9344
 3033TIP3   OH230513   5.009   1.803  12.655 -0.1534  0.0044 -0.1387
 3033TIP3    H130514   5.088   1.753  12.634 -1.0783 -0.5624 -2.7170
 3033TIP3    H230515   5.018   1.883  12.602  0.2071  1.5699  2.1501
 3034TIP3   OH230516   3.491   4.229   0.229  0.0886 -0.0043  0.3104
 3034TIP3    H130517   3.517   4.138   0.214  1.5511  0.5464 -0.6908
 3034TIP3    H230518   3.522   4.276   0.151 -0.5018  1.3789  0.8821
 3035TIP3   OH230519   2.465   0.589   4.705  0.0502  0.3123 -0.3682
 3035TIP3    H130520   2.515   0.622   4.780 -1.6277 -1.0477  1.4591
 3035TIP3    H230521   2.380   0.631   4.714  0.1544  0.9934 -2.2226
 3036TIP3   OH230522   2.993   2.831  11.139 -0.1932  0.0373 -0.2573
 3036TIP3    H130523   2.956   2.914  11.170 -1.9348 -1.5165  2.2195
 3036TIP3    H230524   2.933   2.800  11.072  0.7349  0.9521 -1.5542
 3037TIP3   OH230525   3.617   3.752   6.937 -0.3114  0.5345 -0.5572
 3037TIP3    H130526   3.555   3.698   6.888  1.0614 -1.7795  0.1115
 3037TIP3    H230527   3.697   3.751   6.885  0.3641  0.1667  0.4341
 3038TIP3   OH230528   4.723   0.124   4.157 -0.1194  0.0617 -0.2616
 3038TIP3    H130529   4.703   0.213   4.184  0.2365  0.6728 -1.9153
 3038TIP3    H230530   4.698   0.070   4.232 -1.7053  1.3929  0.2229
 3039TIP3   OH230531   0.548   6.626  14.740  0.0220  0.2970 -0.4297
 3039TIP3    H130532   0.453   6.618  14.725  0.0982 -1.4905 -0.1675
 3039TIP3    H230533   0.558   6.708  14.788 -1.4956  0.0898  0.2944
 3040TIP3   OH230534   3.762   0.328  13.972  0.1751  0.1956  0.0437
 3040TIP3    H130535   3.759   0.341  13.877 -1.3392 -0.1646  0.0118
 3040TIP3    H230536   3.805   0.243  13.983 -0.3263 -0.1143 -0.3636
 3041TIP3   OH230537   3.630   4.813   1.857 -0.3366 -0.5260  0.0413
 3041TIP3    H130538   3.683   4.735   1.842 -1.7661 -1.4781 -0.2510
 3041TIP3    H230539   3.565   4.812   1.787 -1.0088  0.3710  0.6278
 3042TIP3   OH230540   5.265   2.316  12.725  0.5869  0.4393 -0.2652
 3042TIP3    H130541   5.335   2.356  12.776  0.9312  0.4293 -0.7251
 3042TIP3    H230542   5.293   2.226  12.711  0.0321  0.1521  0.3622
 3043TIP3   OH230543   1.373   1.990   5.666 -0.0290  0.2291  0.3256
 3043TIP3    H130544   1.286   1.990   5.626  0.6420 -2.0359 -1.3083
 3043TIP3    H230545   1.388   1.899   5.692  1.3234  0.8436  1.8874
 3044TIP3   OH230546   0.626   0.310  11.915  0.2597 -0.2926  0.3158
 3044TIP3    H130547   0.721   0.316  11.902  0.2149 -0.6254 -0.1835
 3044TIP3    H230548   0.593   0.269  11.835 -0.2566 -0.5743  0.6656
 3045TIP3   OH230549   4.023   0.096   1.857 -0.2071  0.2009  0.1394
 3045TIP3    H130550   4.037   0.175   1.805  0.0322  0.1419  0.1113
 3045TIP3    H230551   4.111   0.065   1.878 -0.2533 -0.9490 -1.1928
 3046TIP3   OH230552   6.308   4.854   3.759  0.0300  0.4343  1.1376
 3046TIP3    H130553   6.229   4.898   3.727  0.0086  2.6140  3.8052
 3046TIP3    H230554   6.342   4.912   3.827  4.4392  0.0065 -0.3840
 3047TIP3   OH230555   1.239   3.899   3.346 -0.0558 -0.2422  0.1762
 3047TIP3    H130556   1.206   3.935   3.428 -1.1618 -0.1976 -0.2704
 3047TIP3    H230557   1.173   3.833   3.321 -0.0385  0.1630 -0.9671
 3048TIP3   OH230558   1.013   6.599  14.261 -0.1921 -0.1253 -0.4078
 3048TIP3    H130559   0.918   6.587  14.261 -0.2598 -0.8178  3.4713
 3048TIP3    H230560   1.048   6.512  14.243 -0.4327 -0.7244  1.7121
 3049TIP3   OH230561   5.853   1.753  16.706 -0.0578 -0.3306  0.5555
 3049TIP3    H130562   5.892   1.671  16.737  2.2494  0.4434 -0.0422
 3049TIP3    H230563   5.916   1.786  16.641  0.9855  3.5887  3.1868
 3050TIP3   OH230564   1.610   6.072   4.450  0.0458  0.5483  0.4119
 3050TIP3    H130565   1.611   6.084   4.355 -0.9553 -0.9498  0.1857
 3050TIP3    H230566   1.571   5.985   4.463 -0.3562  0.9644  2.2141
 3051TIP3   OH230567   3.693   2.921  15.206 -0.4647  0.1072  0.1552
 3051TIP3    H130568   3.770   2.955  15.161 -1.4180  0.1193 -1.5142
 3051TIP3    H230569   3.694   2.966  15.291  0.9552  0.6380 -0.1073
 3052TIP3   OH230570   5.688   3.788   4.582  1.0039  0.4201 -0.0050
 3052TIP3    H130571   5.728   3.875   4.584  2.1707 -0.0959  0.4893
 3052TIP3    H230572   5.627   3.791   4.509  1.2193  1.5645 -0.1625
 3053TIP3   OH230573   4.328   4.410   4.031 -0.7119 -0.0697 -0.3011
 3053TIP3    H130574   4.280   4.487   4.063  0.9955  0.4130  1.3713
 3053TIP3    H230575   4.399   4.447   3.979 -1.0413 -0.6513 -1.1752
 3054TIP3   OH230576   3.651   3.588  10.987 -0.4048 -0.2520 -0.0303
 3054TIP3    H130577   3.634   3.617  10.897  1.8390 -0.3709 -0.5628
 3054TIP3    H230578   3.633   3.494  10.986  1.0709 -0.5750 -0.8471
 3055TIP3   OH230579   4.733   3.938   4.596  0.3775 -0.4491 -0.1115
 3055TIP3    H130580   4.801   4.005   4.599 -0.3322  0.2494  0.7432
 3055TIP3    H230581   4.742   3.891   4.679 -1.0351  0.5241  0.6186
 3056TIP3   OH230582   5.387   1.677   1.879 -0.2224 -0.5277  0.6829
 3056TIP3    H130583   5.423   1.619   1.812  2.0370  0.5693  0.8690
 3056TIP3    H230584   5.293   1.679   1.860  0.1557 -1.3185 -1.5993
 3057TIP3   OH230585   5.434   0.644  16.809  0.3540  0.8449 -0.5042
 3057TIP3    H130586   5.431   0.680  16.720  1.1869 -1.0017 -1.3380
 3057TIP3    H230587   5.352   0.595  16.817 -0.1068  1.6801  0.0878
 3058TIP3   OH230588   4.125   1.084   0.630 -0.0344 -0.5841 -0.4049
 3058TIP3    H130589   4.042   1.046   0.657 -2.0337  2.2630 -1.9740
 3058TIP3    H230590   4.109   1.116   0.541  2.5045  0.7859 -0.4710
 3059TIP3   OH230591   2.939   3.508   2.593  0.9784 -0.4603 -0.3135
 3059TIP3    H130592   2.927   3.415   2.613 -0.1932 -0.4626 -0.9595
 3059TIP3    H230593   2.919   3.553   2.675  1.2357 -0.7501 -0.0871
 3060TIP3   OH230594   2.966   2.510  14.605  0.3485  0.2170 -0.3038
 3060TIP3    H130595   2.927   2.461  14.677  2.8209  1.2391  1.8789
 3060TIP3    H230596   3.057   2.524  14.631  1.1755  1.2929 -3.3210
 3061TIP3   OH230597   3.217   1.767   3.734  0.3687 -0.0211  0.3880
 3061TIP3    H130598   3.166   1.701   3.781 -0.0971 -0.1318 -0.2626
 3061TIP3    H230599   3.303   1.765   3.776 -0.3386  0.6436  1.9637
 3062TIP3   OH230600   4.125   4.205  13.421 -0.0708 -0.3704 -0.0688
 3062TIP3    H130601   4.116   4.144  13.495 -1.5327 -0.1973 -0.0724
 3062TIP3    H230602   4.058   4.177  13.359  0.5280  0.0621 -0.9297
 3063TIP3   OH230603   2.708   4.107   0.944 -0.0610 -0.7719  0.1500
 3063TIP3    H130604   2.739   4.079   0.858  0.1571  1.9706 -0.7425
 3063TIP3    H230605   2.761   4.056   1.006  0.6930 -1.8442 -1.3195
 3064TIP3   OH230606   1.250   3.415  12.722  0.1182 -0.0278 -0.1824
 3064TIP3    H130607   1.188   3.383  12.787  0.6509 -0.2986  0.2004
 3064TIP3    H230608   1.204   3.486  12.678 -0.6938 -0.6361 -0.3352
 3065TIP3   OH230609   6.660   2.871  14.815 -0.4022  0.4442  0.2363
 3065TIP3    H130610   6.709   2.807  14.867  0.0820  0.2236 -0.4654
 3065TIP3    H230611   6.661   2.835  14.726 -2.7076 -0.0663  0.3561
 3066TIP3   OH230612   4.462   0.197  11.534 -0.1225 -0.0218 -0.9407
 3066TIP3    H130613   4.528   0.131  11.557  0.3676  0.8535  0.2707
 3066TIP3    H230614   4.392   0.147  11.493 -0.0619 -1.4160  0.5491
 3067TIP3   OH230615   2.617   2.721  11.739 -0.2597 -0.3379  0.0922
 3067TIP3    H130616   2.706   2.726  11.704  0.1104 -0.9921  0.8903
 3067TIP3    H230617   2.623   2.761  11.826 -0.6427 -0.7388  0.3103
 3068TIP3   OH230618   5.101   6.632  13.967  0.0768 -0.9188 -0.0446
 3068TIP3    H130619   5.077   6.579  14.043  1.5150 -2.4333 -0.5960
 3068TIP3    H230620   5.194   6.649  13.978  0.7402 -2.6559 -2.2897
 3069TIP3   OH230621   0.196   6.576  11.991 -0.1988 -0.0140 -0.0285
 3069TIP3    H130622   0.249   6.647  12.026 -1.9026  0.7978  1.0558
 3069TIP3    H230623   0.109   6.589  12.031 -0.5700 -2.7140  0.2573
 3070TIP3   OH230624   4.018   5.942  13.349  0.3845 -0.0332  0.4714
 3070TIP3    H130625   4.082   5.933  13.421  0.1108 -0.6251  0.6519
 3070TIP3    H230626   4.024   6.033  13.323  1.4816 -0.1284  0.3259
 3071TIP3   OH230627   4.007   1.658  13.484  0.4289  0.3042  0.3993
 3071TIP3    H130628   3.998   1.696  13.571  0.3499  1.5284 -0.1269
 3071TIP3    H230629   3.939   1.591  13.480  0.5352  0.1269  1.3201
 3072TIP3   OH230630   1.467   0.839   0.781  0.3092  0.3550 -0.1863
 3072TIP3    H130631   1.539   0.880   0.829  2.5254  0.8505 -3.5858
 3072TIP3    H230632   1.498   0.751   0.761 -1.7837 -0.8916  1.5928
 3073TIP3   OH230633   3.156   4.238   0.862  0.2471 -0.0663 -0.3930
 3073TIP3    H130634   3.106   4.310   0.825 -0.3057 -0.7598 -1.0405
 3073TIP3    H230635   3.241   4.243   0.819  0.7477  1.1159  0.7074
 3074TIP3   OH230636   3.844   5.386  12.856 -0.3034 -0.3416 -0.0977
 3074TIP3    H130637   3.909   5.448  12.822 -1.5020  0.3163 -1.2946
 3074TIP3    H230638   3.809   5.429  12.934 -1.3898  0.7411 -1.1199
 3075TIP3   OH230639   1.047   2.826   2.416 -0.0010  0.7207 -0.2032
 3075TIP3    H130640   0.960   2.814   2.454  1.2110 -0.3371  2.4259
 3075TIP3    H230641   1.051   2.920   2.396 -1.4003  0.9594  0.5104
 3076TIP3   OH230642   5.393   4.462  15.673 -0.0428 -0.1949 -0.2653
 3076TIP3    H130643   5.376   4.501  15.587 -1.6107 -1.2014 -0.4338
 3076TIP3    H230644   5.487   4.443  15.672 -0.1973 -1.0596 -2.1393
 3077TIP3   OH230645   6.404   5.599   4.871 -0.2872  0.0879 -0.1756
 3077TIP3    H130646   6.345   5.638   4.935  1.2261  0.2916  1.1530
 3077TIP3    H230647   6.383   5.643   4.788 -0.8473  1.3438  0.6134
 3078TIP3   OH230648   1.951   2.249   3.763 -0.1107  0.4135 -0.0763
 3078TIP3    H130649   1.983   2.246   3.673 -1.2830 -0.6911 -0.4868
 3078TIP3    H230650   1.876   2.189   3.764  0.5213 -0.4236  1.9044
 3079TIP3   OH230651   4.255   2.546   4.170 -0.2472  0.2326  0.0652
 3079TIP3    H130652   4.295   2.593   4.097 -2.1121  1.5277 -0.1840
 3079TIP3    H230653   4.186   2.605   4.201 -0.3667 -0.8661  2.0229
 3080TIP3   OH230654   2.710   6.242  16.514 -0.1677 -0.0142  0.2712
 3080TIP3    H130655   2.678   6.209  16.598 -1.4213  0.0552 -0.1513
 3080TIP3    H230656   2.733   6.163  16.465 -0.8585 -0.1525  0.1524
 3081TIP3   OH230657   5.230   0.964   0.071  0.5596 -0.5755  0.2012
 3081TIP3    H130658   5.198   1.048   0.105 -2.4231 -2.2926  2.1030
 3081TIP3    H230659   5.288   0.931   0.139  0.1728 -0.8757  0.3940
 3082TIP3   OH230660   3.320   2.969   1.837  0.2056  0.8146  0.1646
 3082TIP3    H130661   3.414   2.950   1.835 -0.3887 -2.7258  0.2809
 3082TIP3    H230662   3.299   2.993   1.747  0.7274 -1.6427 -0.6846
 3083TIP3   OH230663   4.720   4.084   3.622 -0.4409  0.0811 -0.0327
 3083TIP3    H130664   4.734   4.100   3.529 -0.8707 -0.9430 -0.2810
 3083TIP3    H230665   4.625   4.084   3.633 -0.3993 -0.1006  0.3566
 3084TIP3   OH230666   4.963   0.491   1.453  0.5631  0.3790  0.4287
 3084TIP3    H130667   4.947   0.418   1.512 -1.4216  1.5154  1.3793
 3084TIP3    H230668   4.895   0.484   1.386  0.7931  0.9488  0.1273
 3085TIP3   OH230669   4.207   3.786  11.135 -0.1330  0.1418  0.6667
 3085TIP3    H130670   4.222   3.813  11.045  0.5005  1.9923  1.2757
 3085TIP3    H230671   4.294   3.764  11.168 -0.2317  0.3804  1.0946
 3086TIP3   OH230672   3.582   6.377  14.617  0.6397 -0.3622  0.2931
 3086TIP3    H130673   3.590   6.322  14.540  1.1815 -1.5223  1.1524
 3086TIP3    H230674   3.634   6.334  14.684  0.8818  1.0664  1.0828
 3087TIP3   OH230675   5.362   5.876  10.964 -0.0956  0.1650  0.7996
 3087TIP3    H130676   5.322   5.891  10.878 -1.6005 -2.8967  0.8496
 3087TIP3    H230677   5.300   5.913  11.026 -0.4515 -0.2005  0.6673
 3088TIP3   OH230678   2.913   1.614  14.458  0.8903  0.5857 -0.2038
 3088TIP3    H130679   2.987   1.649  14.408  0.1436  1.0788 -0.9733
 3088TIP3    H230680   2.949   1.601  14.546  1.5176  2.2471 -0.1638
 3089TIP3   OH230681   0.308   4.763   0.645 -0.9713  0.0282  0.1203
 3089TIP3    H130682   0.237   4.809   0.689  0.2185  1.4335  0.6505
 3089TIP3    H230683   0.388   4.809   0.672  0.1607 -1.4954 -0.4457
 3090TIP3   OH230684   0.668   2.893  11.902  0.3958 -0.0449  0.8131
 3090TIP3    H130685   0.662   2.819  11.962  0.3078 -0.9555 -0.2801
 3090TIP3    H230686   0.578   2.910  11.876  0.4306  0.3612  0.9478
 3091TIP3   OH230687   1.127   3.089   4.503 -0.1220  0.0300  0.3512
 3091TIP3    H130688   1.193   3.049   4.560  0.3847  2.4941  1.6185
 3091TIP3    H230689   1.045   3.046   4.528  0.5408 -1.0206  0.8050
 3092TIP3   OH230690   3.358   4.373   1.048 -0.0632 -0.3014 -0.6235
 3092TIP3    H130691   3.369   4.316   0.972 -0.1264 -0.6526 -0.3698
 3092TIP3    H230692   3.303   4.445   1.016 -0.1505 -0.4852 -0.8921
 3093TIP3   OH230693   0.777   4.164  15.901  0.4955  0.2662 -0.1558
 3093TIP3    H130694   0.807   4.248  15.866 -1.9712  0.8682 -1.0354
 3093TIP3    H230695   0.689   4.154  15.865  1.1114 -3.2633 -1.0226
 3094TIP3   OH230696   5.307   6.498  16.950 -0.2032 -0.1766 -0.2886
 3094TIP3    H130697   5.355   6.439  16.893 -2.2758 -1.6682 -0.6165
 3094TIP3    H230698   5.277   6.568  16.892  1.8620  1.0196  0.0086
 3095TIP3   OH230699   4.837   5.819  14.948  0.4454  0.2439 -0.3915
 3095TIP3    H130700   4.823   5.731  14.984  1.1916  0.5830  0.8049
 3095TIP3    H230701   4.872   5.869  15.022 -1.0921  1.8767 -0.7223
 3096TIP3   OH230702   4.835   1.170   2.339 -0.3130 -0.5381 -0.0974
 3096TIP3    H130703   4.779   1.198   2.411 -0.8766 -0.4574 -0.5575
 3096TIP3    H230704   4.780   1.111   2.287  0.4211 -1.4337  0.1066
 3097TIP3   OH230705   0.849   4.402  13.917  0.3403 -0.1081  0.4609
 3097TIP3    H130706   0.803   4.451  13.849 -0.4220 -0.3918  0.7545
 3097TIP3    H230707   0.941   4.403  13.891  0.2899  1.1717  0.2793
 3098TIP3   OH230708   5.186   6.674  11.665 -0.8366  0.7983  0.5584
 3098TIP3    H130709   5.105   6.711  11.631 -1.3254  0.4044  1.2813
 3098TIP3    H230710   5.175   6.579  11.654  0.1064  0.8016 -0.6194
 3099TIP3   OH230711   4.961   5.531   1.223 -0.3757  0.0621  0.0243
 3099TIP3    H130712   4.983   5.442   1.251 -0.7027  0.0219  0.1581
 3099TIP3    H230713   4.929   5.574   1.302 -0.5519  0.1912 -0.1152
 3100TIP3   OH230714   2.312   4.637  15.124  0.4187 -0.4296  0.2628
 3100TIP3    H130715   2.246   4.599  15.182  0.3366 -1.2509 -0.3566
 3100TIP3    H230716   2.339   4.565  15.068  0.7020  0.2823 -0.5380
 3101TIP3   OH230717   4.331   1.421   2.320 -0.2392  0.4099  0.6648
 3101TIP3    H130718   4.346   1.513   2.298 -2.0713  0.8026  0.8575
 3101TIP3    H230719   4.277   1.424   2.399 -2.1664 -0.7555 -0.5256
 3102TIP3   OH230720   3.001   3.288  12.720  0.0905 -0.2952 -0.2481
 3102TIP3    H130721   3.047   3.208  12.746  0.6023 -0.5413 -1.8116
 3102TIP3    H230722   3.041   3.357  12.772  0.6990 -0.8352  0.0083
 3103TIP3   OH230723   3.303   5.777  15.733  0.1720  0.6269 -0.0977
 3103TIP3    H130724   3.379   5.812  15.779  0.8097 -2.5649  1.5555
 3103TIP3    H230725   3.338   5.746  15.649 -0.2399  2.9376 -1.2052
 3104TIP3   OH230726   2.553   3.182  14.298  0.2325 -0.6422  0.5334
 3104TIP3    H130727   2.567   3.095  14.335  0.0268 -1.3002 -0.8711
 3104TIP3    H230728   2.624   3.192  14.234 -0.0314  0.0308  0.3350
 3105TIP3   OH230729   5.445   2.121   4.002  0.2021  0.3068  0.5036
 3105TIP3    H130730   5.460   2.197   4.058  1.6888  0.8948 -0.6420
 3105TIP3    H230731   5.410   2.158   3.921 -3.0165 -0.6184  1.3129
 3106TIP3   OH230732   1.968   4.237   4.619  0.5717 -0.3064 -0.4684
 3106TIP3    H130733   2.041   4.278   4.665  0.8257  0.0376 -1.1701
 3106TIP3    H230734   1.893   4.293   4.641  0.4362 -0.8484  0.5231
 3107TIP3   OH230735   0.289   2.536  12.086 -0.9389  0.0088  0.1630
 3107TIP3    H130736   0.225   2.551  12.156 -0.9219  0.8492  0.0141
 3107TIP3    H230737   0.372   2.525  12.132 -0.9481  0.4385  0.2950
 3108TIP3   OH230738   2.316   5.972  16.837 -0.4421 -0.1699  0.6276
 3108TIP3    H130739   2.280   5.900  16.889  0.5585  0.2442  1.9481
 3108TIP3    H230740   2.344   6.037  16.901 -0.6701  1.1053 -0.5074
 3109TIP3   OH230741   5.248   0.821  13.634  0.2483  0.2065  0.5535
 3109TIP3    H130742   5.273   0.741  13.589  0.2220  0.9310 -0.8038
 3109TIP3    H230743   5.164   0.845  13.597 -0.3810  0.1835  1.8898
 3110TIP3   OH230744   3.829   6.438   3.585  0.2208  0.3230  0.7479
 3110TIP3    H130745   3.854   6.488   3.662  2.0183 -1.2371  1.2751
 3110TIP3    H230746   3.741   6.467   3.564  0.8769  3.0935  1.4545
 3111TIP3   OH230747   2.414   2.017   0.729 -0.0449  0.4156 -0.3753
 3111TIP3    H130748   2.473   2.006   0.655  0.9415  0.8825  0.3113
 3111TIP3    H230749   2.467   1.995   0.806 -0.9545  0.2208  0.2232
 3112TIP3   OH230750   6.217   2.353  14.303  0.6148 -0.2646  0.2015
 3112TIP3    H130751   6.257   2.273  14.338  0.4507  0.4157  2.0725
 3112TIP3    H230752   6.222   2.343  14.208 -0.1359 -2.8559  0.3603
 3113TIP3   OH230753   0.596   4.915  11.774 -0.0770 -0.4656 -0.2519
 3113TIP3    H130754   0.576   4.870  11.692  1.0830 -0.0934 -0.7613
 3113TIP3    H230755   0.537   4.990  11.775  1.3129  0.7474 -1.8324
 3114TIP3   OH230756   2.401   1.384  11.312 -0.6035  0.4927  0.5567
 3114TIP3    H130757   2.316   1.395  11.356 -0.8426  2.4192 -0.2945
 3114TIP3    H230758   2.464   1.421  11.373 -0.4651 -0.1566  0.8173
 3115TIP3   OH230759   3.668   2.311  14.034  0.0565 -0.0085 -0.0015
 3115TIP3    H130760   3.687   2.389  13.983  3.2489 -2.7083 -3.4817
 3115TIP3    H230761   3.750   2.289  14.077 -0.2044 -2.3773 -0.5830
 3116TIP3   OH230762   1.449   4.364   0.030  0.5275 -0.1754  0.1084
 3116TIP3    H130763   1.526   4.318  -0.004 -0.1235 -0.8737 -0.4722
 3116TIP3    H230764   1.480   4.411   0.107  1.2797 -1.3590  0.5417
 3117TIP3   OH230765   5.665   4.441  16.164 -0.5101  0.1056  0.0980
 3117TIP3    H130766   5.641   4.354  16.132 -0.3485  0.3725 -0.7773
 3117TIP3    H230767   5.757   4.450  16.141 -0.9724  1.1982 -1.4397
 3118TIP3   OH230768   2.028   1.270  13.477 -0.0970  0.0980  0.6459
 3118TIP3    H130769   2.115   1.229  13.476  0.8295  1.8222 -2.3975
 3118TIP3    H230770   2.043   1.358  13.443 -2.8801  0.9105  1.2951
 3119TIP3   OH230771   4.397   6.555   0.735  0.1456 -0.2278  0.1071
 3119TIP3    H130772   4.414   6.512   0.651  0.1226  2.1674 -1.1996
 3119TIP3    H230773   4.301   6.560   0.740  0.1085 -1.3184  0.8271
 3120TIP3   OH230774   4.996   5.556   4.852 -0.3609  0.3389  0.4318
 3120TIP3    H130775   5.077   5.582   4.809 -0.5364  2.4111  1.2280
 3120TIP3    H230776   4.929   5.563   4.784 -0.2633  1.2844  0.4126
 3121TIP3   OH230777   3.344   5.004  12.069 -0.0549  0.0343 -0.7013
 3121TIP3    H130778   3.417   4.949  12.098  0.3077 -0.4608 -2.4027
 3121TIP3    H230779   3.308   4.957  11.993 -1.0675  1.1237 -0.9195
 3122TIP3   OH230780   6.694   4.864  16.318  0.1937 -0.1762  0.9569
 3122TIP3    H130781   6.657   4.850  16.405 -0.5859 -0.5509  0.5708
 3122TIP3    H230782   6.619   4.865  16.259  0.7187 -0.0264  0.2676
 3123TIP3   OH230783   5.032   2.356   6.184 -0.1503 -0.0565 -0.0225
 3123TIP3    H130784   5.097   2.302   6.230  0.2167 -0.8064 -1.3800
 3123TIP3    H230785   4.961   2.295   6.162  0.6105 -0.2259 -2.2535
 3124TIP3   OH230786   5.747   4.915  11.426  0.0941 -0.1256  0.2714
 3124TIP3    H130787   5.661   4.895  11.388  0.7002 -2.2349 -0.1469
 3124TIP3    H230788   5.805   4.923  11.351  0.2934  1.2238  0.5582
 3125TIP3   OH230789   1.634   4.917  12.531  0.6797  0.1792  0.0118
 3125TIP3    H130790   1.645   4.974  12.607 -1.9225  1.5381 -0.4811
 3125TIP3    H230791   1.689   4.956  12.463  1.3485  0.2370  0.5807
 3126TIP3   OH230792   1.057   0.538  11.397 -0.0115  0.0316 -0.1709
 3126TIP3    H130793   1.099   0.604  11.452  0.5164 -0.8733  0.5469
 3126TIP3    H230794   1.117   0.464  11.398 -0.1233 -0.1210 -1.7671
 3127TIP3   OH230795   0.594   5.822  14.421  0.8892  0.0566  0.2882
 3127TIP3    H130796   0.630   5.826  14.510 -2.5851  2.3146  1.7887
 3127TIP3    H230797   0.527   5.754  14.425 -0.7330  1.5676  0.1006
 3128TIP3   OH230798   3.179   0.669  15.224  0.0664 -0.2013  0.7819
 3128TIP3    H130799   3.128   0.740  15.261 -1.5362 -1.0112  0.2163
 3128TIP3    H230800   3.114   0.606  15.193  1.4136 -1.3400  0.1443
 3129TIP3   OH230801   6.565   4.667  11.531 -0.5087  0.1728  0.4435
 3129TIP3    H130802   6.574   4.601  11.600  0.3115  0.5819  0.7416
 3129TIP3    H230803   6.534   4.619  11.455  1.4439 -0.8275  0.2352
 3130TIP3   OH230804   1.828   5.737  12.580 -0.3293 -0.7233 -0.1943
 3130TIP3    H130805   1.874   5.814  12.615  3.5858 -2.6064 -0.6822
 3130TIP3    H230806   1.754   5.725  12.639  0.0853  2.1909  1.1049
 3131TIP3   OH230807   0.755   5.064  16.020 -0.4545  1.0611 -0.1109
 3131TIP3    H130808   0.773   5.122  15.945  0.9887  1.3100  0.3962
 3131TIP3    H230809   0.666   5.086  16.047 -0.8330  1.2875 -1.4657
 3132TIP3   OH230810   4.976   0.201  13.133  0.0249 -0.1571  0.0103
 3132TIP3    H130811   5.071   0.208  13.138  0.1165 -0.7401 -0.7346
 3132TIP3    H230812   4.945   0.291  13.136  0.8164  0.3764 -3.3586
 3133TIP3   OH230813   1.031   6.573  12.598 -0.0803  0.1989  0.3602
 3133TIP3    H130814   1.091   6.573  12.524 -1.0163  1.8153 -0.4801
 3133TIP3    H230815   0.944   6.581  12.558 -0.4847  4.6142  1.5164
 3134TIP3   OH230816   6.191   4.717  13.083  0.5225  0.9311 -0.1072
 3134TIP3    H130817   6.213   4.635  13.128  2.0862  0.5484 -1.4599
 3134TIP3    H230818   6.111   4.697  13.035  0.7275  0.2703 -0.1910
 3135TIP3   OH230819   4.014   6.546   2.085 -0.3192  0.5983 -0.1153
 3135TIP3    H130820   4.031   6.594   2.004  1.4722  0.6408  0.2617
 3135TIP3    H230821   3.918   6.545   2.092 -0.4542  3.0938 -0.7395
 3136TIP3   OH230822   6.119   4.609   2.285 -0.3814 -1.0656 -0.1232
 3136TIP3    H130823   6.157   4.549   2.348 -2.2131 -0.6052  1.5438
 3136TIP3    H230824   6.193   4.657   2.249  0.7274 -0.9862  2.0953
 3137TIP3   OH230825   6.705   2.941   0.307 -0.3432 -0.8478  0.3157
 3137TIP3    H130826   6.764   2.871   0.336  2.7594  1.0730 -0.7917
 3137TIP3    H230827   6.652   2.900   0.238  1.7308 -2.0710 -0.6699
 3138TIP3   OH230828   1.949   6.111   4.916 -0.7292 -0.5866 -0.1531
 3138TIP3    H130829   1.991   6.027   4.899 -3.1194 -1.6031 -1.6788
 3138TIP3    H230830   1.862   6.087   4.949 -0.6897  1.3627  1.5613
 3139TIP3   OH230831   2.001   3.109   2.583  0.3759 -0.0371  0.2675
 3139TIP3    H130832   1.988   3.195   2.624 -1.1612 -1.5358  3.2747
 3139TIP3    H230833   2.093   3.088   2.600  1.0543  1.3660 -1.4015
 3140TIP3   OH230834   2.203   3.608   1.791  0.2096  0.2830  0.2066
 3140TIP3    H130835   2.215   3.664   1.714  2.4495  0.5076  0.6664
 3140TIP3    H230836   2.289   3.605   1.833 -0.5030 -1.3486  1.6875
 3141TIP3   OH230837   5.810   4.051  12.868 -0.5200 -0.2946 -0.4046
 3141TIP3    H130838   5.793   3.957  12.867 -1.7115 -0.1544  1.5442
 3141TIP3    H230839   5.765   4.085  12.791 -1.1363 -1.1658 -0.4372
 3142TIP3   OH230840   0.385   3.943  11.788  0.3810  0.2903 -0.6536
 3142TIP3    H130841   0.327   3.913  11.718  0.8720 -0.9267 -0.5466
 3142TIP3    H230842   0.433   4.016  11.749  0.9529 -0.6356 -1.7455
 3143TIP3   OH230843   4.798   3.122  16.535  0.2879  0.2700 -0.2082
 3143TIP3    H130844   4.840   3.176  16.602  0.0393  1.5659 -1.0676
 3143TIP3    H230845   4.705   3.128  16.554  0.1854  0.9623 -0.8791
 3144TIP3   OH230846   0.094   2.043   2.309  0.0839  0.4868 -0.8576
 3144TIP3    H130847   0.062   2.118   2.259  1.9736  0.8611 -1.6024
 3144TIP3    H230848   0.138   1.988   2.244  2.4345  0.8808  0.3032
 3145TIP3   OH230849   5.163   3.519  15.195 -0.1886 -0.4000 -0.2214
 3145TIP3    H130850   5.151   3.545  15.104 -2.2597 -1.2389 -0.2542
 3145TIP3    H230851   5.258   3.516  15.207  0.1559 -0.9400 -2.5462
 3146TIP3   OH230852   6.562   6.332  13.459  0.4443  0.1563  0.0624
 3146TIP3    H130853   6.560   6.425  13.482 -1.2057  0.6286 -1.6777
 3146TIP3    H230854   6.578   6.332  13.365 -1.6043 -1.1759 -0.3506
 3147TIP3   OH230855   6.560   0.741   2.473  0.1120 -0.0647 -0.0805
 3147TIP3    H130856   6.512   0.818   2.503 -1.3930 -0.7922 -0.5393
 3147TIP3    H230857   6.609   0.712   2.550 -0.7848  0.2581  0.6306
 3148TIP3   OH230858   4.579   3.266  13.674 -0.1081 -0.4917 -0.4209
 3148TIP3    H130859   4.582   3.261  13.578  0.1850  2.7638 -0.7271
 3148TIP3    H230860   4.671   3.278  13.699 -0.3263  0.2668  0.0583
 3149TIP3   OH230861   5.736   0.433   1.858 -0.5983 -0.0762 -0.2188
 3149TIP3    H130862   5.818   0.418   1.907 -0.2332 -3.2524 -1.5422
 3149TIP3    H230863   5.677   0.364   1.889 -1.0302 -0.9407 -2.7284
 3150TIP3   OH230864   2.199   4.725  15.924 -0.6788  0.5340 -0.3205
 3150TIP3    H130865   2.262   4.693  15.860 -0.2753 -1.5306  1.0188
 3150TIP3    H230866   2.250   4.784  15.980 -0.1362 -0.4641  0.2456
 3151TIP3   OH230867   4.815   1.350  13.484 -0.6698 -0.2768 -0.0991
 3151TIP3    H130868   4.851   1.380  13.568  1.3006  1.1676 -1.3579
 3151TIP3    H230869   4.720   1.351  13.496 -0.4598 -2.6565  2.8866
 3152TIP3   OH230870   6.800   6.306   3.630 -0.8749 -0.1130 -0.1295
 3152TIP3    H130871   6.889   6.318   3.662 -1.4675  1.5855  1.0328
 3152TIP3    H230872   6.751   6.276   3.706 -1.1371 -2.0417 -1.0018
 3153TIP3   OH230873   5.832   5.010  12.758  0.5365  0.0869  0.3397
 3153TIP3    H130874   5.889   5.040  12.828 -0.2512 -1.9654  1.9780
 3153TIP3    H230875   5.748   5.053  12.775  0.2131 -0.7593  1.0017
 3154TIP3   OH230876   4.713   3.538   0.942  0.5092 -0.2656  0.5855
 3154TIP3    H130877   4.681   3.628   0.927 -1.8576 -0.9056  1.3596
 3154TIP3    H230878   4.752   3.513   0.858 -0.4899  0.8557 -0.2608
 3155TIP3   OH230879   1.544   2.056  15.726 -0.2143 -0.1960 -0.1514
 3155TIP3    H130880   1.451   2.044  15.744 -0.3337 -0.5257 -0.9648
 3155TIP3    H230881   1.547   2.084  15.635  0.5919 -2.1805 -0.7946
 3156TIP3   OH230882   0.489   4.679  13.257 -0.0680  0.2303  0.0934
 3156TIP3    H130883   0.448   4.619  13.195 -1.0954  0.2355  0.7567
 3156TIP3    H230884   0.453   4.765  13.235 -0.9516  0.1381  1.0980
 3157TIP3   OH230885   3.117   1.412  16.285 -0.0021 -1.1759  0.5636
 3157TIP3    H130886   3.038   1.372  16.247 -0.6594 -0.6151  1.3040
 3157TIP3    H230887   3.124   1.374  16.372  0.2126 -0.7958  0.7165
 3158TIP3   OH230888   4.017   5.804  13.119  0.1219  0.0403 -0.2063
 3158TIP3    H130889   4.014   5.849  13.204 -1.2157  0.0207 -0.2303
 3158TIP3    H230890   4.067   5.863  13.063 -1.5359  1.5180 -0.2229
 3159TIP3   OH230891   3.550   1.028   2.706  0.4217  0.3046 -0.2027
 3159TIP3    H130892   3.455   1.021   2.699  0.5150 -0.8369 -0.4930
 3159TIP3    H230893   3.577   0.947   2.750  1.2325  0.7718  0.1806
 3160TIP3   OH230894   2.627   2.713   1.143 -0.5707 -0.6091  0.0356
 3160TIP3    H130895   2.595   2.656   1.073  0.1873 -0.8197 -0.1445
 3160TIP3    H230896   2.626   2.801   1.105 -0.3613 -0.6968 -0.1742
 3161TIP3   OH230897   0.981   3.234   0.827 -0.0396 -0.2675 -0.3231
 3161TIP3    H130898   1.030   3.316   0.833 -0.9884  0.4477 -1.7486
 3161TIP3    H230899   1.044   3.172   0.789 -0.1733  0.6242 -2.0842
 3162TIP3   OH230900   5.046   0.002   1.862 -0.8169  0.1875  0.0890
 3162TIP3    H130901   5.013   0.022   1.775 -0.6645  0.6040  0.1276
 3162TIP3    H230902   5.103  -0.074   1.849 -0.6673  0.3473 -0.1977
 3163TIP3   OH230903   4.042   0.734  15.619  0.1966 -0.1294 -0.0699
 3163TIP3    H130904   4.063   0.650  15.660  1.0706  0.1326  0.0253
 3163TIP3    H230905   3.995   0.783  15.687 -0.8375 -0.7491 -0.3170
 3164TIP3   OH230906   4.471   0.392  13.095 -0.4262  0.5721  0.1439
 3164TIP3    H130907   4.513   0.384  13.181  0.0591 -2.3722 -0.2424
 3164TIP3    H230908   4.525   0.456  13.048 -0.9864  2.6101  2.1102
 3165TIP3   OH230909   1.740   3.744  11.030 -0.2770  0.1963 -0.1280
 3165TIP3    H130910   1.833   3.737  11.005 -0.8744 -0.0303 -2.5701
 3165TIP3    H230911   1.729   3.680  11.100  1.4134  0.2795  0.2660
 3166TIP3   OH230912   4.619   1.320   4.590  0.1865 -0.3865  0.2750
 3166TIP3    H130913   4.705   1.359   4.605  1.0991 -2.2833  0.2308
 3166TIP3    H230914   4.625   1.283   4.502 -0.3633 -1.3014  0.6125
 3167TIP3   OH230915   1.489   2.223   5.743  0.0448 -0.8439  0.2803
 3167TIP3    H130916   1.581   2.241   5.724  0.9118 -1.2931  3.3641
 3167TIP3    H230917   1.467   2.148   5.687  1.3449 -0.3554 -0.9440
 3168TIP3   OH230918   0.363   2.672   3.864 -0.3510  0.2447 -0.0097
 3168TIP3    H130919   0.439   2.635   3.910  0.2173  1.8738  0.4424
 3168TIP3    H230920   0.298   2.602   3.864 -0.1507 -0.0612  2.7641
 3169TIP3   OH230921   1.198   4.077   5.532 -0.5909 -0.0111 -0.0945
 3169TIP3    H130922   1.288   4.050   5.551  0.9769  2.1558 -3.4558
 3169TIP3    H230923   1.145   4.002   5.557  2.3389 -2.1411  0.2951
 3170TIP3   OH230924   4.845   5.185   2.257 -0.2140 -0.0638  0.0791
 3170TIP3    H130925   4.839   5.174   2.162  1.5078 -0.2783 -0.0400
 3170TIP3    H230926   4.926   5.142   2.281  0.1726  1.3110  1.4302
 3171TIP3   OH230927   5.850   4.712  14.754 -0.1796 -0.0046 -0.8440
 3171TIP3    H130928   5.848   4.770  14.678  0.1465  0.3739 -0.5688
 3171TIP3    H230929   5.940   4.681  14.758  0.3535  1.5510  0.5413
 3172TIP3   OH230930   6.608   5.538   3.430 -0.0713 -0.1119  0.2495
 3172TIP3    H130931   6.663   5.494   3.365  1.2427  2.3377 -0.4288
 3172TIP3    H230932   6.644   5.512   3.515  0.7245 -0.2939 -0.1329
 3173TIP3   OH230933   0.509   1.436  13.298 -0.0292  0.0640 -0.0802
 3173TIP3    H130934   0.599   1.442  13.267  0.9262  3.3990  2.5938
 3173TIP3    H230935   0.507   1.357  13.353  1.8239  0.7614  1.0804
 3174TIP3   OH230936   4.273   2.740   1.080 -0.2227 -0.2602  0.1383
 3174TIP3    H130937   4.336   2.770   1.145  2.5050  0.8682 -2.7262
 3174TIP3    H230938   4.291   2.646   1.071 -0.1305 -0.2784  0.5209
 3175TIP3   OH230939   0.783   0.272   0.327 -0.3569 -0.6799 -0.0582
 3175TIP3    H130940   0.799   0.212   0.400 -0.8561 -1.3382 -0.4851
 3175TIP3    H230941   0.849   0.341   0.339 -0.2673 -0.9102  0.8648
 3176TIP3   OH230942   4.314   0.662  13.694 -0.3009 -0.2391 -0.1623
 3176TIP3    H130943   4.406   0.677  13.715 -0.2392 -1.3734  0.4668
 3176TIP3    H230944   4.270   0.659  13.779 -1.0558  1.0128 -0.4851
 3177TIP3   OH230945   4.296   4.945  10.935 -0.3271  0.5131  0.5696
 3177TIP3    H130946   4.226   4.896  10.979  0.1517 -0.8745 -0.1458
 3177TIP3    H230947   4.311   5.022  10.991 -0.1853 -0.8395  2.4991
 3178TIP3   OH230948   6.764   3.743  11.866  0.5154  0.1499 -0.1799
 3178TIP3    H130949   6.804   3.658  11.887  1.4222  0.2410 -1.3888
 3178TIP3    H230950   6.714   3.726  11.786  0.0976  0.5888 -0.0110
 3179TIP3   OH230951   2.327   2.024   2.474  0.0074 -0.0636  0.6972
 3179TIP3    H130952   2.327   2.047   2.381 -0.3121 -0.2295  0.6543
 3179TIP3    H230953   2.242   1.983   2.489 -0.8832  1.9871  1.5719
 3180TIP3   OH230954   1.282   6.193   2.108 -0.1341  0.5729 -0.3393
 3180TIP3    H130955   1.238   6.252   2.047 -0.3263  1.1634  0.3455
 3180TIP3    H230956   1.336   6.137   2.053 -1.1228  0.3647 -1.1298
 3181TIP3   OH230957   5.403   4.408  10.682  0.1612 -0.0533 -0.2584
 3181TIP3    H130958   5.327   4.429  10.629  0.8537  1.0652 -0.8531
 3181TIP3    H230959   5.476   4.406  10.620  0.9173  0.8073  0.5523
 3182TIP3   OH230960   3.441   4.257   0.806  0.1453 -0.4327 -0.5169
 3182TIP3    H130961   3.525   4.267   0.852 -0.6719 -2.0736  1.4689
 3182TIP3    H230962   3.460   4.287   0.717  2.5558  0.2432  0.1298
 3183TIP3   OH230963   3.514   0.046   4.577 -1.0692  0.1870 -0.1141
 3183TIP3    H130964   3.445   0.003   4.526  0.1221 -1.7585 -0.2164
 3183TIP3    H230965   3.488   0.033   4.668 -0.9210 -0.4257 -0.1547
 3184TIP3   OH230966   1.496   6.809  13.747  0.3738  0.0955  0.0211
 3184TIP3    H130967   1.565   6.742  13.740 -1.8932 -2.2762 -1.5556
 3184TIP3    H230968   1.449   6.787  13.827 -0.2080 -0.0476 -0.3520
 3185TIP3   OH230969   2.304   5.293   3.662 -0.1332  0.0367 -0.1921
 3185TIP3    H130970   2.281   5.227   3.596 -1.7357  1.1313 -0.7772
 3185TIP3    H230971   2.236   5.359   3.654 -0.3456  0.2426  2.5474
 3186TIP3   OH230972   4.723   2.274  16.322 -0.2130 -0.0626 -0.1501
 3186TIP3    H130973   4.743   2.288  16.229  0.8704  0.5684  0.1592
 3186TIP3    H230974   4.789   2.325  16.368 -0.8025 -0.2981  0.9759
 3187TIP3   OH230975   0.800   0.533   4.227 -0.0375  0.6241 -0.5659
 3187TIP3    H130976   0.801   0.549   4.321  0.9870 -1.5327 -0.1584
 3187TIP3    H230977   0.860   0.599   4.191 -0.4106  1.4378  0.2593
 3188TIP3   OH230978   0.579   5.931  11.400 -0.1799 -0.2258  1.1477
 3188TIP3    H130979   0.597   5.837  11.398 -3.3730 -0.9111  0.0982
 3188TIP3    H230980   0.518   5.942  11.472 -1.8449  0.5709 -0.3242
 3189TIP3   OH230981   1.069   3.526   1.386  0.0292  0.3232 -0.3021
 3189TIP3    H130982   1.105   3.598   1.439 -1.1941  0.8599 -0.1726
 3189TIP3    H230983   1.145   3.491   1.339  0.7498  1.3218  0.0799
 3190TIP3   OH230984   4.608   0.996  12.898 -0.3407  0.1941  0.6709
 3190TIP3    H130985   4.519   0.977  12.867 -0.1687 -0.9163  0.8331
 3190TIP3    H230986   4.597   1.019  12.990 -0.7442  2.6101  0.0885
 3191TIP3   OH230987   0.117   4.962   3.724  0.2341  0.0280  0.3802
 3191TIP3    H130988   0.077   5.001   3.801  0.2337 -1.4941  1.1846
 3191TIP3    H230989   0.069   5.001   3.650 -0.6170  0.5602  1.1858
 3192TIP3   OH230990   5.681   1.799   4.196 -0.3121 -0.4646  0.1644
 3192TIP3    H130991   5.741   1.764   4.262  2.9490  1.5284 -1.4846
 3192TIP3    H230992   5.686   1.737   4.124  3.2998  1.5951 -1.6386
 3193TIP3   OH230993   0.599   1.617   2.540  0.1100 -0.0884 -0.4931
 3193TIP3    H130994   0.684   1.611   2.498  0.3239  1.3053 -0.3126
 3193TIP3    H230995   0.618   1.643   2.630 -0.4020 -1.9964  0.2234
 3194TIP3   OH230996   5.132   3.983   0.005 -0.0449  0.4295  0.3340
 3194TIP3    H130997   5.105   3.994   0.096 -0.8377  1.2464  0.0184
 3194TIP3    H230998   5.074   4.042  -0.045  0.4100  0.0428 -0.6891
 3195TIP3   OH230999   6.263   5.489   1.659 -0.3598 -0.0318  0.2069
 3195TIP3    H131000   6.297   5.542   1.586 -1.3104  2.2429  1.2979
 3195TIP3    H231001   6.171   5.476   1.637 -0.0324 -1.7469 -0.2781
 3196TIP3   OH231002   5.304   3.465   1.165  0.0238  0.7195  0.0140
 3196TIP3    H131003   5.344   3.393   1.212  2.9235  1.0134 -1.7592
 3196TIP3    H231004   5.304   3.538   1.227  1.2576  0.3795  0.4328
 3197TIP3   OH231005   4.735   6.081  16.001 -0.2196  0.1577 -0.1715
 3197TIP3    H131006   4.811   6.022  16.003  0.3307  0.8596  0.8514
 3197TIP3    H231007   4.727   6.107  15.909 -0.5280 -1.5498 -0.6511
 3198TIP3   OH231008   0.288   3.029  16.684  0.3633  0.1223 -0.1002
 3198TIP3    H131009   0.313   3.040  16.775  1.2002  0.8946 -0.4100
 3198TIP3    H231010   0.365   3.057  16.634 -0.2673  0.2306 -1.0451
 3199TIP3   OH231011   4.390   5.734  15.782 -0.6381 -0.2004 -0.3011
 3199TIP3    H131012   4.450   5.667  15.748 -0.6568 -0.6397  0.5111
 3199TIP3    H231013   4.364   5.701  15.868 -3.5385 -0.9951 -1.3622
 3200TIP3   OH231014   3.603   2.413   5.318  0.5463 -0.3455  0.3494
 3200TIP3    H131015   3.612   2.365   5.236  1.6812 -0.1133  0.3285
 3200TIP3    H231016   3.618   2.348   5.386  0.1101 -0.4322  0.3633
 3201TIP3   OH231017   5.981   6.460   3.064 -0.0185 -0.1886 -0.5156
 3201TIP3    H131018   6.034   6.539   3.077  1.9676 -1.5146  0.0146
 3201TIP3    H231019   5.891   6.490   3.070  0.6648  1.7095  1.8602
 3202TIP3   OH231020   4.669   4.337   4.027 -0.0111  0.0312 -0.2702
 3202TIP3    H131021   4.603   4.372   3.967 -0.2778  1.2093  0.6618
 3202TIP3    H231022   4.638   4.363   4.114  0.3154 -1.7086  0.4057
 3203TIP3   OH231023   1.852   1.494   5.293 -0.0673 -0.4263 -0.7076
 3203TIP3    H131024   1.862   1.400   5.279  1.0333 -0.9519  2.7787
 3203TIP3    H231025   1.938   1.524   5.321 -0.7936  1.3276 -0.1776
 3204TIP3   OH231026   2.660   1.649   1.411 -0.0150 -0.1540  0.0576
 3204TIP3    H131027   2.678   1.589   1.483  0.2325 -0.7654 -0.4926
 3204TIP3    H231028   2.641   1.733   1.452 -2.6683 -1.1132  0.9880
 3205TIP3   OH231029   2.578   5.978  15.272 -0.0611  0.6017 -0.2749
 3205TIP3    H131030   2.543   5.977  15.183 -2.5521  3.1046  0.5189
 3205TIP3    H231031   2.607   6.069  15.285  0.9961  0.0981  1.2300
 3206TIP3   OH231032   2.866   5.573   5.756 -0.2741 -0.0212 -0.0899
 3206TIP3    H131033   2.866   5.656   5.707 -0.8460  0.5620  0.8566
 3206TIP3    H231034   2.929   5.587   5.827 -1.3808  0.1243  0.8898
 3207TIP3   OH231035   3.244   2.134   0.432  0.3027 -0.2802 -0.1269
 3207TIP3    H131036   3.313   2.125   0.366 -0.1610  2.1494 -1.0438
 3207TIP3    H231037   3.277   2.201   0.491 -0.8400  0.1661  0.0176
 3208TIP3   OH231038   0.801   2.070  14.734 -0.0109 -0.0169  0.1258
 3208TIP3    H131039   0.734   2.002  14.741  0.6322 -0.5883  0.8340
 3208TIP3    H231040   0.862   2.036  14.669  0.0002  0.1487  0.0504
 3209TIP3   OH231041   2.634   4.205  15.462 -0.4922  0.0174  0.1586
 3209TIP3    H131042   2.640   4.123  15.511 -1.8774 -0.3879 -0.2913
 3209TIP3    H231043   2.637   4.178  15.370 -0.5137  0.5108  0.0093
 3210TIP3   OH231044   1.838   2.189  11.054 -0.8973 -0.7558 -0.3975
 3210TIP3    H131045   1.832   2.178  10.959 -1.6335 -1.1509 -0.3142
 3210TIP3    H231046   1.749   2.211  11.081 -0.4471  0.6225  0.0535
 3211TIP3   OH231047   3.513   0.538  13.009  0.3341  0.0536 -0.7696
 3211TIP3    H131048   3.605   0.520  13.029  0.2155  0.6529  0.4037
 3211TIP3    H231049   3.475   0.563  13.093 -0.5390  1.3203 -1.5078
 3212TIP3   OH231050   6.312   4.485  13.229 -0.8829  0.7065  0.1038
 3212TIP3    H131051   6.386   4.506  13.286 -0.4905  0.0197 -0.1346
 3212TIP3    H231052   6.348   4.422  13.166 -1.9014 -0.3861  0.5808
 3213TIP3   OH231053   0.695   0.911   5.079  0.3018  0.0375 -0.5546
 3213TIP3    H131054   0.690   0.939   4.988 -1.5310  0.8753 -0.2476
 3213TIP3    H231055   0.672   0.818   5.077  2.9764 -0.6873 -1.1971
 3214TIP3   OH231056   5.083   6.620  11.286 -0.3972 -0.4795  0.1013
 3214TIP3    H131057   5.153   6.668  11.329 -1.2555 -0.0486  1.0631
 3214TIP3    H231058   5.112   6.528  11.290 -0.0188 -0.3407  0.7398
 3215TIP3   OH231059   5.173   1.131   2.894 -0.7688  0.1108 -0.2503
 3215TIP3    H131060   5.226   1.190   2.840  0.2662 -1.5077 -1.0598
 3215TIP3    H231061   5.133   1.070   2.832 -1.3051 -0.4450  0.6176
 3216TIP3   OH231062   1.332   5.325  13.735 -0.2908 -0.4546 -0.2068
 3216TIP3    H131063   1.398   5.280  13.682  0.3058 -0.5467  0.5975
 3216TIP3    H231064   1.263   5.347  13.673 -0.3301 -1.9566 -0.7350
 3217TIP3   OH231065   1.319   4.620   5.395  0.3890  0.0054 -0.4393
 3217TIP3    H131066   1.286   4.586   5.477  1.5750 -0.0746  0.0264
 3217TIP3    H231067   1.385   4.556   5.367  1.9693  1.3962 -0.0315
 3218TIP3   OH231068   2.158   1.701  11.385 -0.0411 -0.2601  0.0825
 3218TIP3    H131069   2.245   1.729  11.357 -0.2745  1.6876  1.1119
 3218TIP3    H231070   2.159   1.708  11.480 -0.8324 -1.8361  0.2434
 3219TIP3   OH231071   3.174   5.462   4.772  0.5322  0.2712  0.0014
 3219TIP3    H131072   3.163   5.537   4.713  0.0532  0.6804  0.5959
 3219TIP3    H231073   3.244   5.489   4.832  1.4468 -0.3879 -0.7437
 3220TIP3   OH231074   3.091   2.092   0.852  0.5808 -0.5566  0.2721
 3220TIP3    H131075   3.027   2.144   0.900 -0.7408 -1.5705 -0.3403
 3220TIP3    H231076   3.117   2.022   0.913  1.5940  0.1979  0.7347
 3221TIP3   OH231077   6.619   1.915   2.932 -0.7704 -0.1397  0.0188
 3221TIP3    H131078   6.544   1.913   2.873 -0.0124 -0.7811 -0.9476
 3221TIP3    H231079   6.622   2.005   2.964 -2.2029 -0.2157  0.4130
 3222TIP3   OH231080   0.193   6.045  16.029 -0.0889 -0.5789 -0.2092
 3222TIP3    H131081   0.274   6.022  16.074 -0.1994 -0.5286  0.0154
 3222TIP3    H231082   0.153   6.113  16.084 -2.2130 -3.2563  1.8223
 3223TIP3   OH231083   5.430   5.133  15.435 -0.3336 -0.0153 -0.2539
 3223TIP3    H131084   5.466   5.045  15.436 -0.4420 -0.1067 -1.8971
 3223TIP3    H231085   5.488   5.182  15.376 -0.6804  0.8297  0.0879
 3224TIP3   OH231086   1.856   0.468   1.200  0.3440 -0.9085 -0.2156
 3224TIP3    H131087   1.815   0.552   1.180  1.2950  0.1205  1.8883
 3224TIP3    H231088   1.949   0.488   1.209  0.8473 -2.5395 -1.3680
 3225TIP3   OH231089   6.537   5.501  14.601 -0.1065  0.7482 -0.0469
 3225TIP3    H131090   6.477   5.530  14.670 -0.9676  1.1210 -0.9265
 3225TIP3    H231091   6.549   5.579  14.546 -0.4728  0.1118 -1.0475
 3226TIP3   OH231092   1.498   2.693  15.153  0.1714 -0.4785  0.5826
 3226TIP3    H131093   1.529   2.721  15.066 -0.3094 -2.0531 -0.1273
 3226TIP3    H231094   1.403   2.697  15.147  0.0961  1.8811  1.9336
 3227TIP3   OH231095   6.648   1.989  15.247 -0.3820 -0.3750 -0.2205
 3227TIP3    H131096   6.655   2.066  15.191  0.2821  0.5863  1.1276
 3227TIP3    H231097   6.596   2.018  15.323  2.4459 -0.2243  1.8357
 3228TIP3   OH231098   3.731   3.992   5.391 -0.3535  0.3275 -0.2197
 3228TIP3    H131099   3.647   3.996   5.346 -0.2762 -0.8738 -0.5010
 3228TIP3    H231100   3.794   3.972   5.322 -0.1417 -0.9103  0.3092
 3229TIP3   OH231101   1.419   2.627  10.648 -0.6163 -0.3914  0.0801
 3229TIP3    H131102   1.457   2.541  10.633  0.3319 -0.1823  1.1256
 3229TIP3    H231103   1.338   2.627  10.597 -0.0109 -1.4378 -0.9230
 3230TIP3   OH231104   5.804   0.737   6.374  0.2535  0.3291  0.4386
 3230TIP3    H131105   5.742   0.799   6.412  0.6540  0.2960  1.1573
 3230TIP3    H231106   5.880   0.791   6.352  0.5344  0.1287  0.9032
 3231TIP3   OH231107   3.573   2.269  13.304  0.4494 -0.1562 -0.3335
 3231TIP3    H131108   3.481   2.286  13.325  0.1075  0.3031 -2.0317
 3231TIP3    H231109   3.580   2.173  13.304 -0.2686 -0.2238 -1.0379
 3232TIP3   OH231110   4.009   2.159   4.681 -0.0487  0.8604  0.0190
 3232TIP3    H131111   4.102   2.170   4.662  0.0459  0.7893  0.4328
 3232TIP3    H231112   3.992   2.067   4.660 -0.3910  1.2469 -1.5524
 3233TIP3   OH231113   6.776   5.490   5.703  0.9364 -0.5670 -0.5025
 3233TIP3    H131114   6.753   5.419   5.643  4.4008 -2.6101  0.3033
 3233TIP3    H231115   6.840   5.451   5.763  1.4181  2.7200  1.3627
 3234TIP3   OH231116   1.148   1.238  11.934 -0.0401  0.1875  0.1623
 3234TIP3    H131117   1.108   1.156  11.906  1.5733 -1.0211  1.2380
 3234TIP3    H231118   1.240   1.231  11.908  0.1532  1.6220  0.3549
 3235TIP3   OH231119   6.131   4.446   0.461 -0.1402 -0.3031  0.4600
 3235TIP3    H131120   6.106   4.539   0.460 -0.6124 -0.4020  1.4328
 3235TIP3    H231121   6.102   4.415   0.547 -1.5179 -1.7767 -0.4952
 3236TIP3   OH231122   3.460   1.080   4.491 -0.1149 -0.0654  0.4823
 3236TIP3    H131123   3.468   1.174   4.508  2.6393 -0.2551  0.6652
 3236TIP3    H231124   3.384   1.052   4.543 -1.8054  2.2199 -0.6028
 3237TIP3   OH231125   5.094   0.326  14.989  0.1299  0.2821  0.4370
 3237TIP3    H131126   5.057   0.370  15.066 -0.3588 -1.4053  1.2110
 3237TIP3    H231127   5.019   0.286  14.945  0.2413  2.1727 -1.6241
 3238TIP3   OH231128   3.893   5.773   4.300  0.4356  0.7465  0.4117
 3238TIP3    H131129   3.919   5.782   4.208  0.0387 -1.1913  0.0694
 3238TIP3    H231130   3.943   5.841   4.345  2.0837  0.5329 -0.9786
 3239TIP3   OH231131   1.992   2.715   4.148 -0.3506  0.1486 -0.2169
 3239TIP3    H131132   2.083   2.714   4.176 -0.4857  3.0520  0.6341
 3239TIP3    H231133   1.945   2.668   4.217  0.4837 -1.8982 -0.9588
 3240TIP3   OH231134   0.574   1.443   3.582 -0.8724 -0.8813 -0.2268
 3240TIP3    H131135   0.583   1.538   3.584  0.0237 -0.9630  0.6452
 3240TIP3    H231136   0.553   1.422   3.491  1.1223  0.0020 -0.9478
 3241TIP3   OH231137   5.183   4.956   0.671 -0.4508  0.5315 -0.4780
 3241TIP3    H131138   5.185   4.943   0.577 -1.0938 -1.7130 -0.2234
 3241TIP3    H231139   5.111   4.902   0.702  1.2895 -0.8177  1.5474
 3242TIP3   OH231140   3.100   0.812   2.065 -0.0294 -0.2954  0.4766
 3242TIP3    H131141   3.107   0.723   2.101  0.1031 -0.1650  0.7777
 3242TIP3    H231142   3.178   0.857   2.099 -0.0650 -0.0804  0.2752
 3243TIP3   OH231143   0.493   2.517  13.714 -0.1002 -0.5143 -0.0721
 3243TIP3    H131144   0.573   2.493  13.760  0.9608  0.0127 -1.5454
 3243TIP3    H231145   0.465   2.600  13.753 -0.4460 -1.1378  1.0392
 3244TIP3   OH231146   0.964   3.468   5.230 -0.2504 -0.0399  0.5035
 3244TIP3    H131147   0.890   3.493   5.175 -0.6827  1.1676  1.5589
 3244TIP3    H231148   1.016   3.409   5.176  1.5033  3.9932 -2.8231
 3245TIP3   OH231149   3.730   4.007  11.296  0.2444 -0.4822 -0.3818
 3245TIP3    H131150   3.679   3.960  11.230 -0.2408 -2.5382  1.3103
 3245TIP3    H231151   3.811   3.957  11.304  0.0402 -0.6407  0.9606
 3246TIP3   OH231152   0.677   4.209  14.954 -0.2599 -0.3331 -0.4687
 3246TIP3    H131153   0.683   4.293  14.909  0.8805 -0.0741  0.1394
 3246TIP3    H231154   0.595   4.171  14.923 -1.6801  1.7419  0.5023
 3247TIP3   OH231155   1.402   0.444  11.680 -0.2306  0.2848 -0.6032
 3247TIP3    H131156   1.318   0.409  11.711 -0.3214  2.0456  1.4388
 3247TIP3    H231157   1.379   0.497  11.604 -0.3737 -2.1757 -2.3842
 3248TIP3   OH231158   2.616   2.025  16.399 -0.2156  0.4547 -0.0138
 3248TIP3    H131159   2.562   2.045  16.475  0.1968  0.2454  0.3415
 3248TIP3    H231160   2.706   2.033  16.431 -0.0297  0.9956 -0.6486
 3249TIP3   OH231161   3.959   4.395   5.019  0.5699 -0.6887 -0.0179
 3249TIP3    H131162   3.915   4.480   5.027 -0.2944 -0.9702 -1.3914
 3249TIP3    H231163   4.047   4.411   5.051  0.6714  0.9607 -0.9671
 3250TIP3   OH231164   4.905   1.507  12.562  0.1324  0.1251 -0.2126
 3250TIP3    H131165   4.998   1.486  12.561 -0.1264 -1.1300  0.2758
 3250TIP3    H231166   4.878   1.492  12.653 -0.6480  0.0158 -0.4564
 3251TIP3   OH231167   4.867   1.107  11.486 -0.4686  0.4770  0.0308
 3251TIP3    H131168   4.804   1.083  11.418 -0.3807 -2.5236  0.8746
 3251TIP3    H231169   4.912   1.025  11.507  0.7003  1.6480  2.5095
 3252TIP3   OH231170   2.615   0.796  13.934 -0.0905 -0.0145  0.2506
 3252TIP3    H131171   2.710   0.791  13.923 -0.2603 -0.5904 -1.1846
 3252TIP3    H231172   2.580   0.739  13.866 -1.4694 -0.0820  0.9827
 3253TIP3   OH231173   0.321   3.890  13.647  0.5600  0.1469 -0.5093
 3253TIP3    H131174   0.262   3.961  13.622 -1.9071 -1.9376 -0.9866
 3253TIP3    H231175   0.293   3.866  13.736  2.8615  1.1366  0.5655
 3254TIP3   OH231176   3.287   0.403  11.862 -0.0916 -0.2019  0.1748
 3254TIP3    H131177   3.206   0.428  11.819  1.1330  2.5214 -0.7208
 3254TIP3    H231178   3.279   0.308  11.875 -2.2938 -0.4283 -2.1957
 3255TIP3   OH231179   1.902   4.205   1.837  0.1396  0.4734  0.1244
 3255TIP3    H131180   1.870   4.115   1.846 -0.2701  0.2929 -2.3021
 3255TIP3    H231181   1.968   4.200   1.768  0.0880  2.0432 -0.0778
 3256TIP3   OH231182   5.235   0.988  15.092 -0.2001 -0.0970  0.6106
 3256TIP3    H131183   5.153   1.030  15.065 -1.0001 -1.4755  0.7696
 3256TIP3    H231184   5.209   0.928  15.162  1.1579  0.3310  1.5120
 3257TIP3   OH231185   0.614   1.155  12.509 -0.0070 -0.5461 -0.3951
 3257TIP3    H131186   0.696   1.194  12.541 -0.4712 -1.0146  1.5068
 3257TIP3    H231187   0.557   1.230  12.490 -0.1444 -0.2329  1.1460
 3258TIP3   OH231188   4.303   4.435   0.084  0.0652 -0.6449  0.2356
 3258TIP3    H131189   4.340   4.347   0.086  0.1860 -0.5879  1.2668
 3258TIP3    H231190   4.365   4.487   0.034 -0.7038 -1.4284 -1.6270
 3259TIP3   OH231191   3.381   2.696   4.761  0.5154  0.0050  0.6712
 3259TIP3    H131192   3.306   2.728   4.812  0.5053 -0.2457  0.8187
 3259TIP3    H231193   3.422   2.774   4.726 -0.5899  0.1006 -0.5048
 3260TIP3   OH231194   0.159   5.616  11.774 -0.4102 -0.3709  0.6010
 3260TIP3    H131195   0.235   5.590  11.826 -0.1806  0.0851  0.4975
 3260TIP3    H231196   0.189   5.691  11.723 -1.3481  0.8039  1.6807
 3261TIP3   OH231197   2.850   0.378   1.847 -0.6958 -0.4999 -0.5777
 3261TIP3    H131198   2.917   0.320   1.884  0.3289  0.9814 -0.0335
 3261TIP3    H231199   2.772   0.323   1.841  0.3544 -2.0568 -0.5094
 3262TIP3   OH231200   5.360   4.262   5.787  0.2635 -0.0151  0.3254
 3262TIP3    H131201   5.399   4.257   5.700 -1.2026  2.8143 -0.6296
 3262TIP3    H231202   5.429   4.297   5.843  1.2773 -2.0408  0.4492
 3263TIP3   OH231203   1.028   1.486   0.876  0.2458 -0.1455  0.2686
 3263TIP3    H131204   1.079   1.510   0.798  1.7475 -0.9324  0.9777
 3263TIP3    H231205   1.026   1.566   0.929 -0.2481  0.2117 -0.2700
 3264TIP3   OH231206   4.153   5.165   5.330 -0.2783  0.3215  0.5200
 3264TIP3    H131207   4.080   5.148   5.389  0.1412 -1.6544  0.5521
 3264TIP3    H231208   4.136   5.109   5.254 -0.2137  1.9478 -0.7352
 3265TIP3   OH231209   2.067   6.417  13.892  0.3105 -0.3459 -0.1959
 3265TIP3    H131210   2.005   6.452  13.955  0.7721  0.8836 -0.3964
 3265TIP3    H231211   2.076   6.486  13.826  4.2763  0.9916  1.4482
 3266TIP3   OH231212   4.194   4.603  11.535  0.8796 -0.0663 -0.5388
 3266TIP3    H131213   4.264   4.560  11.486  0.7129 -0.4281 -0.4624
 3266TIP3    H231214   4.117   4.548  11.520  0.8713 -0.2839  0.2779
 3267TIP3   OH231215   1.587   2.879   3.973 -0.0326  0.1855 -0.0218
 3267TIP3    H131216   1.648   2.851   3.904 -0.5421 -0.3585 -0.2664
 3267TIP3    H231217   1.563   2.798   4.018  0.0416  0.4980  0.5896
 3268TIP3   OH231218   2.798   5.689   2.263  0.3932 -0.3264 -0.2780
 3268TIP3    H131219   2.736   5.646   2.321  0.3676  0.2310  0.1209
 3268TIP3    H231220   2.879   5.640   2.272  0.0590 -0.9589 -0.6768
 3269TIP3   OH231221   3.700   2.106   1.870 -0.0609 -0.6849  0.0383
 3269TIP3    H131222   3.636   2.153   1.923  0.1724 -0.8350  0.4579
 3269TIP3    H231223   3.679   2.130   1.779 -0.3956 -0.3457  0.2045
 3270TIP3   OH231224   6.711   3.623  16.000  0.1392  0.2881  0.1380
 3270TIP3    H131225   6.726   3.592  16.090 -0.6100 -0.6392 -0.0394
 3270TIP3    H231226   6.633   3.679  16.007 -1.1770 -1.4207 -0.2333
 3271TIP3   OH231227   1.485   6.413  11.684 -0.1836 -0.0754 -0.1348
 3271TIP3    H131228   1.512   6.368  11.604 -2.6938 -0.2071 -0.9886
 3271TIP3    H231229   1.448   6.496  11.654 -1.3776 -0.2254  0.8483
 3272TIP3   OH231230   1.587   1.604  16.731  0.1132 -0.3042  0.7491
 3272TIP3    H131231   1.541   1.563  16.804 -1.4375 -1.9396 -1.0512
 3272TIP3    H231232   1.518   1.634  16.672  1.3034  1.4729  0.1395
 3273TIP3   OH231233   3.822   2.172  16.705 -0.4279  0.3158 -0.4130
 3273TIP3    H131234   3.732   2.143  16.723 -0.4728  0.7642  0.1280
 3273TIP3    H231235   3.849   2.216  16.786 -0.5305  2.1805 -1.3309
 3274TIP3   OH231236   1.860   1.650   0.786  0.2704 -0.0785  0.4540
 3274TIP3    H131237   1.812   1.692   0.714  2.1366  0.2774 -0.6568
 3274TIP3    H231238   1.806   1.576   0.811 -1.1263  0.6240 -0.3345
 3275TIP3   OH231239   2.389   2.191  13.424  0.1625 -0.0231  0.4876
 3275TIP3    H131240   2.354   2.117  13.375  0.0659  0.1667  0.2719
 3275TIP3    H231241   2.425   2.152  13.504  1.7827 -0.5295 -0.4612
 3276TIP3   OH231242   0.331   6.623  15.256  0.3309 -0.7778  0.3161
 3276TIP3    H131243   0.346   6.596  15.347  0.0918 -1.0220  0.2839
 3276TIP3    H231244   0.246   6.584  15.233  1.3835 -2.5760 -0.7226
 3277TIP3   OH231245   4.448   3.986  16.070  0.5568 -0.2178 -0.0908
 3277TIP3    H131246   4.419   3.969  16.159  0.1371  0.8513 -0.0145
 3277TIP3    H231247   4.503   3.911  16.048 -1.6366 -1.9500  0.0246
 3278TIP3   OH231248   4.091   4.427   2.020  0.3471 -0.0952  0.2421
 3278TIP3    H131249   4.088   4.521   2.035  1.9216 -0.0178  0.2172
 3278TIP3    H231250   4.132   4.391   2.098  0.6881 -0.6396 -0.1777
 3279TIP3   OH231251   4.669   1.525  15.804 -0.0943 -0.1899  0.3867
 3279TIP3    H131252   4.619   1.458  15.851  0.5567  0.5327  2.2031
 3279TIP3    H231253   4.616   1.604  15.813 -2.0467 -0.7671 -3.7391
 3280TIP3   OH231254   1.023   4.592  11.215 -0.0300 -0.0968  0.6392
 3280TIP3    H131255   1.097   4.652  11.214  0.1788 -0.2920 -1.7522
 3280TIP3    H231256   0.947   4.649  11.231  0.3577  0.5204  0.3470
 3281TIP3   OH231257   6.510   2.328  11.398 -0.0400 -0.0457  0.3085
 3281TIP3    H131258   6.564   2.356  11.325 -1.1479  1.0848 -0.1178
 3281TIP3    H231259   6.515   2.399  11.462 -0.1120 -0.4444  0.7728
 3282TIP3   OH231260   1.859   4.954  14.090 -0.5280  0.0795  0.4016
 3282TIP3    H131261   1.883   5.045  14.070 -1.3450  0.0637 -0.7381
 3282TIP3    H231262   1.930   4.902  14.053 -1.5090  0.1137 -1.6336
 3283TIP3   OH231263   0.533   0.110  12.522 -0.2256 -0.0461 -0.4251
 3283TIP3    H131264   0.547   0.045  12.453  1.9054  1.5433 -1.6040
 3283TIP3    H231265   0.438   0.117  12.528 -0.5319 -2.7834 -0.6522
 3284TIP3   OH231266   0.474   6.228   2.426 -0.1768  0.3561  0.5744
 3284TIP3    H131267   0.449   6.154   2.480  0.9789 -1.0997 -0.7933
 3284TIP3    H231268   0.400   6.289   2.433 -1.1732 -0.9225  1.7083
 3285TIP3   OH231269   4.182   0.280   4.363 -0.2671  0.2851 -0.5543
 3285TIP3    H131270   4.095   0.247   4.340 -0.4914 -0.1420  0.8084
 3285TIP3    H231271   4.219   0.310   4.280 -1.3074 -0.4753 -1.3236
 3286TIP3   OH231272   0.362   6.648  13.985 -0.6866 -0.1575  0.1668
 3286TIP3    H131273   0.412   6.726  13.961 -1.2878  0.3590  0.5662
 3286TIP3    H231274   0.276   6.681  14.011 -1.2157 -1.0307 -0.4352
 3287TIP3   OH231275   4.643   2.014  10.906 -0.1100  0.2158 -0.4689
 3287TIP3    H131276   4.713   2.079  10.908 -0.2841  0.4627  2.5209
 3287TIP3    H231277   4.633   1.987  10.998  0.1564 -4.2885 -1.5107
 3288TIP3   OH231278   4.440   5.521   2.648  0.1412 -0.2400  0.3319
 3288TIP3    H131279   4.479   5.570   2.719  1.2982  1.2847 -1.2736
 3288TIP3    H231280   4.513   5.493   2.593 -0.7593 -0.4396 -0.8354
 3289TIP3   OH231281   5.926   3.597  12.183 -0.0877 -0.3913  0.5764
 3289TIP3    H131282   6.016   3.601  12.150 -0.5411  0.9684 -0.6037
 3289TIP3    H231283   5.895   3.688  12.179 -2.3100 -1.1198 -1.4066
 3290TIP3   OH231284   6.470   6.493   2.448 -0.4243 -0.1726  0.3178
 3290TIP3    H131285   6.378   6.515   2.465 -0.4799  0.2338 -0.4857
 3290TIP3    H231286   6.515   6.577   2.446  0.0330 -0.3920  1.0437
 3291TIP3   OH231287   1.594   1.439   4.261  0.2273  0.2837 -0.3195
 3291TIP3    H131288   1.643   1.506   4.308 -1.4429  0.4745  1.2565
 3291TIP3    H231289   1.585   1.367   4.324  0.6557 -0.7873 -1.4496
 3292TIP3   OH231290   1.768   5.006   3.415 -0.3636  0.4640 -0.1949
 3292TIP3    H131291   1.830   4.949   3.461 -1.7423 -0.6178  0.3850
 3292TIP3    H231292   1.702   5.027   3.481 -0.6257  1.6116 -0.8047
 3293TIP3   OH231293   6.778   0.660   2.318  0.3784  0.7222 -0.2525
 3293TIP3    H131294   6.838   0.666   2.393  0.9949  3.4277 -0.8499
 3293TIP3    H231295   6.698   0.622   2.354  0.9520  1.1747  1.5916
 3294TIP3   OH231296   5.188   2.834  14.694  0.2488  0.6158  0.5811
 3294TIP3    H131297   5.128   2.805  14.762  1.0195 -1.0653  0.5904
 3294TIP3    H231298   5.134   2.889  14.637 -1.4889 -1.3303  0.2324
 3295TIP3   OH231299   4.801   0.337   3.612  0.4108 -0.1268 -0.1782
 3295TIP3    H131300   4.843   0.422   3.623 -1.9646  1.2356 -0.9941
 3295TIP3    H231301   4.783   0.307   3.702  0.8221  0.4523  0.1030
 3296TIP3   OH231302   4.621   2.230   5.582  0.0764  0.3620  0.3538
 3296TIP3    H131303   4.642   2.141   5.551  0.5717  0.1838  1.1679
 3296TIP3    H231304   4.546   2.257   5.529  0.1050 -0.4270 -0.1071
 3297TIP3   OH231305   4.552   5.250  14.422 -0.2745  0.0553  0.4906
 3297TIP3    H131306   4.526   5.321  14.481  0.5914  0.2548  0.6450
 3297TIP3    H231307   4.543   5.287  14.334  2.0305  1.0555  0.6107
 3298TIP3   OH231308   0.200   3.681   0.576  0.2606  0.0801 -0.5264
 3298TIP3    H131309   0.198   3.735   0.497  1.2421  0.2503 -0.4393
 3298TIP3    H231310   0.283   3.701   0.618 -0.4512  0.3515  0.8153
 3299TIP3   OH231311   3.413   3.908   1.562 -0.0823  0.0537  0.1334
 3299TIP3    H131312   3.453   3.908   1.475  0.2505  1.2158  0.2693
 3299TIP3    H231313   3.319   3.922   1.544 -0.0131  0.3071 -0.0480
 3300TIP3   OH231314   5.289   2.874  10.844 -0.0964  0.3815  0.1858
 3300TIP3    H131315   5.249   2.961  10.850 -0.1338  0.6414 -2.3598
 3300TIP3    H231316   5.379   2.886  10.875 -0.2585  1.2197  0.3478
 3301TIP3   OH231317   6.067   2.559  11.420 -0.1155 -0.1462 -0.7132
 3301TIP3    H131318   6.119   2.545  11.341 -1.5516  0.7471 -1.8425
 3301TIP3    H231319   6.040   2.651  11.416  1.1453  0.4255  1.6850
 3302TIP3   OH231320   1.938   0.108  16.619 -0.0645  0.3498  0.0128
 3302TIP3    H131321   2.032   0.093  16.618 -0.2621 -1.1625 -1.5655
 3302TIP3    H231322   1.900   0.023  16.640 -1.1099  0.6221 -0.6663
 3303TIP3   OH231323   6.498   6.728   2.278  0.0781 -0.3273 -0.1700
 3303TIP3    H131324   6.513   6.796   2.211  1.3835  2.1976  2.4610
 3303TIP3    H231325   6.568   6.665   2.264 -0.0426 -0.2013 -1.5319
 3304TIP3   OH231326   5.827   2.648   3.484 -0.2440 -0.7507  0.2010
 3304TIP3    H131327   5.878   2.677   3.408 -1.8314  1.7410 -0.0203
 3304TIP3    H231328   5.762   2.589   3.447 -2.0439  1.6799 -0.7682
 3305TIP3   OH231329   1.107   6.808   4.016 -0.2994 -0.6388 -0.2972
 3305TIP3    H131330   1.143   6.880   4.067  0.7272 -1.2572 -0.1321
 3305TIP3    H231331   1.149   6.729   4.051 -0.5802 -1.2134 -1.2030
 3306TIP3   OH231332   5.111   2.851  13.155  0.0162  0.4695  0.1685
 3306TIP3    H131333   5.020   2.876  13.174  0.3844  1.3269  0.8692
 3306TIP3    H231334   5.161   2.886  13.229  0.8784 -0.2976 -0.0374
 3307TIP3   OH231335   0.489   6.515  11.162  0.5090 -0.0220  0.1840
 3307TIP3    H131336   0.578   6.521  11.196  0.6068 -0.7269  0.0607
 3307TIP3    H231337   0.498   6.469  11.079 -0.1460 -1.4880  0.9017
 3308TIP3   OH231338   2.666   1.136   3.915 -0.1506  0.3815  0.0867
 3308TIP3    H131339   2.572   1.152   3.920 -0.1531  0.8379 -1.0826
 3308TIP3    H231340   2.677   1.046   3.948 -0.7801  0.8664  1.7028
 3309TIP3   OH231341   0.819   4.082  13.159 -0.1730 -0.3735  0.0973
 3309TIP3    H131342   0.864   4.007  13.198  0.9161  0.9395  1.4787
 3309TIP3    H231343   0.869   4.103  13.080 -0.1420 -0.7352  0.0197
 3310TIP3   OH231344   2.531   1.817   2.109  0.3059 -0.1518 -0.1617
 3310TIP3    H131345   2.549   1.816   2.203 -0.5442  0.0059  0.0175
 3310TIP3    H231346   2.435   1.817   2.104  0.3473 -0.0059 -1.0249
 3311TIP3   OH231347   0.534   1.990  14.040  0.0215  0.3627 -0.4808
 3311TIP3    H131348   0.457   2.046  14.046  0.1800  0.5099  0.1918
 3311TIP3    H231349   0.503   1.913  13.993 -1.4830 -1.1424  2.6832
 3312TIP3   OH231350   2.500   0.540  13.449 -0.6631  0.1864  0.3555
 3312TIP3    H131351   2.534   0.496  13.371  0.3948  0.4117  0.6711
 3312TIP3    H231352   2.424   0.588  13.418 -1.3435 -1.1677 -0.1728
 3313TIP3   OH231353   3.001   6.477  13.532 -0.0032 -0.4400 -0.3652
 3313TIP3    H131354   2.957   6.492  13.448  1.5007 -0.1217 -1.1375
 3313TIP3    H231355   2.953   6.404  13.571 -2.7079  1.3807 -0.0045
 3314TIP3   OH231356   0.101   1.739   3.436 -0.0295  0.5034  0.4549
 3314TIP3    H131357   0.133   1.826   3.412  0.4841  0.9981  2.6850
 3314TIP3    H231358   0.169   1.679   3.407 -1.0177  0.6173 -2.3846
 3315TIP3   OH231359   0.348   2.413   5.610 -0.5235  0.2027 -0.4839
 3315TIP3    H131360   0.361   2.507   5.595 -2.7374  0.8223  0.9666
 3315TIP3    H231361   0.370   2.373   5.526 -0.0404  2.0587 -1.3177
 3316TIP3   OH231362   0.726   3.645   1.524  0.1199  0.0609  0.4646
 3316TIP3    H131363   0.784   3.714   1.554  0.0912 -0.3628  1.5457
 3316TIP3    H231364   0.661   3.636   1.595 -0.5928 -0.2423 -0.2089
 3317TIP3   OH231365   1.667   6.812   1.010 -0.2805 -0.3154  0.2443
 3317TIP3    H131366   1.761   6.802   0.996 -0.2175  1.2869 -0.7531
 3317TIP3    H231367   1.660   6.881   1.076 -0.7565  0.0943 -0.2258
 3318TIP3   OH231368   0.548   2.061   0.984  0.9785  0.4000  0.1818
 3318TIP3    H131369   0.629   2.020   0.953 -0.0912 -2.3262  0.6609
 3318TIP3    H231370   0.482   2.036   0.919  0.2923  1.7303  0.3232
 3319TIP3   OH231371   3.781   2.563  15.474  0.2686  0.4889  0.1808
 3319TIP3    H131372   3.850   2.599  15.529  0.1149  0.5583  0.3281
 3319TIP3    H231373   3.700   2.583  15.521  0.2508 -1.1226  0.8889
 3320TIP3   OH231374   2.867   4.671  14.552  0.0142 -0.1780 -0.0314
 3320TIP3    H131375   2.904   4.756  14.527  2.7659 -1.1277  0.4560
 3320TIP3    H231376   2.942   4.621  14.584 -1.8409 -2.1426  1.5621
 3321TIP3   OH231377   2.858   4.918  12.131  0.8853  0.2940  0.4857
 3321TIP3    H131378   2.833   4.902  12.040  0.5718  0.9569  0.4498
 3321TIP3    H231379   2.784   4.966  12.168  0.8228 -0.3537  1.2121
 3322TIP3   OH231380   3.295   3.494  14.872  0.0246 -0.8430  0.4735
 3322TIP3    H131381   3.294   3.487  14.777 -1.0407 -0.3576  0.4384
 3322TIP3    H231382   3.329   3.409  14.902 -0.0804 -1.1711 -0.3134
 3323TIP3   OH231383   1.410   0.932  15.089 -0.1482  0.3669  0.3772
 3323TIP3    H131384   1.347   0.870  15.126 -0.8376 -0.3593 -1.8340
 3323TIP3    H231385   1.485   0.929  15.148 -0.9259 -1.1767  1.3406
 3324TIP3   OH231386   0.132   4.086  12.840  0.0600  0.0311 -0.0879
 3324TIP3    H131387   0.134   3.990  12.834 -0.0842  0.0951 -2.0763
 3324TIP3    H231388   0.107   4.104  12.930  0.9470 -1.7816  0.5775
 3325TIP3   OH231389   2.672   6.269   5.838  0.2905  0.0210  0.0644
 3325TIP3    H131390   2.685   6.364   5.836 -0.3255  0.1716  1.5897
 3325TIP3    H231391   2.728   6.239   5.910 -0.3807 -0.6196  0.3245
 3326TIP3   OH231392   1.534   6.098   1.003 -0.3969 -0.3984  0.2252
 3326TIP3    H131393   1.567   6.043   1.074  2.5129  0.9591  0.0734
 3326TIP3    H231394   1.542   6.045   0.925  0.1777 -0.5665  0.3941
 3327TIP3   OH231395   0.738   6.267   4.293  0.3868  0.4881 -0.0109
 3327TIP3    H131396   0.691   6.305   4.368  0.7600  0.1132  0.4216
 3327TIP3    H231397   0.715   6.174   4.295 -0.1790  0.6055 -0.8061
 3328TIP3   OH231398   0.577   6.421  15.449  0.2169  0.2835  0.9099
 3328TIP3    H131399   0.608   6.349  15.395 -0.3720  0.8358 -0.2130
 3328TIP3    H231400   0.489   6.394  15.478  0.4108  0.1176  1.3590
 3329TIP3   OH231401   6.521   2.502   4.249 -0.1148 -0.1086  0.5096
 3329TIP3    H131402   6.576   2.435   4.290  1.3255 -0.1434 -1.3403
 3329TIP3    H231403   6.434   2.461   4.244  0.1936 -0.9197  1.5221
 3330TIP3   OH231404   2.777   4.777  16.408  0.0672  0.4911  0.1728
 3330TIP3    H131405   2.814   4.716  16.472 -0.8495  2.2842  2.6011
 3330TIP3    H231406   2.847   4.839  16.389 -0.2990  1.3019  1.3253
 3331TIP3   OH231407   3.888   3.938   3.741  0.2825 -0.1959  0.3108
 3331TIP3    H131408   3.808   3.889   3.755  0.8496 -1.2885 -0.1929
 3331TIP3    H231409   3.951   3.901   3.803  0.2604  1.0593  1.1349
 3332TIP3   OH231410   5.592   5.547   5.401  0.4194 -0.7905 -0.4164
 3332TIP3    H131411   5.521   5.572   5.460 -0.8303  0.5430 -2.3697
 3332TIP3    H231412   5.610   5.455   5.423 -0.9157 -0.7337  1.0905
 3333TIP3   OH231413   5.302   1.930   0.138 -0.3566  0.1541  0.0152
 3333TIP3    H131414   5.332   1.974   0.218 -1.5489  0.6933  0.1867
 3333TIP3    H231415   5.382   1.902   0.094  0.3672  1.1662  0.6602
 3334TIP3   OH231416   5.022   5.669  14.768  0.2138  0.1994 -0.6508
 3334TIP3    H131417   4.955   5.616  14.812  1.1599 -0.3814  0.1658
 3334TIP3    H231418   4.998   5.759  14.787  0.5530 -0.0267  1.0976
 3335TIP3   OH231419   0.989   4.985  11.143 -0.1965 -0.0466 -0.3131
 3335TIP3    H131420   0.940   5.067  11.136  2.0278  1.3817  0.1331
 3335TIP3    H231421   0.965   4.950  11.229  0.1040  1.0093  0.2111
 3336TIP3   OH231422   6.415   0.782  10.482 -0.0731  0.2418  0.3718
 3336TIP3    H131423   6.487   0.774  10.419  1.6228  0.5181  2.1715
 3336TIP3    H231424   6.454   0.828  10.557 -2.3520  1.0806  1.1172
 3337TIP3   OH231425   6.442   4.524   0.655  0.2839  0.8106 -0.3996
 3337TIP3    H131426   6.392   4.446   0.631 -1.3655  1.6620  0.1332
 3337TIP3    H231427   6.493   4.497   0.732  0.0984  0.1246 -0.5102
 3338TIP3   OH231428   1.724   0.118  12.628  0.1140  0.4529  0.3315
 3338TIP3    H131429   1.699   0.200  12.587 -1.1763 -0.1560 -0.1643
 3338TIP3    H231430   1.810   0.097  12.591 -0.2584  0.7859 -0.7586
 3339TIP3   OH231431   6.248   3.226  16.491  0.1893  0.7018  0.1271
 3339TIP3    H131432   6.322   3.285  16.504  0.2183  0.4221  1.4510
 3339TIP3    H231433   6.193   3.270  16.426  0.5119  1.9105  0.6309
 3340TIP3   OH231434   3.514   5.629   3.984  0.2906  0.2947  0.3865
 3340TIP3    H131435   3.577   5.616   4.054 -0.9215  1.1175  1.6806
 3340TIP3    H231436   3.430   5.638   4.028 -0.3649  1.9270 -1.0635
 3341TIP3   OH231437   4.234   5.441   1.610 -0.0593 -0.1619 -0.3833
 3341TIP3    H131438   4.175   5.515   1.621 -1.0576 -1.1282  1.2976
 3341TIP3    H231439   4.255   5.440   1.517 -0.7608  1.6543 -0.5995
 3342TIP3   OH231440   0.153   1.634  14.442  0.1292  0.4612 -0.0386
 3342TIP3    H131441   0.240   1.664  14.416  0.4153  0.4399  0.8773
 3342TIP3    H231442   0.136   1.678  14.525  0.1987 -1.2432  0.9128
 3343TIP3   OH231443   2.053   2.366   2.867  0.6744  0.6351  0.4823
 3343TIP3    H131444   2.116   2.438   2.863 -0.7618  1.9002 -0.8768
 3343TIP3    H231445   1.998   2.379   2.790  0.6484 -2.2472 -0.0746
 3344TIP3   OH231446   4.082   5.093   0.939 -0.0553 -0.5322  0.1183
 3344TIP3    H131447   4.017   5.024   0.923 -0.4825 -0.1520  0.1723
 3344TIP3    H231448   4.083   5.103   1.034  0.7198 -1.1276  0.1829
 3345TIP3   OH231449   5.259   3.843   6.488  0.3246  0.0533 -0.2735
 3345TIP3    H131450   5.291   3.754   6.497  1.7205  0.4615 -0.8798
 3345TIP3    H231451   5.246   3.855   6.393  0.1876  0.5053 -0.2020
 3346TIP3   OH231452   2.582   1.433   1.271  0.2117 -0.4454 -0.4171
 3346TIP3    H131453   2.634   1.388   1.338  0.9764 -0.3909 -0.9636
 3346TIP3    H231454   2.573   1.523   1.305  0.3751 -0.4855 -0.2621
 3347TIP3   OH231455   5.844   6.110   9.867 -0.5215 -0.3220  0.3252
 3347TIP3    H131456   5.767   6.093   9.922  0.2572 -2.5658  0.8337
 3347TIP3    H231457   5.899   6.167   9.920 -0.2962 -1.5508  1.4732
 3348TIP3   OH231458   5.855   0.610  14.924  0.9094 -0.2806 -0.2813
 3348TIP3    H131459   5.927   0.624  14.862  0.4327  3.1087 -0.2634
 3348TIP3    H231460   5.891   0.634  15.009 -0.4877  3.2791 -0.4931
 3349TIP3   OH231461   5.266   4.318   2.754 -0.2786  0.0929  0.0554
 3349TIP3    H131462   5.211   4.262   2.810 -0.4359  0.2112  0.0194
 3349TIP3    H231463   5.251   4.285   2.666 -1.1761  0.8503 -0.0915
 3350TIP3   OH231464   2.935   2.434  16.253  0.6969 -0.2211  0.0215
 3350TIP3    H131465   2.942   2.484  16.334  0.0903 -0.6798  0.3622
 3350TIP3    H231466   3.000   2.474  16.195 -0.9792  2.1454 -0.3745
 3351TIP3   OH231467   1.395   3.913  12.489 -0.2015  0.0369  0.0458
 3351TIP3    H131468   1.408   4.008  12.491  0.4209 -0.0533  2.5537
 3351TIP3    H231469   1.331   3.900  12.418  0.8380  2.1269 -1.4041
 3352TIP3   OH231470   6.248   4.647  12.207 -0.1907 -0.3257  0.0217
 3352TIP3    H131471   6.249   4.558  12.170 -1.7236 -0.1283 -0.5566
 3352TIP3    H231472   6.296   4.638  12.290  0.0348 -1.6049 -0.2146
 3353TIP3   OH231473   1.035   0.405   2.081 -0.0673 -0.5153 -0.3387
 3353TIP3    H131474   1.025   0.495   2.112 -0.6088 -0.7990  0.3385
 3353TIP3    H231475   0.964   0.357   2.123  0.9873 -1.5257  0.3763
 3354TIP3   OH231476   3.674   1.064   4.731  0.3006  0.3965  0.4577
 3354TIP3    H131477   3.595   1.036   4.776  0.5907  0.4758  1.0186
 3354TIP3    H231478   3.740   0.999   4.755  0.7370  1.0413  1.0281
 3355TIP3   OH231479   6.605   5.475   4.370  0.1348  0.2378  0.2587
 3355TIP3    H131480   6.562   5.484   4.455 -1.2035 -1.0958 -0.2446
 3355TIP3    H231481   6.546   5.518   4.308 -0.2360 -1.1086 -0.3590
 3356TIP3   OH231482   1.517   4.695  15.390  0.9288  0.1759 -0.3495
 3356TIP3    H131483   1.536   4.616  15.339 -0.2392  0.7025 -1.6209
 3356TIP3    H231484   1.452   4.666  15.454  1.1758 -0.0839 -0.2056
 3357TIP3   OH231485   2.498   2.299   0.392  0.3300 -0.4590  0.2362
 3357TIP3    H131486   2.440   2.335   0.459  0.2323  0.2442 -0.2247
 3357TIP3    H231487   2.444   2.233   0.348  0.1469 -0.3891  0.3512
 3358TIP3   OH231488   5.841   1.825   0.844 -0.5027 -0.4648 -0.5545
 3358TIP3    H131489   5.858   1.915   0.872  0.1612 -0.0811 -2.0706
 3358TIP3    H231490   5.915   1.775   0.875 -0.7426 -0.4366  0.0657
 3359TIP3   OH231491   2.535   1.214  10.963  0.0825  0.2939 -0.3972
 3359TIP3    H131492   2.480   1.255  10.896 -0.0345 -0.3428 -0.6901
 3359TIP3    H231493   2.625   1.225  10.931 -0.0042 -0.4597 -0.9092
 3360TIP3   OH231494   6.302   5.023   3.986  0.3325  0.0506  0.8699
 3360TIP3    H131495   6.255   5.103   3.964  1.4575  0.5610  0.2026
 3360TIP3    H231496   6.358   5.048   4.060  0.6518 -0.1207  0.6913
 3361TIP3   OH231497   6.577   0.917   1.262  0.3469 -0.4319 -0.3233
 3361TIP3    H131498   6.629   0.875   1.331  0.2607  0.6048  0.4013
 3361TIP3    H231499   6.617   1.004   1.252 -0.6802  0.0510 -0.3794
 3362TIP3   OH231500   1.867   4.357   0.135  0.1024  0.0022  0.9048
 3362TIP3    H131501   1.915   4.368   0.218 -0.9648 -0.7529  1.6490
 3362TIP3    H231502   1.926   4.305   0.080  0.9707  0.8169  1.0529
 3363TIP3   OH231503   1.380   1.753   3.196  0.1488 -0.3256 -0.3942
 3363TIP3    H131504   1.385   1.667   3.154 -0.4774 -1.7252  2.2336
 3363TIP3    H231505   1.461   1.761   3.246 -1.0651 -0.7558  1.7395
 3364TIP3   OH231506   0.276   5.828   3.179  0.2498  0.6280 -0.2740
 3364TIP3    H131507   0.303   5.835   3.271 -0.9004 -1.2800  0.2749
 3364TIP3    H231508   0.356   5.805   3.132  0.6027  0.2638  0.4769
 3365TIP3   OH231509   5.383   0.215   0.515  0.0822  0.0628 -0.2356
 3365TIP3    H131510   5.470   0.175   0.507  0.4028  0.6289  0.3145
 3365TIP3    H231511   5.346   0.178   0.594 -0.7239 -1.1617 -1.1584
 3366TIP3   OH231512   3.374   4.354  12.250 -0.1930  0.1322  0.3228
 3366TIP3    H131513   3.459   4.367  12.294 -0.3519  2.1747  0.1537
 3366TIP3    H231514   3.370   4.425  12.186 -2.2047  0.3330  0.6222
 3367TIP3   OH231515   4.496   5.664   5.456 -0.3104  0.6207 -0.3765
 3367TIP3    H131516   4.528   5.743   5.410 -0.7390  0.9868 -0.0542
 3367TIP3    H231517   4.424   5.633   5.401 -0.7436  0.9887 -0.0229
 3368TIP3   OH231518   3.977   0.988  11.995  0.5092  0.5134  0.4884
 3368TIP3    H131519   4.032   0.913  12.017 -1.8301 -0.8439  2.2407
 3368TIP3    H231520   3.960   0.979  11.901 -0.7047 -1.9746  0.8619
 3369TIP3   OH231521   2.861   6.598  12.382 -0.3352 -0.3778 -0.5011
 3369TIP3    H131522   2.933   6.556  12.430 -0.4800  0.8624  0.8655
 3369TIP3    H231523   2.839   6.535  12.313  1.0370 -1.4600 -0.0069
 3370TIP3   OH231524   1.636   3.880   2.115 -0.3862  0.9664  0.4247
 3370TIP3    H131525   1.706   3.945   2.126 -0.0654  0.7409 -0.2139
 3370TIP3    H231526   1.682   3.797   2.101 -0.7937  0.2819  2.8093
 3371TIP3   OH231527   6.581   3.899  11.453  0.4097 -0.2032 -0.2312
 3371TIP3    H131528   6.603   3.923  11.363 -0.5198  0.8295 -0.2035
 3371TIP3    H231529   6.486   3.911  11.459  0.3500 -0.9830  0.6794
 3372TIP3   OH231530   4.474   5.724  11.881 -0.6760  0.3960  0.4863
 3372TIP3    H131531   4.495   5.810  11.845  0.1235 -0.1268 -0.3398
 3372TIP3    H231532   4.547   5.704  11.939  0.0923 -0.5120 -0.7568
 3373TIP3   OH231533   6.275   4.550  14.958  0.6496 -0.0359 -0.2204
 3373TIP3    H131534   6.331   4.486  14.913 -0.5571 -1.0526 -0.3210
 3373TIP3    H231535   6.256   4.509  15.042 -1.6236 -0.6712 -0.9930
 3374TIP3   OH231536   5.214   0.633   2.826  0.5183  0.6548 -0.0411
 3374TIP3    H131537   5.234   0.696   2.756  1.9100 -0.6042 -0.8397
 3374TIP3    H231538   5.218   0.547   2.783 -1.3887 -0.0151  0.9982
 3375TIP3   OH231539   3.939   4.155  14.324 -0.6484  0.1155 -0.0743
 3375TIP3    H131540   3.871   4.157  14.391 -0.2466  1.6296  0.3398
 3375TIP3    H231541   3.921   4.231  14.269  0.9988  0.9249  0.4033
 3376TIP3   OH231542   4.627   0.062   2.868  0.5964 -0.3442 -0.5381
 3376TIP3    H131543   4.570  -0.013   2.851 -1.6078  1.3037 -0.8165
 3376TIP3    H231544   4.690   0.030   2.933  0.7262 -2.8500 -1.7811
 3377TIP3   OH231545   5.754   0.624   5.638  0.0166  0.1748  0.2545
 3377TIP3    H131546   5.744   0.599   5.730 -0.1623  2.4159  0.9090
 3377TIP3    H231547   5.695   0.565   5.591 -0.2601 -0.7002  1.6266
 3378TIP3   OH231548   1.886   5.842  11.067 -0.0580  0.2045  0.4164
 3378TIP3    H131549   1.912   5.772  11.127 -0.1866 -0.2495 -0.0499
 3378TIP3    H231550   1.925   5.817  10.983 -0.0841  0.7082  0.2489
 3379TIP3   OH231551   4.033   3.064   2.999  0.0166 -0.3153 -0.2435
 3379TIP3    H131552   4.024   3.056   2.904 -1.4011 -0.3971 -0.1126
 3379TIP3    H231553   4.060   3.155   3.012 -1.1843  0.1083 -0.6463
 3380TIP3   OH231554   0.391   1.591   4.194 -0.2138 -0.4993 -0.0355
 3380TIP3    H131555   0.407   1.497   4.195 -1.6440 -0.8931 -2.9633
 3380TIP3    H231556   0.322   1.605   4.259 -2.6261 -2.1637 -2.0638
 3381TIP3   OH231557   6.161   5.084   3.041 -0.3930  0.3251 -0.0344
 3381TIP3    H131558   6.220   5.158   3.052  0.0113  0.1831 -1.1737
 3381TIP3    H231559   6.075   5.124   3.027 -0.5886  0.5307  1.5117
 3382TIP3   OH231560   2.217   0.671  12.872  0.0813  0.0371 -0.2993
 3382TIP3    H131561   2.240   0.704  12.959 -0.2432 -2.0750  0.6457
 3382TIP3    H231562   2.138   0.619  12.887 -0.4836  0.3562 -2.0278
 3383TIP3   OH231563   5.626   0.284  14.781 -0.5630 -0.1592  0.2848
 3383TIP3    H131564   5.670   0.322  14.705  0.4288 -1.6636  0.0558
 3383TIP3    H231565   5.542   0.254  14.746 -0.0334 -1.0183 -0.2927
 3384TIP3   OH231566   3.124   3.607  13.171 -0.0763 -0.2367 -0.3562
 3384TIP3    H131567   3.108   3.654  13.252  1.3620 -0.6455  0.2090
 3384TIP3    H231568   3.049   3.627  13.115 -1.0535  0.1080  1.0387
 3385TIP3   OH231569   4.518   1.634   1.179  0.4469  0.9620  0.4910
 3385TIP3    H131570   4.499   1.670   1.265  1.1458  0.6774  0.7743
 3385TIP3    H231571   4.610   1.608   1.184 -0.0749 -1.0680  0.3745
 3386TIP3   OH231572   2.199   1.186  15.695 -0.1826  0.2280  0.0057
 3386TIP3    H131573   2.291   1.214  15.687 -0.1921  0.7663  1.3648
 3386TIP3    H231574   2.152   1.267  15.712 -0.5892 -0.2790  1.4522
 3387TIP3   OH231575   3.600   3.972  14.672 -0.4558  0.7892  0.0052
 3387TIP3    H131576   3.619   3.905  14.738 -0.2027  2.0963  1.3363
 3387TIP3    H231577   3.517   4.010  14.700 -1.5237 -0.1553 -1.7685
 3388TIP3   OH231578   1.908   5.794  16.639  0.2007  0.3541  0.5435
 3388TIP3    H131579   1.955   5.739  16.702 -1.8961  0.0033  1.9265
 3388TIP3    H231580   1.976   5.845  16.595  2.2274 -2.9467 -0.4825
 3389TIP3   OH231581   3.242   5.382  13.801 -0.5142  0.9728  0.1364
 3389TIP3    H131582   3.304   5.405  13.731 -0.0469  1.2699  0.6347
 3389TIP3    H231583   3.195   5.306  13.768 -0.0578  0.9029 -0.3643
 3390TIP3   OH231584   4.623   1.941   2.996  0.0490 -0.4156 -0.1775
 3390TIP3    H131585   4.578   2.025   3.000  1.0053  0.1714 -1.3162
 3390TIP3    H231586   4.711   1.959   3.028  0.0869 -1.1289  0.1489
 3391TIP3   OH231587   2.245   3.357  14.591 -0.3526  0.2897  0.0761
 3391TIP3    H131588   2.245   3.394  14.679 -0.9313  0.1231  0.1501
 3391TIP3    H231589   2.187   3.415  14.541  1.0724  1.2371 -0.5746
 3392TIP3   OH231590   3.620   3.909  13.796 -0.3632  0.1670 -0.6188
 3392TIP3    H131591   3.614   4.004  13.810 -2.9034 -0.0548  0.2668
 3392TIP3    H231592   3.559   3.871  13.859 -0.3048 -2.0002 -1.7644
 3393TIP3   OH231593   5.107   2.069  13.184  0.1361 -0.4833  0.0722
 3393TIP3    H131594   5.171   2.052  13.253  0.5049 -3.1691 -0.8308
 3393TIP3    H231595   5.046   1.995  13.189  0.5094 -1.0886 -2.7726
 3394TIP3   OH231596   5.237   4.183  11.078 -0.1359  0.5130  0.9215
 3394TIP3    H131597   5.284   4.212  11.000 -1.4765  1.8425  0.5550
 3394TIP3    H231598   5.257   4.249  11.144  0.9366 -0.5702  1.7292
 3395TIP3   OH231599   1.584   0.689  13.033 -0.6491  0.4555 -0.1821
 3395TIP3    H131600   1.609   0.694  13.126  0.5382 -1.2093 -0.3659
 3395TIP3    H231601   1.492   0.663  13.035 -0.2025 -1.2929  0.6014
 3396TIP3   OH231602   2.400   3.629  16.042  0.0324 -0.2430  0.5201
 3396TIP3    H131603   2.325   3.612  15.985  0.0282  0.1703  0.4034
 3396TIP3    H231604   2.454   3.692  15.994  0.8927 -1.1789  0.2261
 3397TIP3   OH231605   6.026   0.269  14.848  0.3090  0.0350 -0.3553
 3397TIP3    H131606   6.014   0.331  14.776 -0.7113  0.7851  0.4140
 3397TIP3    H231607   5.971   0.194  14.826  0.0614  0.2306 -0.4158
 3398TIP3   OH231608   1.093   3.769   1.163  0.3501  0.1599 -0.2013
 3398TIP3    H131609   1.057   3.769   1.252 -0.0748 -0.0242 -0.3705
 3398TIP3    H231610   1.185   3.790   1.175  0.7916 -1.8583  0.4960
 3399TIP3   OH231611   4.886   2.097   5.269 -0.7334  0.2830 -0.3644
 3399TIP3    H131612   4.830   2.031   5.311  1.3927 -0.7864  1.0040
 3399TIP3    H231613   4.923   2.146   5.343 -0.3763  1.3891 -1.2587
 3400TIP3   OH231614   2.079   1.162  15.262 -0.6034 -0.1339 -0.3929
 3400TIP3    H131615   2.048   1.233  15.318 -0.9091  1.2055 -2.1859
 3400TIP3    H231616   1.999   1.119  15.232 -0.4134 -1.5396  0.9779
 3401TIP3   OH231617   1.198   5.572   2.790  0.6945  0.2647 -0.2501
 3401TIP3    H131618   1.130   5.631   2.822  0.6182  0.4880 -0.8070
 3401TIP3    H231619   1.255   5.558   2.865  0.5214  0.7768 -0.0173
 3402TIP3   OH231620   4.231   3.486  15.461 -0.2857 -0.6387  0.7064
 3402TIP3    H131621   4.141   3.498  15.492 -0.1549 -0.1839  0.9280
 3402TIP3    H231622   4.285   3.494  15.539 -0.0469 -0.8429  0.5636
 3403TIP3   OH231623   1.511   2.282   3.769 -0.3185  0.0579  0.0822
 3403TIP3    H131624   1.535   2.357   3.823  1.5975  1.1929 -2.1620
 3403TIP3    H231625   1.472   2.320   3.691 -2.1321 -1.4838  0.1803
 3404TIP3   OH231626   0.349   1.307   4.189 -0.0026  0.3324  0.1681
 3404TIP3    H131627   0.340   1.267   4.275  0.6533  0.8493  0.4881
 3404TIP3    H231628   0.284   1.262   4.135 -0.8162  0.3971  1.0638
 3405TIP3   OH231629   3.568   6.441   5.177  0.0976  0.2286  0.3852
 3405TIP3    H131630   3.544   6.523   5.219  0.2336 -0.7219  2.4558
 3405TIP3    H231631   3.663   6.447   5.165  0.1600  0.2428  0.8637
 3406TIP3   OH231632   1.110   0.957  11.237  0.2348  0.4271 -0.0172
 3406TIP3    H131633   1.046   0.909  11.290 -0.6602  1.8017  0.2055
 3406TIP3    H231634   1.146   1.022  11.296  0.7300  0.6563 -0.5641
 3407TIP3   OH231635   1.092   4.398  13.746  0.5495  0.2353  0.0541
 3407TIP3    H131636   1.118   4.330  13.683  0.8282  1.2865 -1.0006
 3407TIP3    H231637   1.173   4.421  13.792  0.7078  0.7212 -0.4604
 3408TIP3   OH231638   1.344   1.352   5.712  0.2483 -0.1914 -0.2686
 3408TIP3    H131639   1.267   1.407   5.698  0.6423 -0.0145 -1.8692
 3408TIP3    H231640   1.345   1.292   5.638  0.9377 -1.0565  0.4203
 3409TIP3   OH231641   0.770   1.666  12.333  0.3578 -0.1890  0.3668
 3409TIP3    H131642   0.676   1.651  12.321  0.1754  0.9865  0.1665
 3409TIP3    H231643   0.811   1.615  12.263 -0.2876  1.1046 -1.0035
 3410TIP3   OH231644   4.252   1.016  11.740 -1.2414  0.3541  0.5024
 3410TIP3    H131645   4.318   0.960  11.699 -0.9383  0.2602  1.1130
 3410TIP3    H231646   4.168   0.981  11.709 -1.1143 -1.1585  1.7675
 3411TIP3   OH231647   0.370   5.354  15.537  0.3698 -0.6517 -0.2982
 3411TIP3    H131648   0.387   5.429  15.481  0.9064 -1.2099 -0.9077
 3411TIP3    H231649   0.289   5.375  15.582  0.0095 -0.1174 -1.1724
 3412TIP3   OH231650   6.010   3.720   6.225  0.1559  0.1335  0.1617
 3412TIP3    H131651   5.922   3.687   6.207 -0.2549  1.9926 -1.5789
 3412TIP3    H231652   6.067   3.673   6.164  0.7277 -2.2432  2.3561
 3413TIP3   OH231653   4.521   3.371   5.457  0.0859 -0.1218  0.2065
 3413TIP3    H131654   4.463   3.366   5.532  1.4290 -0.3205  1.2749
 3413TIP3    H231655   4.609   3.373   5.495  0.8674 -1.5323 -1.3889
 3414TIP3   OH231656   4.538   0.552   5.255  0.0699 -0.6336 -0.6596
 3414TIP3    H131657   4.579   0.465   5.255  0.2811 -0.5703  1.0822
 3414TIP3    H231658   4.563   0.590   5.339 -1.4249  0.4371 -0.6615
 3415TIP3   OH231659   5.521   1.688   2.927  0.1333  0.2317  0.2369
 3415TIP3    H131660   5.553   1.601   2.902 -0.2847 -0.3393  1.5925
 3415TIP3    H231661   5.494   1.678   3.019 -0.9080  1.5310  0.0955
 3416TIP3   OH231662   5.687   1.353  16.088  0.4024 -0.1611 -0.3118
 3416TIP3    H131663   5.645   1.395  16.163  1.4234 -0.5118  0.4932
 3416TIP3    H231664   5.688   1.420  16.020 -0.5150  0.1750 -0.0120
 3417TIP3   OH231665   4.237   6.337   1.763 -0.4706 -0.7288  0.0731
 3417TIP3    H131666   4.151   6.298   1.750 -0.6874 -0.1424 -0.2905
 3417TIP3    H231667   4.264   6.367   1.676  0.0921 -0.8884  0.1871
 3418TIP3   OH231668   6.313   2.721  15.904  0.4327  0.5387 -0.7106
 3418TIP3    H131669   6.389   2.705  15.849  0.7059 -1.2281  0.1277
 3418TIP3    H231670   6.248   2.759  15.844  0.8212 -1.0135 -2.1988
 3419TIP3   OH231671   5.692   1.203   1.286 -0.1435 -0.3153  0.0791
 3419TIP3    H131672   5.722   1.250   1.208  0.8232  1.0757  1.2127
 3419TIP3    H231673   5.630   1.138   1.254  0.9077 -0.3837 -1.9214
 3420TIP3   OH231674   4.075   3.022  10.708 -0.2876 -0.3212 -0.7211
 3420TIP3    H131675   4.014   2.962  10.750 -1.7784 -0.4087 -2.8713
 3420TIP3    H231676   4.155   2.971  10.695 -0.3351 -0.7373  0.5665
 3421TIP3   OH231677   6.037   2.167  12.487  0.1613  0.2548  0.0201
 3421TIP3    H131678   6.128   2.146  12.510 -0.1298  1.5286  2.7246
 3421TIP3    H231679   5.997   2.193  12.570 -2.4514  0.6180 -1.2607
 3422TIP3   OH231680   3.122   5.918   5.296 -0.0615 -0.1233  0.3266
 3422TIP3    H131681   3.118   5.912   5.391  1.1582  2.2081  0.5885
 3422TIP3    H231682   3.206   5.880   5.272 -0.7853 -1.6330  0.0166
 3423TIP3   OH231683   5.897   3.174  12.800 -0.7052  0.5748  0.3363
 3423TIP3    H131684   5.859   3.260  12.781 -3.2161 -0.6969 -0.9784
 3423TIP3    H231685   5.943   3.150  12.719 -0.6152  0.4070  0.4362
 3424TIP3   OH231686   4.814   5.094   5.118 -0.3489 -0.3405 -0.5102
 3424TIP3    H131687   4.839   5.183   5.097 -1.1257  0.0414  0.1116
 3424TIP3    H231688   4.807   5.050   5.034  1.6620 -0.2896 -0.7544
 3425TIP3   OH231689   6.765   0.663  15.673  0.1538 -0.1069  0.2594
 3425TIP3    H131690   6.813   0.710  15.742  0.1529 -1.4837  1.2484
 3425TIP3    H231691   6.674   0.660  15.705  0.1154 -0.5885  0.1183
 3426TIP3   OH231692   1.806   2.367   6.407 -0.5728 -0.4487  0.2461
 3426TIP3    H131693   1.816   2.406   6.320  3.0944 -0.8956  0.3177
 3426TIP3    H231694   1.793   2.273   6.390  0.3855 -0.5705  0.1776
 3427TIP3   OH231695   3.584   1.010   3.270  0.3220 -0.4117 -0.7281
 3427TIP3    H131696   3.516   0.959   3.311 -0.7622  0.7663 -0.9896
 3427TIP3    H231697   3.618   1.067   3.339  2.4446 -2.3078 -0.0923
 3428TIP3   OH231698   3.187   3.026   3.307 -0.6061  0.0672 -0.1342
 3428TIP3    H131699   3.155   2.975   3.381  0.8182  0.9735  1.1562
 3428TIP3    H231700   3.138   3.108   3.311 -1.7315 -0.5109 -1.2451
 3429TIP3   OH231701   5.364   3.794  15.116  0.4635 -0.4881 -0.9525
 3429TIP3    H131702   5.416   3.797  15.196 -0.2629  2.9455 -0.4612
 3429TIP3    H231703   5.428   3.792  15.045  1.1755 -0.1178 -0.3302
 3430TIP3   OH231704   2.095   1.611  16.405 -0.2302  0.1410 -0.4984
 3430TIP3    H131705   2.114   1.525  16.367  3.3320 -0.0556  1.4072
 3430TIP3    H231706   2.043   1.592  16.483  1.6045 -0.4744  0.6164
 3431TIP3   OH231707   5.790   5.255   4.546 -0.1472  0.1598 -0.1468
 3431TIP3    H131708   5.767   5.255   4.639 -0.8994 -0.7983 -0.3123
 3431TIP3    H231709   5.716   5.211   4.504  0.7771 -0.5853 -1.0353
 3432TIP3   OH231710   3.172   1.219  11.803  0.1981  0.0078  0.4862
 3432TIP3    H131711   3.117   1.294  11.778 -0.7483 -1.0064 -0.5633
 3432TIP3    H231712   3.162   1.213  11.898 -0.2712  0.7839  0.4944
 3433TIP3   OH231713   1.137   0.467   4.372 -0.4356 -0.0130  0.2986
 3433TIP3    H131714   1.143   0.538   4.308  0.9945 -0.1701  0.2291
 3433TIP3    H231715   1.053   0.482   4.417 -0.4682  1.3161 -0.1696
 3434TIP3   OH231716   6.493   2.771  12.468  0.1059 -0.2727 -0.7272
 3434TIP3    H131717   6.446   2.707  12.415 -1.7675  1.1134 -0.8693
 3434TIP3    H231718   6.425   2.833  12.496  1.7762  1.5710 -0.5022
 3435TIP3   OH231719   4.703   0.725  14.222 -0.1320  0.2658 -0.2461
 3435TIP3    H131720   4.768   0.689  14.163 -0.0787 -1.0172  0.5519
 3435TIP3    H231721   4.727   0.691  14.308  0.0649  2.4347  0.6309
 3436TIP3   OH231722   0.150   3.899  13.173  0.1590 -0.5499 -0.2359
 3436TIP3    H131723   0.139   3.804  13.177  1.7636 -0.7667 -0.4971
 3436TIP3    H231724   0.082   3.933  13.233  0.4412 -1.9250  0.9286
 3437TIP3   OH231725   2.578   5.600   1.116  0.7537  0.4011  0.2363
 3437TIP3    H131726   2.549   5.672   1.060  1.0007  0.3774  0.0771
 3437TIP3    H231727   2.667   5.581   1.087  0.6124 -0.1180  0.1269
 3438TIP3   OH231728   1.741   2.853   0.087  0.2333 -0.2159 -0.0032
 3438TIP3    H131729   1.686   2.856   0.009 -0.1892  1.4074  0.3232
 3438TIP3    H231730   1.710   2.926   0.141  1.3278 -0.5589  1.1365
 3439TIP3   OH231731   5.682   0.852   2.125  0.4628 -0.0145 -0.0561
 3439TIP3    H131732   5.669   0.765   2.089 -1.4325  0.6536 -1.1507
 3439TIP3    H231733   5.653   0.845   2.216 -1.7685 -0.0924 -0.7142
 3440TIP3   OH231734   1.169   6.409  16.582  0.0186 -0.0663 -0.2387
 3440TIP3    H131735   1.194   6.407  16.675  1.0954 -0.0306 -0.5143
 3440TIP3    H231736   1.075   6.425  16.583  0.0309  0.0311  0.8483
 3441TIP3   OH231737   4.684   0.253  12.856 -0.1887  0.1681  0.7255
 3441TIP3    H131738   4.700   0.212  12.942  1.5438  0.7148  0.7025
 3441TIP3    H231739   4.629   0.329  12.876 -0.8585 -0.4154  1.1677
 3442TIP3   OH231740   2.217   5.826  15.368 -0.0398  0.1779 -0.5568
 3442TIP3    H131741   2.220   5.758  15.435 -0.5146 -0.1172 -0.8343
 3442TIP3    H231742   2.308   5.855  15.359  0.4313 -1.4909 -1.5421
 3443TIP3   OH231743   1.543   1.157   0.175  0.6678 -0.4372  0.0760
 3443TIP3    H131744   1.479   1.162   0.105 -0.7253  0.5123  1.3652
 3443TIP3    H231745   1.626   1.178   0.132  0.1473 -1.5268 -1.5882
 3444TIP3   OH231746   5.445   4.257  10.910 -0.0490 -0.0151 -0.0199
 3444TIP3    H131747   5.434   4.271  10.816 -0.4685  0.6846  0.1239
 3444TIP3    H231748   5.445   4.162  10.920  1.6697 -0.1388 -0.9032
 3445TIP3   OH231749   2.376   2.831   5.852 -0.0592 -0.2851  0.1820
 3445TIP3    H131750   2.404   2.772   5.922 -1.0307 -1.0235 -0.0375
 3445TIP3    H231751   2.385   2.780   5.772  1.2259  0.6210 -0.2773
 3446TIP3   OH231752   0.455   1.522   1.123 -0.4186  0.1209 -0.1576
 3446TIP3    H131753   0.463   1.427   1.115 -0.9843  0.1396 -1.1088
 3446TIP3    H231754   0.375   1.543   1.075 -0.1891  1.1035 -0.1208
 3447TIP3   OH231755   2.679   2.712  13.367  0.0481  0.0239  0.0845
 3447TIP3    H131756   2.618   2.786  13.365 -2.0395 -1.5725  1.1442
 3447TIP3    H231757   2.647   2.652  13.300  0.8133 -0.5748  0.2408
 3448TIP3   OH231758   0.022   4.185   1.558  0.1015  0.2236  0.0941
 3448TIP3    H131759   0.076   4.121   1.603  0.7181  0.4312 -0.3373
 3448TIP3    H231760   0.045   4.269   1.599 -0.5011  0.2082  0.4720
 3449TIP3   OH231761   2.388   0.615  14.837 -0.2179  0.1903  0.0557
 3449TIP3    H131762   2.434   0.698  14.824  1.5822 -0.7475  0.1013
 3449TIP3    H231763   2.330   0.607  14.762  0.5548  0.8924 -0.6293
 3450TIP3   OH231764   1.345   5.622   3.262  0.1473 -0.1951  0.3438
 3450TIP3    H131765   1.291   5.570   3.322  0.9402 -0.2650  1.0054
 3450TIP3    H231766   1.395   5.681   3.319 -0.2683  0.8668 -0.3546
 3451TIP3   OH231767   6.465   3.427  12.165  0.5375 -0.5955 -0.1904
 3451TIP3    H131768   6.414   3.442  12.085  1.0835 -0.0688 -0.4478
 3451TIP3    H231769   6.477   3.332  12.168  0.7045 -0.6023 -0.8566
 3452TIP3   OH231770   3.738   2.394   1.101  0.2511  0.2097 -0.1492
 3452TIP3    H131771   3.790   2.344   1.037 -1.2070 -2.0328  0.2877
 3452TIP3    H231772   3.699   2.465   1.050 -0.9960 -1.5999 -1.8786
 3453TIP3   OH231773   2.685   5.737  12.191  0.3183  0.0057 -0.1397
 3453TIP3    H131774   2.615   5.797  12.165  0.4856  1.8152  3.1435
 3453TIP3    H231775   2.658   5.703  12.276  1.6273 -2.3713 -0.5973
 3454TIP3   OH231776   5.590   0.136  14.295  0.3893  0.0172  0.3350
 3454TIP3    H131777   5.672   0.139  14.245  0.4612  0.9555  0.5026
 3454TIP3    H231778   5.577   0.042  14.313 -0.6703 -0.6514 -3.1242
 3455TIP3   OH231779   5.035   2.172   5.037 -0.0701  0.4407 -0.7554
 3455TIP3    H131780   4.985   2.249   5.012 -0.0578  1.3392  1.7071
 3455TIP3    H231781   4.990   2.138   5.114  1.1332 -0.7734 -0.5456
 3456TIP3   OH231782   6.349   0.903   1.100 -0.4297 -0.0917 -0.4644
 3456TIP3    H131783   6.338   0.813   1.073 -0.4332 -0.8471  1.8116
 3456TIP3    H231784   6.421   0.901   1.163 -0.4970  1.4613 -0.2805
 3457TIP3   OH231785   1.816   3.305   0.329 -0.1842  0.1409  0.0106
 3457TIP3    H131786   1.744   3.350   0.373 -0.4527  1.1391 -1.3765
 3457TIP3    H231787   1.895   3.340   0.370 -0.4085  1.5651 -0.6941
 3458TIP3   OH231788   0.311   3.488  12.391 -0.0335 -0.1211 -0.2531
 3458TIP3    H131789   0.333   3.504  12.299 -2.2153  1.0950 -0.6334
 3458TIP3    H231790   0.267   3.404  12.390  1.4209 -0.9194 -0.0146
 3459TIP3   OH231791   0.311   1.696   6.256  0.1670 -0.1396  0.1161
 3459TIP3    H131792   0.322   1.616   6.205 -0.3709 -1.7678  2.3755
 3459TIP3    H231793   0.226   1.731   6.228  0.0298 -0.8024 -0.3226
 3460TIP3   OH231794   2.623   4.534   5.888  0.2876  0.4620  0.4326
 3460TIP3    H131795   2.586   4.602   5.832  0.4208 -2.1343 -3.1324
 3460TIP3    H231796   2.717   4.536   5.869  0.1189 -1.5347 -0.8603
 3461TIP3   OH231797   0.733   4.290  13.629  0.2874  0.0143 -0.1756
 3461TIP3    H131798   0.764   4.252  13.547  0.6398  0.9559 -0.4989
 3461TIP3    H231799   0.684   4.367  13.602 -0.4406 -0.2205  0.4580
 3462TIP3   OH231800   2.846   4.884   1.175  0.0794  0.0136  0.1118
 3462TIP3    H131801   2.760   4.909   1.209  0.8497  0.4650  1.8150
 3462TIP3    H231802   2.842   4.789   1.164 -0.2776 -0.1175  1.2783
 3463TIP3   OH231803   2.599   1.572  14.655 -0.1002  0.0313  0.5634
 3463TIP3    H131804   2.689   1.566  14.622  0.2413  1.6665  1.0971
 3463TIP3    H231805   2.596   1.510  14.728  0.7404  0.2498  0.7972
 3464TIP3   OH231806   0.941   1.399  12.898  0.3781 -0.0887 -0.5346
 3464TIP3    H131807   0.889   1.402  12.818  0.8434 -0.3094 -0.8559
 3464TIP3    H231808   0.996   1.321  12.887  0.8506  0.2011 -0.2585
 3465TIP3   OH231809   0.718   6.635  12.564  0.0020 -0.2407 -0.1335
 3465TIP3    H131810   0.767   6.711  12.597  0.0313  0.3400 -1.4550
 3465TIP3    H231811   0.692   6.660  12.476  1.6049 -2.4597 -1.3442
 3466TIP3   OH231812   5.619   5.796  15.189  0.1939 -0.4333  0.1959
 3466TIP3    H131813   5.602   5.800  15.094  1.1001  0.6855  0.0577
 3466TIP3    H231814   5.576   5.716  15.217  1.3131 -1.6990 -1.4649
 3467TIP3   OH231815   3.853   0.496   4.476  0.0667 -0.2040  0.1284
 3467TIP3    H131816   3.803   0.421   4.445  2.7122 -1.4089 -1.5577
 3467TIP3    H231817   3.876   0.474   4.567 -0.5993 -0.6073  0.2078
 3468TIP3   OH231818   5.883   5.054  12.494  0.2281 -0.1083  0.4912
 3468TIP3    H131819   5.970   5.023  12.466  0.6737  0.0043  1.6955
 3468TIP3    H231820   5.880   5.036  12.588 -0.4952  1.1891  0.7418
 3469TIP3   OH231821   6.474   1.469  15.364 -0.0566 -0.0728  0.0197
 3469TIP3    H131822   6.450   1.377  15.356  1.7371 -0.5043 -0.7384
 3469TIP3    H231823   6.451   1.492  15.454  2.0303 -2.0783  1.1738
 3470TIP3   OH231824   4.406   6.196   5.367  0.0979  0.5559  0.2931
 3470TIP3    H131825   4.358   6.273   5.338 -1.1322 -0.5338 -0.6529
 3470TIP3    H231826   4.348   6.154   5.431  0.7131  0.3568  0.7292
 3471TIP3   OH231827   4.767   6.320   2.796 -0.0297 -0.1540  0.1833
 3471TIP3    H131828   4.693   6.316   2.856  0.5989  0.6621  1.0535
 3471TIP3    H231829   4.833   6.372   2.843  0.1106  1.3886 -1.6210
 3472TIP3   OH231830   1.671   0.005   2.332  0.2638  0.1449 -0.0879
 3472TIP3    H131831   1.641  -0.071   2.282 -1.7412  1.3977 -0.9344
 3472TIP3    H231832   1.635  -0.009   2.420  1.5339 -0.7750  0.3090
 3473TIP3   OH231833   4.582   4.984  10.928  0.0365  0.5456 -0.4185
 3473TIP3    H131834   4.491   5.012  10.918  0.3305  1.7686  0.1066
 3473TIP3    H231835   4.631   5.043  10.871  0.5711  0.4204 -0.0919
 3474TIP3   OH231836   3.266   4.695  13.207  0.0493 -0.5606  0.2785
 3474TIP3    H131837   3.269   4.772  13.265  0.2558  0.3051 -0.8471
 3474TIP3    H231838   3.180   4.699  13.166 -0.3042 -1.4724  0.8904
 3475TIP3   OH231839   5.648   1.605   5.640 -0.3200 -0.2140  0.1153
 3475TIP3    H131840   5.672   1.625   5.550  3.0607 -0.6908  0.7909
 3475TIP3    H231841   5.671   1.684   5.689  0.1025 -0.7929  0.8739
 3476TIP3   OH231842   0.020   5.793  13.784 -0.2444  0.4902  0.3461
 3476TIP3    H131843  -0.055   5.831  13.831 -0.4640  3.3072 -1.9686
 3476TIP3    H231844   0.086   5.779  13.852 -1.3817  2.0089  1.8670
 3477TIP3   OH231845   4.937   5.573   4.509  0.0226 -0.2361  0.4073
 3477TIP3    H131846   4.962   5.662   4.534 -2.1519  0.1450  1.5010
 3477TIP3    H231847   4.890   5.583   4.427  1.4580 -0.6645 -0.4993
 3478TIP3   OH231848   1.299   1.885   1.205 -1.2003 -0.3499  0.0032
 3478TIP3    H131849   1.361   1.814   1.220  1.0108  1.4868  0.0888
 3478TIP3    H231850   1.295   1.894   1.110 -0.4427  0.2248  0.0144
 3479TIP3   OH231851   6.068   2.429  14.045  0.0224  0.1465  0.3300
 3479TIP3    H131852   6.011   2.396  13.975 -0.7831 -1.5329  1.7245
 3479TIP3    H231853   6.009   2.470  14.108  0.6310  0.6214  0.6130
 3480TIP3   OH231854   6.055   1.728  11.649 -0.2017  0.2854  0.3909
 3480TIP3    H131855   6.015   1.690  11.570  0.6482  0.1680  0.0071
 3480TIP3    H231856   5.991   1.793  11.679  0.4416  2.0250 -1.7281
 3481TIP3   OH231857   3.528   3.238  13.465 -0.3736  0.0473 -0.4355
 3481TIP3    H131858   3.441   3.279  13.471 -1.6713 -2.4353 -0.8513
 3481TIP3    H231859   3.545   3.233  13.371 -0.0048  0.0874 -0.3712
 3482TIP3   OH231860   4.616   2.196  11.363 -0.0792 -0.8737 -0.2662
 3482TIP3    H131861   4.650   2.251  11.433 -2.2860  0.7561 -0.3608
 3482TIP3    H231862   4.690   2.184  11.303  0.6101  1.6951 -0.0342
 3483TIP3   OH231863   6.553   5.279  14.414 -0.5891  0.1821  0.1330
 3483TIP3    H131864   6.545   5.356  14.469 -1.7772  1.7381 -2.0669
 3483TIP3    H231865   6.494   5.215  14.453  0.9416  0.0430  2.4047
 3484TIP3   OH231866   1.586   3.467  11.360  0.6004 -0.5877  0.1223
 3484TIP3    H131867   1.501   3.452  11.319  0.2281  0.4009  0.4802
 3484TIP3    H231868   1.588   3.408  11.435  1.0113 -1.9336 -0.9279
 3485TIP3   OH231869   0.193   6.641   2.644 -0.4568  0.2204 -0.3008
 3485TIP3    H131870   0.210   6.672   2.555  0.7822 -1.4909 -0.6986
 3485TIP3    H231871   0.109   6.595   2.638  0.7044 -1.9312 -1.1896
 3486TIP3   OH231872   3.968   3.883  11.245  0.4834  0.6185  0.6897
 3486TIP3    H131873   4.037   3.823  11.216 -0.5256 -0.1479 -0.2168
 3486TIP3    H231874   3.933   3.919  11.163 -0.7682  0.3171  1.0772
 3487TIP3   OH231875   1.629   5.749   4.684  0.0341 -1.5165 -0.5831
 3487TIP3    H131876   1.710   5.791   4.657 -0.7947 -0.1008 -0.9639
 3487TIP3    H231877   1.621   5.767   4.777 -0.8755  0.2220 -0.9582
 3488TIP3   OH231878   3.361   0.046   0.424  0.0091  0.0962 -0.0180
 3488TIP3    H131879   3.419  -0.030   0.412 -1.5150 -0.8112 -2.2316
 3488TIP3    H231880   3.302   0.020   0.494  0.2750 -0.2716  0.0740
 3489TIP3   OH231881   0.142   2.772  14.141  0.6722  0.1739 -0.2400
 3489TIP3    H131882   0.092   2.717  14.081  1.7764 -0.5193 -0.5592
 3489TIP3    H231883   0.134   2.861  14.105 -0.4196  0.0972 -0.2036
 3490TIP3   OH231884   2.770   4.409  13.913 -0.7514  0.0211 -0.0918
 3490TIP3    H131885   2.837   4.465  13.873  0.2394 -2.3054 -1.9455
 3490TIP3    H231886   2.810   4.380  13.995  1.0032 -1.9943 -1.5518
 3491TIP3   OH231887   1.157   4.339   4.489  0.2684  0.2972 -0.1966
 3491TIP3    H131888   1.068   4.329   4.523 -0.7876 -0.0570 -2.8281
 3491TIP3    H231889   1.177   4.432   4.501 -0.2735  0.3031  0.7713
 3492TIP3   OH231890   2.249   2.444  11.751  0.7058 -0.0700  0.1313
 3492TIP3    H131891   2.263   2.362  11.705  4.8522  0.4105  0.1176
 3492TIP3    H231892   2.260   2.512  11.684  1.4843  0.5380  0.8508
 3493TIP3   OH231893   2.078   1.839  13.963  0.1245 -0.3243 -0.3356
 3493TIP3    H131894   2.149   1.893  13.996  1.1134 -1.0270 -1.2505
 3493TIP3    H231895   2.000   1.873  14.007  1.0404  0.3188  0.8529
 3494TIP3   OH231896   0.489   0.780   4.500 -0.4706 -0.2872  0.2813
 3494TIP3    H131897   0.450   0.695   4.480  0.0033 -0.8658  1.7217
 3494TIP3    H231898   0.565   0.760   4.554 -1.0136  1.0906  1.6390
 3495TIP3   OH231899   1.065   3.840   5.595  0.2065 -0.2996  0.1062
 3495TIP3    H131900   1.018   3.801   5.669 -2.0878 -0.9044 -1.5733
 3495TIP3    H231901   1.076   3.768   5.533 -0.5360  0.7935 -1.3567
 3496TIP3   OH231902   4.976   4.576  14.740  0.2414  0.4215 -0.2570
 3496TIP3    H131903   5.053   4.536  14.782 -0.0152 -0.6547 -0.7822
 3496TIP3    H231904   4.920   4.601  14.813  0.3349 -0.3451  0.0878
 3497TIP3   OH231905   0.632   1.453   4.798  0.1884 -0.6165 -0.4165
 3497TIP3    H131906   0.699   1.389   4.775 -1.0434 -2.1381  0.1159
 3497TIP3    H231907   0.620   1.443   4.892 -0.2528  0.1871 -0.3771
 3498TIP3   OH231908   1.408   1.463  15.977  0.2485  0.0626  0.7514
 3498TIP3    H131909   1.378   1.552  15.956  1.1385  0.1014 -0.4822
 3498TIP3    H231910   1.461   1.474  16.056  0.6898  0.7185  0.3808
 3499TIP3   OH231911   5.367   4.710  14.257  0.4189 -0.3623 -0.4987
 3499TIP3    H131912   5.306   4.708  14.184  0.3406  0.7599 -0.4755
 3499TIP3    H231913   5.399   4.619  14.264 -1.0490 -0.9196 -0.6534
 3500TIP3   OH231914   2.496   1.728   6.146  0.0712  0.8263 -0.0923
 3500TIP3    H131915   2.438   1.784   6.198  0.6834  0.0602  1.4629
 3500TIP3    H231916   2.530   1.664   6.208 -0.8357 -1.5187 -1.8596
 3501TIP3   OH231917   0.069   0.390   5.230  0.2176 -0.4915 -0.0990
 3501TIP3    H131918   0.100   0.359   5.145  0.1648 -1.8494  0.3557
 3501TIP3    H231919   0.149   0.403   5.281  0.3822  2.1810 -0.9215
 3502TIP3   OH231920   5.819   1.119  10.570 -0.0891  0.2110  0.2447
 3502TIP3    H131921   5.845   1.190  10.510 -0.4925 -0.0238 -0.2146
 3502TIP3    H231922   5.770   1.058  10.515  1.2382 -1.0157  0.3796
 3503TIP3   OH231923   5.082   3.354  13.732  0.0463  0.0630  0.7122
 3503TIP3    H131924   5.128   3.326  13.812 -0.3368 -1.1420  0.5127
 3503TIP3    H231925   5.139   3.423  13.696  1.6497 -1.2725  0.5550
 3504TIP3   OH231926   2.871   4.450   6.089  0.1738 -0.4409  0.0329
 3504TIP3    H131927   2.846   4.537   6.120  0.1811 -1.0502  1.9009
 3504TIP3    H231928   2.802   4.392   6.121  0.8737 -1.3019  0.0282
 3505TIP3   OH231929   4.703   6.280   0.394 -0.2500 -0.2672  0.0265
 3505TIP3    H131930   4.657   6.206   0.433  1.0000 -1.0682  0.0451
 3505TIP3    H231931   4.655   6.357   0.424 -1.5971 -1.0543 -0.0089
 3506TIP3   OH231932   1.639   3.442   2.236  0.0149 -0.2759  0.3395
 3506TIP3    H131933   1.592   3.361   2.218  0.0596 -0.1284 -0.4988
 3506TIP3    H231934   1.638   3.450   2.332 -0.4066 -1.0098  0.4048
 3507TIP3   OH231935   3.535   0.209   6.234 -0.2416  0.3519 -0.2149
 3507TIP3    H131936   3.520   0.302   6.255 -0.7997  0.0375  0.8401
 3507TIP3    H231937   3.611   0.210   6.177  0.9975  1.3407  1.3428
 3508TIP3   OH231938   2.164   6.445   2.847  0.5107  0.1880  0.4409
 3508TIP3    H131939   2.164   6.535   2.878  4.4163  0.8574 -0.9185
 3508TIP3    H231940   2.088   6.439   2.789  0.8122  3.0354 -0.3880
 3509TIP3   OH231941   2.745   1.590  15.352  0.1713  0.2351 -0.2581
 3509TIP3    H131942   2.738   1.589  15.448 -2.1330  2.0407 -0.3214
 3509TIP3    H231943   2.804   1.517  15.332  1.3308  0.2566  2.5437
 3510TIP3   OH231944   3.371   3.853  13.450 -0.0681  0.1849 -0.3615
 3510TIP3    H131945   3.398   3.926  13.394  2.2073 -0.3061 -0.0002
 3510TIP3    H231946   3.303   3.808  13.399 -1.1535  2.2184 -0.8019
 3511TIP3   OH231947   4.724   2.013   3.350 -0.2399  0.3746 -0.0773
 3511TIP3    H131948   4.649   1.955   3.342 -2.3504  3.0122 -1.3175
 3511TIP3    H231949   4.751   2.031   3.260 -1.1387  2.9398  0.0692
 3512TIP3   OH231950   6.032   0.418  11.101  0.4673  0.3025 -0.2859
 3512TIP3    H131951   6.056   0.397  11.011  0.8158  2.0146 -0.6285
 3512TIP3    H231952   5.937   0.402  11.105  0.5606 -0.4043 -0.7651
 3513TIP3   OH231953   5.201   5.729  12.636 -0.3768 -0.2674 -0.0672
 3513TIP3    H131954   5.291   5.761  12.646 -0.7428  0.6345  0.5603
 3513TIP3    H231955   5.150   5.785  12.695 -1.9209  1.7580 -3.0435
 3514TIP3   OH231956   3.336   4.699   5.919 -0.6648  0.0670 -0.4981
 3514TIP3    H131957   3.256   4.693   5.971  0.5799 -2.0083  1.4163
 3514TIP3    H231958   3.400   4.737   5.979  0.3692 -0.6286 -1.1264
 3515TIP3   OH231959   4.380   2.915   4.878 -0.3179  0.2590  0.2876
 3515TIP3    H131960   4.432   2.964   4.941  0.8394 -2.0542  1.2674
 3515TIP3    H231961   4.299   2.964   4.869  0.1524  1.5118  2.3478
 3516TIP3   OH231962   5.606   1.329   4.819  0.0247 -0.7230  0.0634
 3516TIP3    H131963   5.612   1.381   4.899 -1.0257  0.0122 -0.2963
 3516TIP3    H231964   5.514   1.301   4.816 -0.3501  0.4791 -1.5736
 3517TIP3   OH231965   1.823   6.430  14.087  0.5299 -0.2737 -0.3006
 3517TIP3    H131966   1.875   6.366  14.136  0.8458  0.3519  0.2006
 3517TIP3    H231967   1.764   6.377  14.033  0.2125 -0.9922  0.7149
 3518TIP3   OH231968   6.711   1.066   0.413 -0.8578 -0.0435 -0.4451
 3518TIP3    H131969   6.664   1.129   0.357 -1.2548 -0.2789 -0.3834
 3518TIP3    H231970   6.799   1.064   0.378 -0.6208  1.1300  0.0151
 3519TIP3   OH231971   5.542   2.606  11.226  0.1501  0.2162 -0.1153
 3519TIP3    H131972   5.472   2.619  11.290 -0.1809  0.7077 -0.5594
 3519TIP3    H231973   5.620   2.587  11.278 -0.4244 -0.9095  0.3662
 3520TIP3   OH231974   5.504   1.699  11.833  0.4000 -0.1003  0.5727
 3520TIP3    H131975   5.515   1.654  11.749 -1.1704  0.2008  0.1821
 3520TIP3    H231976   5.429   1.655  11.874  1.7972 -0.9787  2.3347
 3521TIP3   OH231977   4.334   1.662  13.360 -0.1186 -0.6082 -0.1502
 3521TIP3    H131978   4.364   1.733  13.416  3.8405 -2.7017  0.7583
 3521TIP3    H231979   4.334   1.699  13.272  3.4044  0.2978  0.0766
 3522TIP3   OH231980   1.112   4.273   3.323 -0.0758  0.6072  0.3121
 3522TIP3    H131981   1.062   4.287   3.242 -1.3125  1.2332  1.1467
 3522TIP3    H231982   1.189   4.223   3.296 -0.8808  0.0902 -1.1209
 3523TIP3   OH231983   4.401   2.304   2.418  0.1893  0.1874 -0.4197
 3523TIP3    H131984   4.394   2.229   2.477 -0.5972  1.1658  0.7652
 3523TIP3    H231985   4.315   2.345   2.421 -0.5635 -0.8375 -3.8281
 3524TIP3   OH231986   5.124   4.674  16.954  0.0854  0.0349  0.3789
 3524TIP3    H131987   5.063   4.688  17.027  1.2637  0.7866  1.2407
 3524TIP3    H231988   5.157   4.585  16.967  0.3650  0.2035  0.8164
 3525TIP3   OH231989   5.022   0.023  15.889  0.5875 -0.5902 -0.5455
 3525TIP3    H131990   5.063  -0.050  15.842  1.3160 -1.1727  0.9060
 3525TIP3    H231991   5.096   0.077  15.917  0.0528  0.8111 -1.6916
 3526TIP3   OH231992   5.355   2.767  13.724 -0.9842  0.7268 -0.6395
 3526TIP3    H131993   5.357   2.834  13.793 -0.3316 -0.5729  0.6622
 3526TIP3    H231994   5.270   2.725  13.735  0.2429 -1.4464  1.4217
 3527TIP3   OH231995   6.263   1.742   6.079  0.1563  0.3377 -0.1652
 3527TIP3    H131996   6.300   1.812   6.025  0.9410 -0.9458 -1.3475
 3527TIP3    H231997   6.312   1.747   6.161 -0.8595  2.1280  0.3997
 3528TIP3   OH231998   1.296   5.136  15.914 -0.4726 -0.1801 -0.2531
 3528TIP3    H131999   1.234   5.194  15.957  0.6727 -0.3346  1.7402
 3528TIP3    H232000   1.250   5.053  15.907 -0.7062 -0.1481  0.7021
 3529TIP3   OH232001   1.907   3.636   1.160 -0.5093 -0.1580  0.3543
 3529TIP3    H132002   1.951   3.553   1.141 -0.0988 -0.3264  1.9479
 3529TIP3    H232003   1.913   3.685   1.077 -0.6209 -1.6279 -0.5637
 3530TIP3   OH232004   4.437   1.427   0.104  0.2509  0.1879  0.0547
 3530TIP3    H132005   4.387   1.485   0.046  0.0283  0.2647  0.3224
 3530TIP3    H232006   4.507   1.482   0.139 -0.2848  0.4526  0.7375
 3531TIP3   OH232007   0.355   2.097   0.073 -0.2778  0.7982 -0.0871
 3531TIP3    H132008   0.397   2.051   0.146  0.2282 -0.2208 -0.9912
 3531TIP3    H232009   0.316   2.175   0.113 -2.5769 -1.1530  1.8666
 3532TIP3   OH232010   2.278   3.684   2.832 -0.0244  0.0769  0.0169
 3532TIP3    H132011   2.279   3.601   2.878  2.2027  0.6853  1.2320
 3532TIP3    H232012   2.226   3.742   2.887 -0.1329 -0.0719  0.0688
 3533TIP3   OH232013   3.453   6.677   4.014  0.3356  0.4274 -0.1381
 3533TIP3    H132014   3.467   6.771   4.005  1.8124  0.3376  1.0644
 3533TIP3    H232015   3.498   6.639   3.939 -0.7486  0.6823 -0.9495
 3534TIP3   OH232016   2.385   0.773  13.321  0.9166 -0.3475  0.0186
 3534TIP3    H132017   2.335   0.730  13.251 -0.1767  2.8788 -1.3855
 3534TIP3    H232018   2.319   0.805  13.382  1.3401  1.9418 -0.6297
 3535TIP3   OH232019   5.084   5.684  12.010  0.3570 -0.2002 -0.6441
 3535TIP3    H132020   5.153   5.727  12.060  0.2807 -0.9493  0.1449
 3535TIP3    H232021   5.051   5.751  11.951  1.8887  0.1224 -1.1872
 3536TIP3   OH232022   4.345   6.456  13.236  0.0348 -0.6153 -0.5824
 3536TIP3    H132023   4.417   6.396  13.218  0.4793 -0.3658  0.3162
 3536TIP3    H232024   4.300   6.418  13.311  1.1681  0.8473  0.9183
 3537TIP3   OH232025   1.321   3.727  10.908 -0.2358  0.0362 -0.3995
 3537TIP3    H132026   1.262   3.653  10.925 -0.0523 -0.0755 -0.2525
 3537TIP3    H232027   1.341   3.720  10.815 -1.0838  0.5354 -0.6336
 3538TIP3   OH232028   3.701   3.842   0.982  0.4719 -0.4048 -0.0373
 3538TIP3    H132029   3.761   3.852   0.907 -0.3115 -1.2978 -0.8107
 3538TIP3    H232030   3.742   3.893   1.052  1.4098  0.1625 -0.9653
 3539TIP3   OH232031   6.487   4.915  11.587  0.0190 -0.4270  0.2775
 3539TIP3    H132032   6.406   4.921  11.637  1.0165 -0.7889  2.0323
 3539TIP3    H232033   6.489   4.825  11.555 -0.9873  0.0144 -1.1493
 3540TIP3   OH232034   6.141   0.882  15.004 -0.1578  0.1880 -0.0074
 3540TIP3    H132035   6.057   0.851  15.036 -0.7607  1.1999 -0.5687
 3540TIP3    H232036   6.140   0.976  15.022  1.8331 -0.0886  2.1369
 3541TIP3   OH232037   2.500   1.267   6.400  0.3212 -0.1107 -0.1674
 3541TIP3    H132038   2.541   1.216   6.330  0.7281 -0.2747  0.1844
 3541TIP3    H232039   2.571   1.319   6.436 -0.2175  1.2125 -0.9459
 3542TIP3   OH232040   3.576   2.999   2.757 -0.0250  0.1480 -0.2608
 3542TIP3    H132041   3.583   3.095   2.754 -1.6096  0.2714 -2.3011
 3542TIP3    H232042   3.658   2.969   2.718 -0.9003  0.8544 -2.8875
 3543TIP3   OH232043   4.347   5.902   0.086 -0.1427  0.0230  0.2600
 3543TIP3    H132044   4.418   5.873   0.144  0.2434 -1.1835 -0.7767
 3543TIP3    H232045   4.392   5.929   0.006 -0.8534 -0.7950 -0.4265
 3544TIP3   OH232046   1.085   1.669   0.633  0.2863  0.5002  0.3450
 3544TIP3    H132047   1.034   1.619   0.570 -0.5223  1.4846  0.1969
 3544TIP3    H232048   1.111   1.748   0.585  1.0680  0.5013  0.7475
 3545TIP3   OH232049   4.280   4.953   0.367 -0.1697 -0.4821 -0.4025
 3545TIP3    H132050   4.196   4.912   0.347 -0.7378  1.8451 -3.5304
 3545TIP3    H232051   4.264   5.047   0.362  2.0707  0.1511  1.8341
 3546TIP3   OH232052   6.556   1.729   2.104  0.0198 -0.4985 -0.0411
 3546TIP3    H132053   6.629   1.789   2.120 -1.3603  1.8486 -1.8481
 3546TIP3    H232054   6.596   1.657   2.056  1.4460 -0.2044  0.6211
 3547TIP3   OH232055   4.518   4.475  14.571 -0.2032 -0.1205  0.4786
 3547TIP3    H132056   4.521   4.567  14.595  1.8978  0.4331 -1.5979
 3547TIP3    H232057   4.431   4.463  14.533 -0.8048  0.7528  1.5062
 3548TIP3   OH232058   4.909   4.057   0.478  0.0868  0.1644 -0.9062
 3548TIP3    H132059   4.828   4.100   0.505 -0.0447 -0.0478 -0.9686
 3548TIP3    H232060   4.963   4.057   0.557 -0.6183 -1.2172 -0.4065
 3549TIP3   OH232061   1.406   2.407   5.932 -0.3015 -0.4879  0.3002
 3549TIP3    H132062   1.439   2.372   6.015 -0.0194  1.1170  0.8939
 3549TIP3    H232063   1.419   2.336   5.870  0.6346 -1.2885  1.3646
 3550TIP3   OH232064   1.798   4.630  10.888 -0.4305  0.2477 -0.8200
 3550TIP3    H132065   1.741   4.648  10.813 -0.2022  0.2915 -0.9806
 3550TIP3    H232066   1.832   4.542  10.872 -1.6261 -0.3975  0.0149
 3551TIP3   OH232067   5.247   5.401   4.686 -0.1029 -0.1627  0.7083
 3551TIP3    H132068   5.252   5.496   4.695  0.0060 -0.2229  1.3706
 3551TIP3    H232069   5.221   5.386   4.595 -1.4004  0.5235  0.9452
 3552TIP3   OH232070   6.632   5.499  16.399 -0.1695 -0.2123  0.5002
 3552TIP3    H132071   6.583   5.510  16.318  1.0342  0.1688 -0.1994
 3552TIP3    H232072   6.701   5.437  16.377  0.2425 -0.0132  1.2029
 3553TIP3   OH232073   6.156   2.696  12.574  0.8512 -0.1784  0.2382
 3553TIP3    H132074   6.186   2.631  12.511  0.9318 -0.4990  0.6056
 3553TIP3    H232075   6.150   2.649  12.657 -1.0621 -0.2428  0.1208
 3554TIP3   OH232076   0.031   4.709  13.962 -0.5776 -0.0114  0.2909
 3554TIP3    H132077   0.083   4.661  13.897 -0.5299 -0.2853  0.5302
 3554TIP3    H232078   0.043   4.801  13.939  0.4157 -0.0384  0.6435
 3555TIP3   OH232079   2.549   2.366  11.593 -0.2662 -0.5989 -0.7666
 3555TIP3    H132080   2.610   2.368  11.520 -1.5813  2.1047 -1.9219
 3555TIP3    H232081   2.604   2.362  11.671  1.2763 -0.6491 -1.8232
 3556TIP3   OH232082   5.078   2.440  16.660  0.3577 -0.2541  0.6683
 3556TIP3    H132083   5.140   2.373  16.632 -0.5779 -0.8965  0.0831
 3556TIP3    H232084   5.122   2.523  16.642  0.4394 -0.6720 -1.2282
 3557TIP3   OH232085   3.110   3.697  15.274  0.4707 -0.0851 -0.9476
 3557TIP3    H132086   3.050   3.726  15.206 -0.3631  1.2254  0.3043
 3557TIP3    H232087   3.172   3.769  15.284 -0.3434  0.4152  0.7283
 3558TIP3   OH232088   0.480   2.370   1.945 -0.2629 -0.5411 -0.1708
 3558TIP3    H132089   0.512   2.460   1.941 -0.5129 -0.4654 -0.4306
 3558TIP3    H232090   0.557   2.317   1.923 -0.2415 -0.3714 -0.5027
 3559TIP3   OH232091   3.463   3.329  14.500 -0.9098 -0.4967  0.0326
 3559TIP3    H132092   3.399   3.261  14.480  0.0342 -1.4831  0.3032
 3559TIP3    H232093   3.507   3.299  14.580 -1.6864  1.3022  1.2096
 3560TIP3   OH232094   2.176   1.618   6.351  0.5586 -0.5449 -0.0806
 3560TIP3    H132095   2.083   1.637   6.363  1.3204  2.9361  1.3983
 3560TIP3    H232096   2.180   1.576   6.265 -2.1639  1.4519 -1.3465
 3561TIP3   OH232097   4.011   6.595  15.153 -0.2437  0.6304  0.4062
 3561TIP3    H132098   3.979   6.549  15.231  0.5849 -0.3019  0.2142
 3561TIP3    H232099   3.957   6.674  15.149 -1.1724  0.0698  1.1902
 3562TIP3   OH232100   1.423   6.236  13.781 -0.4851  0.0832  0.2148
 3562TIP3    H132101   1.414   6.162  13.722 -1.6961 -0.8961  1.5436
 3562TIP3    H232102   1.333   6.264  13.800 -0.1780  0.1105  1.8527
 3563TIP3   OH232103   6.677   4.519   0.346 -0.3704 -0.4938  0.0810
 3563TIP3    H132104   6.695   4.436   0.391  3.3776  0.1588  0.1237
 3563TIP3    H232105   6.717   4.585   0.401 -1.7415  1.1656 -0.8368
 3564TIP3   OH232106   4.204   4.776   5.899  0.1594 -0.2028  0.0751
 3564TIP3    H132107   4.242   4.786   5.986  0.4674 -0.0348 -0.0764
 3564TIP3    H232108   4.115   4.746   5.915  0.2133 -0.1681  0.4490
 3565TIP3   OH232109   6.466   4.594  15.901  0.5029  0.0821  0.2553
 3565TIP3    H132110   6.529   4.539  15.854 -0.8510 -0.2084 -1.2918
 3565TIP3    H232111   6.456   4.551  15.986  0.2965 -1.4883 -0.5180
 3566TIP3   OH232112   3.858   3.750   4.387 -0.1504  0.0389  0.5405
 3566TIP3    H132113   3.802   3.765   4.463 -1.7430 -2.2517 -0.0593
 3566TIP3    H232114   3.895   3.835   4.366 -1.1979  1.0876  2.6957
 3567TIP3   OH232115   4.722   3.803  15.605  0.1886 -0.3067  0.0862
 3567TIP3    H132116   4.789   3.869  15.588 -1.0758  1.0882  0.2352
 3567TIP3    H232117   4.655   3.850  15.656 -1.3219 -1.3586 -0.8372
 3568TIP3   OH232118   5.287   6.534  12.547  0.1422  0.3213  0.0622
 3568TIP3    H132119   5.342   6.597  12.499  0.4416  1.0373  1.2958
 3568TIP3    H232120   5.198   6.565  12.531  0.2430  0.6037  0.0260
 3569TIP3   OH232121   1.650   6.386   3.559 -0.4844  0.0739 -0.0210
 3569TIP3    H132122   1.572   6.332   3.574 -0.3329 -0.1008  0.1504
 3569TIP3    H232123   1.630   6.469   3.603 -1.4778  0.8551 -1.8483
 3570TIP3   OH232124   2.542   4.105   6.457 -0.6138 -0.3581  0.5257
 3570TIP3    H132125   2.458   4.074   6.491  0.0148 -0.2498  2.2824
 3570TIP3    H232126   2.561   4.183   6.509  0.4706 -0.2370 -0.0250
 3571TIP3   OH232127   3.464   0.465   6.311 -0.1909  0.3732  0.4711
 3571TIP3    H132128   3.493   0.542   6.262 -1.5392  0.4515 -0.2701
 3571TIP3    H232129   3.444   0.497   6.399  0.3901  0.6332  0.5055
 3572TIP3   OH232130   3.085   3.486  13.959 -0.6289  0.4479  0.3034
 3572TIP3    H132131   3.083   3.473  14.054 -4.5627 -0.0981  0.3426
 3572TIP3    H232132   3.141   3.415  13.926 -0.2744 -0.1754  2.1375
 3573TIP3   OH232133   4.653   5.687   2.781  0.1955 -0.0418 -0.6182
 3573TIP3    H132134   4.610   5.764   2.818 -0.3654  0.8978 -3.0420
 3573TIP3    H232135   4.670   5.630   2.857 -1.6621  1.3224  0.9180
 3574TIP3   OH232136   3.658   1.541  13.063  0.1884  0.1932 -0.3358
 3574TIP3    H132137   3.650   1.582  13.149 -0.5028 -0.9972  0.1932
 3574TIP3    H232138   3.593   1.470  13.064 -0.5039  0.7465 -2.1831
 3575TIP3   OH232139   1.575   4.979   5.922  0.0947 -0.3317  0.6255
 3575TIP3    H132140   1.534   5.032   5.991  1.3414  1.3263  0.1832
 3575TIP3    H232141   1.510   4.913   5.899 -0.1865 -1.2649  3.7071
 3576TIP3   OH232142   5.554   6.045  15.879  0.3096  0.2059  0.7171
 3576TIP3    H132143   5.583   6.115  15.821  0.6825 -0.2981  0.2888
 3576TIP3    H232144   5.615   6.048  15.953 -0.3035  0.9945  1.2111
 3577TIP3   OH232145   1.813   0.282  13.738  0.5883 -0.2947 -0.1422
 3577TIP3    H132146   1.769   0.275  13.653  1.7489  1.2802 -0.9290
 3577TIP3    H232147   1.887   0.222  13.732  1.0783  0.3308 -0.5511
 3578TIP3   OH232148   2.156   1.501  12.451  0.6216  0.3726 -0.2248
 3578TIP3    H132149   2.180   1.424  12.400 -0.7159  0.1562 -0.5674
 3578TIP3    H232150   2.147   1.571  12.386 -1.5528 -0.0105 -0.4274
 3579TIP3   OH232151   5.408   2.958   0.042 -0.3703 -0.0231 -0.0869
 3579TIP3    H132152   5.427   2.866   0.060 -0.3977 -0.1631 -0.7393
 3579TIP3    H232153   5.425   2.968  -0.052 -2.0110  0.2214 -0.3849
 3580TIP3   OH232154   1.432   6.582  10.516 -0.2155  0.6644 -0.0030
 3580TIP3    H132155   1.525   6.576  10.498 -0.3287 -1.3186 -0.1492
 3580TIP3    H232156   1.423   6.558  10.609 -0.5706  0.8921  0.0264
 3581TIP3   OH232157   1.264   5.085   3.279  0.8238  0.2676  0.1777
 3581TIP3    H132158   1.343   5.032   3.293 -0.2913 -1.3858  0.5095
 3581TIP3    H232159   1.216   5.078   3.361  0.0153  0.6762 -0.2581
 3582TIP3   OH232160   0.714   2.500   0.237 -0.1927  0.4187 -0.2773
 3582TIP3    H132161   0.714   2.581   0.287 -1.5426  0.4708 -0.3185
 3582TIP3    H232162   0.735   2.432   0.301 -2.8589  0.3632  0.6539
 3583TIP3   OH232163   1.575   6.363   1.496 -0.3051 -0.0903 -0.1778
 3583TIP3    H132164   1.504   6.300   1.486  0.3052 -0.8614  0.2154
 3583TIP3    H232165   1.549   6.437   1.442 -1.8531  0.0458  0.6748
 3584TIP3   OH232166   1.401   2.821  15.773 -0.5984 -0.5781 -0.1878
 3584TIP3    H132167   1.494   2.800  15.780 -0.2808  0.4447 -1.0080
 3584TIP3    H232168   1.399   2.915  15.755 -1.8533 -0.3107  1.1285
 3585TIP3   OH232169   0.441   2.156   5.791 -0.8609  0.3180  0.1742
 3585TIP3    H132170   0.476   2.068   5.777 -0.0658  0.3473  1.7555
 3585TIP3    H232171   0.405   2.181   5.706  1.3382 -0.4361 -1.0602
 3586TIP3   OH232172   6.740   3.228   0.313 -0.3737 -0.0946  0.1576
 3586TIP3    H132173   6.667   3.259   0.259 -0.9424  0.8427  1.4183
 3586TIP3    H232174   6.737   3.133   0.304 -2.1004 -0.1216  0.5865
 3587TIP3   OH232175   2.116   5.638  16.324 -0.2981 -0.1854 -0.0588
 3587TIP3    H132176   2.056   5.676  16.260  0.5313  1.2095 -0.0299
 3587TIP3    H232177   2.193   5.694  16.322 -0.9058  1.0462  3.4205
 3588TIP3   OH232178   4.346   5.482  12.455  0.1937  0.4693  0.5995
 3588TIP3    H132179   4.357   5.564  12.504 -2.1487  1.1689  0.0831
 3588TIP3    H232180   4.261   5.449  12.484  0.3550 -0.9309 -0.4484
 3589TIP3   OH232181   6.554   3.693   4.127  0.5916  0.2796 -0.3141
 3589TIP3    H132182   6.561   3.612   4.077 -3.4258  0.1149 -0.9233
 3589TIP3    H232183   6.517   3.756   4.066  1.7218  2.0378  0.7254
 3590TIP3   OH232184   3.792   1.545  12.458  0.0319  0.2271 -0.6033
 3590TIP3    H132185   3.818   1.597  12.535  2.3883 -0.1999 -1.0212
 3590TIP3    H232186   3.746   1.470  12.495  1.5391 -0.2231  0.5091
 3591TIP3   OH232187   1.907   1.866  12.472 -0.1391  0.1031  0.4923
 3591TIP3    H132188   1.857   1.785  12.464  0.8641 -0.3993 -1.0379
 3591TIP3    H232189   1.978   1.845  12.532 -0.1664  0.0067  0.4910
 3592TIP3   OH232190   3.476   4.505  14.413 -0.3274  0.3757 -0.7800
 3592TIP3    H132191   3.566   4.519  14.443 -0.0429 -0.2673 -1.3222
 3592TIP3    H232192   3.481   4.429  14.355 -1.4387 -0.5751  0.2899
 3593TIP3   OH232193   0.555   2.342   3.284 -0.1485  0.3752  1.0532
 3593TIP3    H132194   0.565   2.287   3.361  0.7865 -1.2340 -0.1624
 3593TIP3    H232195   0.463   2.370   3.286 -0.2948 -0.1593  2.3924
 3594TIP3   OH232196   1.842   5.864   3.887  0.0445 -0.4207 -0.7939
 3594TIP3    H132197   1.758   5.898   3.858  0.0131  0.1141 -0.1233
 3594TIP3    H232198   1.834   5.769   3.880 -1.4100 -0.5239  1.2398
 3595TIP3   OH232199   4.560   0.712   0.675 -0.1351 -0.1496 -0.2207
 3595TIP3    H132200   4.564   0.665   0.758 -0.6182 -1.3151 -0.8325
 3595TIP3    H232201   4.495   0.664   0.624 -0.6988  1.2390 -0.8593
 3596TIP3   OH232202   6.015   6.342   2.526  0.1637 -0.0433 -0.0959
 3596TIP3    H132203   5.997   6.282   2.453 -0.7912 -2.6597  2.1042
 3596TIP3    H232204   5.930   6.381   2.546  0.4586  0.8014 -0.4319
 3597TIP3   OH232205   1.224   0.574   6.202  0.3034 -0.1574 -0.2858
 3597TIP3    H132206   1.297   0.538   6.253 -1.0056  0.5156  2.2164
 3597TIP3    H232207   1.147   0.559   6.257 -1.1396  1.1242 -1.8571
 3598TIP3   OH232208   4.614   4.201   4.419 -0.1900  0.3623 -0.4057
 3598TIP3    H132209   4.557   4.227   4.347 -1.0124  0.1620  0.1625
 3598TIP3    H232210   4.594   4.109   4.433 -1.0260  0.7196  0.9466
 3599TIP3   OH232211   4.042   5.927  16.332  0.3007 -0.3284  0.3225
 3599TIP3    H132212   4.056   5.898  16.242  0.6617  1.6241 -0.2914
 3599TIP3    H232213   4.008   6.016  16.324 -0.5576 -0.4492  2.1102
 3600TIP3   OH232214   1.546   0.092  11.922  0.3101  0.3065  0.6025
 3600TIP3    H132215   1.574   0.029  11.988 -1.1465  0.4359  1.3736
 3600TIP3    H232216   1.541   0.041  11.841  2.9961  0.3521  0.3390
 3601TIP3   OH232217   0.272   6.703   2.911  0.0968  0.0528  0.2365
 3601TIP3    H132218   0.268   6.620   2.958 -1.6991 -0.6785 -1.1185
 3601TIP3    H232219   0.244   6.683   2.822  0.1578  2.0173 -0.2845
 3602TIP3   OH232220   1.041   2.661   4.251  0.0799 -0.3582  0.8407
 3602TIP3    H132221   1.113   2.624   4.200 -1.1440 -1.6309 -0.0608
 3602TIP3    H232222   1.022   2.595   4.317  0.4074  0.4397  1.7505
 3603TIP3   OH232223   3.983   2.875  15.852 -0.5730  0.6636 -0.0264
 3603TIP3    H132224   3.965   2.969  15.850  1.0497  0.9836 -0.9565
 3603TIP3    H232225   4.074   2.867  15.825  0.3676 -0.9402  3.1060
 3604TIP3   OH232226   4.349   6.381   1.493 -0.3691 -0.4516  0.1241
 3604TIP3    H132227   4.329   6.292   1.465 -2.8043 -0.0153  0.2841
 3604TIP3    H232228   4.434   6.374   1.536 -0.4093 -2.6422 -0.0360
 3605TIP3   OH232229   5.834   3.999   0.336  0.6242  0.2118 -0.6065
 3605TIP3    H132230   5.825   4.061   0.264 -4.0317 -0.1047 -0.5982
 3605TIP3    H232231   5.813   3.914   0.297  0.0778 -0.2840  0.7040
 3606TIP3   OH232232   1.722   5.721  13.086  0.3148  0.4554  0.3294
 3606TIP3    H132233   1.750   5.637  13.124 -0.6932  0.7051  1.6937
 3606TIP3    H232234   1.758   5.787  13.145 -0.5619  0.8893  0.3890
 3607TIP3   OH232235   2.466   2.722  12.580 -0.3480  0.3886 -0.4395
 3607TIP3    H132236   2.382   2.764  12.598 -1.4742 -2.2972  1.1190
 3607TIP3    H232237   2.501   2.697  12.665  0.8450 -0.7146 -1.1956
 3608TIP3   OH232238   2.793   1.356  11.016  0.1721  0.2259 -0.0332
 3608TIP3    H132239   2.735   1.431  11.023 -2.2890 -1.5500  0.0487
 3608TIP3    H232240   2.803   1.324  11.105 -1.6054 -1.4541 -0.3749
 3609TIP3   OH232241   5.819   4.570   5.514 -0.4790  0.3318 -0.1351
 3609TIP3    H132242   5.762   4.526   5.577  0.4498  2.4234  2.3623
 3609TIP3    H232243   5.838   4.655   5.555  0.7122  1.5638 -3.0010
 3610TIP3   OH232244   4.043   2.437   3.199  0.3905 -0.0095 -0.2708
 3610TIP3    H132245   3.969   2.490   3.230  1.2496  2.4014 -2.0399
 3610TIP3    H232246   4.120   2.489   3.220  1.3789 -1.1304 -1.0052
 3611TIP3   OH232247   4.278   3.271   2.574  0.5015 -0.0392 -0.3147
 3611TIP3    H132248   4.370   3.263   2.547  0.3188  0.4231 -1.1023
 3611TIP3    H232249   4.229   3.236   2.500  0.0667 -1.3165  0.5555
 3612TIP3   OH232250   5.812   4.330  12.408  0.3972 -0.6718 -0.0608
 3612TIP3    H132251   5.864   4.385  12.349 -0.5559  2.1199  1.5116
 3612TIP3    H232252   5.863   4.329  12.490 -0.7976  0.0525  0.7229
 3613TIP3   OH232253   0.242   2.534  11.578 -0.2431 -0.2801  0.2219
 3613TIP3    H132254   0.252   2.441  11.561 -2.1371 -0.6492  0.8524
 3613TIP3    H232255   0.255   2.542  11.673 -0.2279  0.0711  0.1906
 3614TIP3   OH232256   5.201   3.421  10.965 -0.2765 -0.4067 -0.2921
 3614TIP3    H132257   5.196   3.463  10.879 -0.2534 -1.1337 -0.6629
 3614TIP3    H232258   5.115   3.380  10.977 -0.2117 -0.4801 -0.0624
 3615TIP3   OH232259   5.526   4.709  11.603  0.0196 -0.3658  0.3150
 3615TIP3    H132260   5.581   4.787  11.594  0.2812 -0.2265  2.5001
 3615TIP3    H232261   5.438   4.739  11.581 -0.0111  0.7787  1.8361
 3616TIP3   OH232262   5.677   6.146   3.258  0.4531  0.1897  0.6973
 3616TIP3    H132263   5.702   6.062   3.220 -2.7560  0.0628 -1.5453
 3616TIP3    H232264   5.758   6.197   3.259  2.2411 -2.4874  1.0357
 3617TIP3   OH232265   4.159   0.755   6.195  0.0198  0.1860 -0.0958
 3617TIP3    H132266   4.137   0.817   6.264 -1.5247  0.1908 -0.5646
 3617TIP3    H232267   4.202   0.807   6.128  0.5486  0.3690  0.3714
 3618TIP3   OH232268   2.542   1.346  15.348 -0.4064 -0.1518  0.5488
 3618TIP3    H132269   2.530   1.441  15.343  2.9067  0.3909  0.9356
 3618TIP3    H232270   2.586   1.323  15.266 -0.9809 -1.3692  0.5518
 3619TIP3   OH232271   5.008   2.622  14.314 -0.0408 -0.3811  0.1586
 3619TIP3    H132272   5.033   2.715  14.319  1.7027 -0.8229  0.3901
 3619TIP3    H232273   4.947   2.610  14.386 -0.1004  0.5337  0.2764
 3620TIP3   OH232274   1.790   3.532  11.215  0.0925 -0.4351 -0.0637
 3620TIP3    H132275   1.811   3.471  11.144  1.9994 -3.0370  2.4497
 3620TIP3    H232276   1.725   3.485  11.268  0.0387  0.6422  0.8671
 3621TIP3   OH232277   3.186   1.832  12.712 -0.4663 -0.0966  0.4407
 3621TIP3    H132278   3.163   1.758  12.655  0.2933 -0.0412  0.0448
 3621TIP3    H232279   3.112   1.840  12.772 -1.2781 -0.1651 -0.5255
 3622TIP3   OH232280   0.496   4.802   2.838  0.6250  0.7719 -0.1498
 3622TIP3    H132281   0.417   4.778   2.790  1.6088  0.2049 -1.5460
 3622TIP3    H232282   0.541   4.864   2.782  2.1336 -0.4165 -0.3158
 3623TIP3   OH232283   5.700   1.274  16.883 -0.2493 -0.2691  0.1259
 3623TIP3    H132284   5.714   1.181  16.866  2.1090  0.2020 -0.9122
 3623TIP3    H232285   5.608   1.280  16.907 -0.7173 -2.7219 -0.7533
 3624TIP3   OH232286   6.343   1.341  14.731 -0.9302  0.0794  0.1868
 3624TIP3    H132287   6.251   1.363  14.713 -0.4011  2.4298 -0.0425
 3624TIP3    H232288   6.382   1.424  14.759  1.2985 -0.7078 -0.3933
 3625TIP3   OH232289   5.837   2.303  13.654 -0.0406  0.3239  0.1482
 3625TIP3    H132290   5.792   2.383  13.627 -1.0795 -0.7531 -1.4856
 3625TIP3    H232291   5.787   2.272  13.729  0.3631  1.1856  0.7860
 3626TIP3   OH232292   2.037   5.360  15.421  0.4608 -0.6761  0.3251
 3626TIP3    H132293   2.006   5.411  15.346  2.2751  1.0049  0.6656
 3626TIP3    H232294   2.115   5.314  15.388  0.9422 -0.3635  1.0169
 3627TIP3   OH232295   3.091   0.698  13.424 -0.0116 -0.4312  0.5194
 3627TIP3    H132296   3.122   0.670  13.338  1.8112 -1.3320  1.4149
 3627TIP3    H232297   3.039   0.776  13.406  2.3154  0.8487 -1.2009
 3628TIP3   OH232298   6.641   0.850   0.551 -0.1202 -0.1985  0.3960
 3628TIP3    H132299   6.674   0.915   0.488 -2.6824  0.1171 -0.7634
 3628TIP3    H232300   6.700   0.775   0.541  0.7841  0.6277 -0.8669
 3629TIP3   OH232301   4.626   5.167   2.539 -0.3284  0.2273  0.0276
 3629TIP3    H132302   4.547   5.163   2.592 -0.1078  0.4580  0.3826
 3629TIP3    H232303   4.595   5.189   2.451 -0.6908 -0.0861  0.0767
 3630TIP3   OH232304   5.435   1.752  16.030 -0.4095  0.0498 -0.1272
 3630TIP3    H132305   5.389   1.825  16.072 -0.6483 -0.4073  0.4139
 3630TIP3    H232306   5.389   1.674  16.060  0.5737 -0.4091  0.2492
 3631TIP3   OH232307   4.450   4.222  16.515  0.1518  0.3117 -0.0808
 3631TIP3    H132308   4.429   4.157  16.449 -0.7884 -1.1616  1.5762
 3631TIP3    H232309   4.458   4.172  16.596  1.8658  1.9718  0.8432
 3632TIP3   OH232310   2.712   2.804   3.007  0.1446 -0.5893 -0.2254
 3632TIP3    H132311   2.692   2.879   3.063 -0.9058  0.1821 -1.5518
 3632TIP3    H232312   2.796   2.827   2.967 -0.4664  0.2193 -1.1022
 3633TIP3   OH232313   0.339   6.290  14.517  0.5886  0.1814 -0.3935
 3633TIP3    H132314   0.399   6.289  14.442 -0.0539  2.1262 -0.9809
 3633TIP3    H232315   0.273   6.355  14.494 -1.2004 -1.1398  0.6916
 3634TIP3   OH232316   6.566   1.749   1.305  0.9620 -0.0020  0.0051
 3634TIP3    H132317   6.476   1.720   1.289  1.0280 -0.2230  0.0269
 3634TIP3    H232318   6.615   1.668   1.321  1.0665  0.1499  0.4752
 3635TIP3   OH232319   2.391   4.085   2.932  0.2233  0.1136 -0.4939
 3635TIP3    H132320   2.345   4.115   3.011  2.3710  1.8268  0.2049
 3635TIP3    H232321   2.326   4.092   2.862 -1.0249  0.9450  0.7003
 3636TIP3   OH232322   1.391   0.328   4.390  0.7992 -0.1947  0.5926
 3636TIP3    H132323   1.304   0.289   4.376  0.7207 -0.4731  1.7417
 3636TIP3    H232324   1.383   0.374   4.474  1.1775  1.5172 -0.2734
 3637TIP3   OH232325   5.661   3.659   6.238 -0.5147 -0.3512 -0.0989
 3637TIP3    H132326   5.570   3.636   6.220 -0.9627 -0.0277  1.5580
 3637TIP3    H232327   5.705   3.576   6.250 -0.8374 -0.4804  0.1871
 3638TIP3   OH232328   1.634   3.115   4.765  0.4398  0.4641  0.1932
 3638TIP3    H132329   1.645   3.042   4.704 -0.2804  0.2554  0.2981
 3638TIP3    H232330   1.610   3.189   4.709 -0.4867  0.2082  0.2354
 3639TIP3   OH232331   0.144   2.784   3.145  0.6347  0.5427  0.3941
 3639TIP3    H132332   0.069   2.830   3.110 -0.1564  0.0245  1.3328
 3639TIP3    H232333   0.118   2.761   3.235  1.3183 -0.9573  0.2384
 3640TIP3   OH232334   4.018   6.679  12.308 -0.0294 -0.0424 -0.5128
 3640TIP3    H132335   3.986   6.624  12.378  0.3452 -1.7861 -1.6481
 3640TIP3    H232336   4.111   6.691  12.328 -0.3119  1.0655  0.2584
 3641TIP3   OH232337   2.662   2.428   2.168  0.7127 -0.4264  0.4147
 3641TIP3    H132338   2.745   2.386   2.147  1.1158  0.1299  0.8739
 3641TIP3    H232339   2.655   2.501   2.108  0.0727 -1.0474 -0.2935
 3642TIP3   OH232340   0.093   1.211  15.742 -0.0050 -0.4227 -0.1110
 3642TIP3    H132341   0.135   1.276  15.799 -1.1723  0.0629  0.2203
 3642TIP3    H232342   0.151   1.206  15.666  0.2235  0.8630 -0.0556
 3643TIP3   OH232343   0.762   2.715  14.482 -0.1932 -0.3861  0.4987
 3643TIP3    H132344   0.728   2.785  14.427 -0.9260 -0.1247  1.2464
 3643TIP3    H232345   0.704   2.716  14.559  0.6883 -0.8486  1.1843
 3644TIP3   OH232346   0.168   0.059   5.388  0.0018  0.0580 -0.0781
 3644TIP3    H132347   0.162   0.138   5.442 -0.4227  0.3089 -0.4809
 3644TIP3    H232348   0.093   0.006   5.416 -0.2639  0.2227 -0.4652
 3645TIP3   OH232349   2.717   6.790   2.387  0.0450  0.2468  0.0953
 3645TIP3    H132350   2.755   6.786   2.299  0.6167  0.8443  0.3058
 3645TIP3    H232351   2.763   6.723   2.437 -1.6368 -1.4746 -0.5377
 3646TIP3   OH232352   2.259   3.786  14.109  0.0283 -0.1499 -0.0008
 3646TIP3    H132353   2.193   3.720  14.128  0.2485 -0.4232 -0.1740
 3646TIP3    H232354   2.225   3.866  14.148  1.3870 -1.0422  3.4323
 3647TIP3   OH232355   4.697   4.802  16.839  0.4401  0.4078  0.1400
 3647TIP3    H132356   4.700   4.861  16.915  0.4520 -1.1290  1.3834
 3647TIP3    H232357   4.757   4.842  16.776  0.7984  1.4844  1.1245
 3648TIP3   OH232358   4.009   4.815   6.392 -0.6461  0.5336 -0.1121
 3648TIP3    H132359   3.944   4.817   6.463 -0.8758  0.0261 -0.3029
 3648TIP3    H232360   4.088   4.854   6.430 -0.6155 -0.1910  0.5763
 3649TIP3   OH232361   2.791   4.144  16.440  0.0171  0.2544 -0.4759
 3649TIP3    H132362   2.781   4.118  16.349 -1.9122 -0.2648 -0.1534
 3649TIP3    H232363   2.771   4.237  16.441 -1.5538 -0.0552 -0.3852
 3650TIP3   OH232364   4.623   1.239  11.395  0.3635 -0.2265 -0.3057
 3650TIP3    H132365   4.691   1.301  11.367  0.8662  0.2333  1.7744
 3650TIP3    H232366   4.554   1.294  11.433 -0.6810 -0.7722 -1.3440
 3651TIP3   OH232367   4.700   1.843   3.847 -0.5781  0.3461  0.5029
 3651TIP3    H132368   4.772   1.851   3.785 -1.0343 -0.4523 -0.1356
 3651TIP3    H232369   4.742   1.815   3.929 -0.2815 -1.3521 -0.1937
 3652TIP3   OH232370   2.818   4.784   3.304  0.0527  0.1598  0.1100
 3652TIP3    H132371   2.807   4.859   3.363 -1.6128  0.7834 -0.9298
 3652TIP3    H232372   2.873   4.818   3.233  0.3514  0.0151  0.2710
 3653TIP3   OH232373   4.999   5.227  11.804  0.0845 -0.1156  0.0878
 3653TIP3    H132374   4.949   5.284  11.746  1.4138  4.0729  2.5997
 3653TIP3    H232375   4.944   5.217  11.882  0.4191 -1.2889  0.2033
 3654TIP3   OH232376   4.921   6.277   0.202  0.0586 -0.1070  0.2558
 3654TIP3    H132377   4.844   6.287   0.258 -0.3430  0.9595 -0.4692
 3654TIP3    H232378   4.951   6.366   0.184 -0.7852 -0.2815 -2.5301
 3655TIP3   OH232379   2.890   2.598   3.843  0.1804 -0.0843 -0.5289
 3655TIP3    H132380   2.952   2.528   3.866  1.1097  0.6596 -0.7025
 3655TIP3    H232381   2.834   2.558   3.777 -0.2657 -1.1274  0.4388
 3656TIP3   OH232382   0.686   6.218   5.062 -0.1827 -0.0057  0.1237
 3656TIP3    H132383   0.642   6.146   5.108 -2.1810  1.1658  0.1638
 3656TIP3    H232384   0.724   6.177   4.985 -0.2446 -1.3035  0.7528
 3657TIP3   OH232385   2.627   6.229   3.897 -0.3019 -0.0966 -0.1058
 3657TIP3    H132386   2.566   6.194   3.832 -0.3009 -2.9868  1.2716
 3657TIP3    H232387   2.670   6.151   3.933  0.2763  1.4310  2.7737
 3658TIP3   OH232388   3.319   5.749   5.599 -0.1509  0.1447 -0.1815
 3658TIP3    H132389   3.395   5.807   5.595 -1.2347  1.7576  1.0223
 3658TIP3    H232390   3.313   5.723   5.691 -1.9093  1.3444  0.1105
 3659TIP3   OH232391   6.576   1.905  12.355 -0.1134  0.9229  0.0741
 3659TIP3    H132392   6.543   1.926  12.443 -0.4365 -0.0986  0.2088
 3659TIP3    H232393   6.505   1.856  12.314  0.5766  0.1505 -0.2396
 3660TIP3   OH232394   6.456   3.901   5.181  0.0097 -0.0840  0.5071
 3660TIP3    H132395   6.374   3.897   5.132  0.7618 -2.6795 -0.7161
 3660TIP3    H232396   6.514   3.955   5.127 -0.8315  1.7454  1.3699
 3661TIP3   OH232397   0.389   5.797  12.002 -0.4662 -0.4898  0.0616
 3661TIP3    H132398   0.341   5.865  11.955  1.6080  0.5250 -0.7111
 3661TIP3    H232399   0.435   5.844  12.072 -0.6832 -1.4456  0.8801
 3662TIP3   OH232400   5.671   2.095  17.019  0.5377 -0.3662  0.0995
 3662TIP3    H132401   5.757   2.081  17.058 -0.2819  0.5766  2.4359
 3662TIP3    H232402   5.690   2.138  16.936  2.3298  0.2684  0.7677
 3663TIP3   OH232403   2.971   2.603  12.813  0.2972  0.1367 -0.0437
 3663TIP3    H132404   3.051   2.635  12.771 -0.2490  1.9709  0.2500
 3663TIP3    H232405   2.906   2.601  12.743  0.8977 -2.9053 -0.6790
 3664TIP3   OH232406   0.211   3.313  15.923 -0.4415  0.1316 -0.5036
 3664TIP3    H132407   0.177   3.331  16.011 -0.6660 -0.2589 -0.5110
 3664TIP3    H232408   0.232   3.220  15.924  2.2158  0.6533  0.0647
 3665TIP3   OH232409   3.759   4.154   1.159 -0.5469 -0.1149  0.5268
 3665TIP3    H132410   3.840   4.104   1.146 -1.4258 -2.4551  3.0051
 3665TIP3    H232411   3.787   4.233   1.206  0.4712 -0.0714 -0.1241
 3666TIP3   OH232412   2.345   4.664  14.272 -0.1113  0.2920 -0.6368
 3666TIP3    H132413   2.337   4.735  14.209 -0.7600  1.1385  0.3683
 3666TIP3    H232414   2.432   4.627  14.256 -0.1513  0.6630 -1.8250
 3667TIP3   OH232415   2.671   5.884   3.225 -0.6392  0.0751 -0.0821
 3667TIP3    H132416   2.692   5.966   3.271 -1.5378  0.2800 -0.0199
 3667TIP3    H232417   2.676   5.907   3.133 -2.3234  0.6217 -0.0839
 3668TIP3   OH232418   1.709   2.754   2.960 -0.4152  0.0870 -0.1715
 3668TIP3    H132419   1.769   2.680   2.973  0.6978  1.1127  0.6891
 3668TIP3    H232420   1.762   2.821   2.916 -0.9951  0.9141  0.3605
 3669TIP3   OH232421   4.800   3.261  14.918 -0.1143  0.0422  0.3736
 3669TIP3    H132422   4.826   3.353  14.916 -1.7910  0.5311 -0.5871
 3669TIP3    H232423   4.708   3.263  14.943 -0.7799 -1.2097 -1.7849
 3670TIP3   OH232424   3.478   3.914  15.554 -0.0136 -0.4438  0.1936
 3670TIP3    H132425   3.419   3.907  15.630 -0.7981  2.1259 -0.0913
 3670TIP3    H232426   3.565   3.897  15.590 -0.5687 -1.1065  1.2916
 3671TIP3   OH232427   2.027   1.899  16.579  0.0110 -0.1424 -0.2028
 3671TIP3    H132428   1.942   1.915  16.538  0.6144 -0.1629 -1.5214
 3671TIP3    H232429   2.008   1.838  16.651 -1.3325  1.2692  0.6965
 3672TIP3   OH232430   2.653   1.007  14.724  0.1166 -0.0093  0.0168
 3672TIP3    H132431   2.633   1.069  14.653  0.6682 -1.7506 -1.7500
 3672TIP3    H232432   2.747   1.017  14.739 -0.4660  2.7282  2.9777
 3673TIP3   OH232433   6.318   2.665   4.936  0.3345 -0.8888 -0.5691
 3673TIP3    H132434   6.303   2.753   4.971  0.3693 -1.1496  0.1104
 3673TIP3    H232435   6.303   2.607   5.010 -2.9955 -1.7506 -1.7154
 3674TIP3   OH232436   1.869   4.456   1.907 -0.0050 -0.3701 -0.1387
 3674TIP3    H132437   1.782   4.447   1.945  0.6599  0.1440  1.6211
 3674TIP3    H232438   1.909   4.369   1.918  0.3764 -0.0799  0.9056
 3675TIP3   OH232439   2.556   3.515  11.166  0.2299 -0.2199 -0.4669
 3675TIP3    H132440   2.480   3.573  11.158  0.8193  0.9128  1.5173
 3675TIP3    H232441   2.527   3.432  11.126 -2.4444 -0.1888  1.1599
 3676TIP3   OH232442   6.388   2.871  11.242 -0.0978 -0.0469  0.1745
 3676TIP3    H132443   6.387   2.949  11.298  0.8899 -0.5874  0.9836
 3676TIP3    H232444   6.383   2.905  11.153  0.4314  0.9517  0.5124
 3677TIP3   OH232445   4.546   4.889  16.195  0.7891 -0.0785  0.3322
 3677TIP3    H132446   4.552   4.812  16.251  1.0530 -0.3152 -0.0218
 3677TIP3    H232447   4.564   4.963  16.255  0.6892 -0.2980  0.6369
 3678TIP3   OH232448   5.484   5.896   3.551 -0.3618  0.0979  0.3429
 3678TIP3    H132449   5.504   5.847   3.471  0.2375 -1.7074  1.5402
 3678TIP3    H232450   5.561   5.952   3.564 -0.1676 -0.0908  0.0273
 3679TIP3   OH232451   1.610   2.786   5.047  0.5583 -0.2712 -0.3988
 3679TIP3    H132452   1.548   2.754   4.981  0.2074  0.2606 -0.3349
 3679TIP3    H232453   1.561   2.784   5.129  0.7792 -0.2946 -0.2671
 3680TIP3   OH232454   3.259   6.131  11.459 -0.2035 -0.4272 -0.8227
 3680TIP3    H132455   3.188   6.081  11.500  1.4798 -1.0783  1.4542
 3680TIP3    H232456   3.268   6.209  11.513  0.5019 -0.0953 -1.3947
 3681TIP3   OH232457   0.466   1.193  13.442  0.2800  0.1091  0.4750
 3681TIP3    H132458   0.376   1.225  13.439  0.4362  0.5229 -0.8619
 3681TIP3    H232459   0.471   1.130  13.370  1.3532  0.9795 -0.2506
 3682TIP3   OH232460   3.661   1.750   5.600  0.9089 -0.1835 -0.0951
 3682TIP3    H132461   3.649   1.730   5.507  1.6995 -0.3428 -0.1716
 3682TIP3    H232462   3.602   1.690   5.646  0.5840 -0.1667 -0.4890
 3683TIP3   OH232463   6.728   4.480  12.618 -0.2048  0.4663 -0.2771
 3683TIP3    H132464   6.696   4.570  12.613  1.0930  0.9169 -1.2669
 3683TIP3    H232465   6.768   4.465  12.532  0.1438 -0.8437  0.0983
 3684TIP3   OH232466   1.293   4.627  14.220  0.2070  0.2137 -0.2635
 3684TIP3    H132467   1.304   4.656  14.130  2.1327  1.6463  0.3722
 3684TIP3    H232468   1.372   4.577  14.240 -1.0594 -1.7902  0.0942
 3685TIP3   OH232469   0.002   6.378  15.946  0.6664 -0.0586 -0.4939
 3685TIP3    H132470  -0.043   6.416  16.022  0.8265 -0.3403 -0.2594
 3685TIP3    H232471  -0.034   6.426  15.871  1.9344  1.6108 -0.1052
 3686TIP3   OH232472   3.317   1.722  11.651 -0.3290  0.0347 -0.1257
 3686TIP3    H132473   3.243   1.714  11.712  0.4835  0.1806  0.9051
 3686TIP3    H232474   3.288   1.787  11.587 -0.2471  1.8285  1.5795
 3687TIP3   OH232475   0.184   1.054  13.328  0.0401 -0.4335 -0.3694
 3687TIP3    H132476   0.153   1.024  13.414  1.9141 -2.3416 -0.2906
 3687TIP3    H232477   0.279   1.051  13.335  0.2300 -1.0777 -2.6648
 3688TIP3   OH232478   4.968   1.175  16.036  0.2950  0.0681  0.6499
 3688TIP3    H132479   4.884   1.147  16.001  0.7860 -2.3797  1.2325
 3688TIP3    H232480   4.981   1.119  16.113  2.0160  1.0731  1.1355
 3689TIP3   OH232481   2.493   0.842  14.191 -0.0521  0.4078 -0.1423
 3689TIP3    H132482   2.504   0.936  14.203 -0.5513  0.7730 -2.1018
 3689TIP3    H232483   2.536   0.824  14.107 -0.4929 -0.9896 -0.0893
 3690TIP3   OH232484   1.793   3.853  12.274 -0.2421  0.2841  0.2257
 3690TIP3    H132485   1.757   3.823  12.357  1.0545 -2.8377 -0.2093
 3690TIP3    H232486   1.734   3.815  12.208 -0.9297  2.2487 -0.3647
 3691TIP3   OH232487   3.018   4.096  16.192  0.1741 -0.0226 -0.1339
 3691TIP3    H132488   3.053   4.117  16.278  0.6328  0.9897 -0.5428
 3691TIP3    H232489   2.958   4.168  16.173  0.2838 -0.0949 -0.7704
 3692TIP3   OH232490   1.931   0.014   0.375  0.2725 -0.3111  0.0137
 3692TIP3    H132491   2.019   0.026   0.412  0.2198  0.1709 -0.0148
 3692TIP3    H232492   1.946   0.013   0.280  0.1415  0.6940 -0.0254
 3693TIP3   OH232493   1.220   0.841   2.603 -0.0519 -1.2654 -0.7802
 3693TIP3    H132494   1.187   0.911   2.547 -0.1514 -0.2580  0.4903
 3693TIP3    H232495   1.315   0.852   2.600 -0.1107  0.4403  1.1896
 3694TIP3   OH232496   0.354   0.579   3.132 -0.0440  0.4539 -0.9096
 3694TIP3    H132497   0.375   0.609   3.044  0.1821  1.0938 -0.6403
 3694TIP3    H232498   0.436   0.587   3.181  0.4748 -2.0510 -1.1905
 3695TIP3   OH232499   5.853   2.807  16.790  0.6264  0.2729  0.1135
 3695TIP3    H132500   5.807   2.790  16.872 -0.8712 -1.9894 -1.0797
 3695TIP3    H232501   5.783   2.831  16.729  1.4581  0.0408 -0.9641
 3696TIP3   OH232502   3.903   3.391  15.005 -0.2606  0.3644 -0.4983
 3696TIP3    H132503   3.812   3.419  14.989 -0.0151  0.1000 -2.7496
 3696TIP3    H232504   3.922   3.331  14.933  1.4547 -0.2382  0.4101
 3697TIP3   OH232505   5.744   1.204   1.776 -0.5891 -0.4047  0.0895
 3697TIP3    H132506   5.667   1.185   1.722 -0.4837 -1.2440  0.2123
 3697TIP3    H232507   5.795   1.267   1.725 -2.1493  1.4558  0.7349
 3698TIP3   OH232508   2.482   3.255  10.829 -0.1912  0.1036  0.0635
 3698TIP3    H132509   2.566   3.296  10.848  0.3518 -0.5358 -0.8697
 3698TIP3    H232510   2.479   3.249  10.733 -1.2382 -0.0120  0.0858
 3699TIP3   OH232511   5.408   2.429   1.256 -0.1297 -0.2377  0.3199
 3699TIP3    H132512   5.474   2.368   1.225 -1.1943 -1.5541  0.5486
 3699TIP3    H232513   5.380   2.393   1.341 -1.3454  0.1083  0.0919
 3700TIP3   OH232514   6.526   1.402  15.895 -0.2222  0.6706  0.3717
 3700TIP3    H132515   6.539   1.347  15.972 -1.6657 -0.1951  0.0305
 3700TIP3    H232516   6.490   1.483  15.930 -0.8374  0.2952  0.6221
 3701TIP3   OH232517   1.362   4.477   2.559  0.0895 -0.8013 -0.7069
 3701TIP3    H132518   1.436   4.531   2.586  0.5214 -1.8298  0.2604
 3701TIP3    H232519   1.399   4.388   2.553 -1.2615 -1.4881  0.6973
 3702TIP3   OH232520   4.737   4.079  12.428  0.0064  0.0437  0.4992
 3702TIP3    H132521   4.761   4.015  12.360  1.0150 -0.0531  0.9284
 3702TIP3    H232522   4.652   4.113  12.400  0.3708 -0.0440 -0.7767
 3703TIP3   OH232523   2.166   4.752   5.587  0.1675  0.2503  0.0099
 3703TIP3    H132524   2.189   4.736   5.679  1.0877 -0.1409 -0.2697
 3703TIP3    H232525   2.207   4.837   5.567  0.3027  0.1468 -0.1492
 3704TIP3   OH232526   5.194   6.229   2.716  0.1988 -0.4709  0.7425
 3704TIP3    H132527   5.223   6.236   2.807  2.4841 -1.9257  0.2062
 3704TIP3    H232528   5.171   6.318   2.691 -0.3927 -0.0304  2.7015
 3705TIP3   OH232529   2.562   6.666   2.725 -0.3001 -0.8084  0.3316
 3705TIP3    H132530   2.593   6.642   2.813  3.9352  0.9753 -0.4542
 3705TIP3    H232531   2.542   6.582   2.683  1.2200 -1.9771  1.8227
 3706TIP3   OH232532   6.651   3.388   3.601  0.0533 -0.1272  0.0923
 3706TIP3    H132533   6.585   3.354   3.542 -0.9390  0.0722  1.0485
 3706TIP3    H232534   6.712   3.436   3.545 -0.6901 -0.1949 -0.7848
 3707TIP3   OH232535   2.612   0.233   5.445  0.2667  0.3235  0.1016
 3707TIP3    H132536   2.700   0.242   5.410  0.1536  2.5519  0.2441
 3707TIP3    H232537   2.583   0.147   5.416  1.7166  0.4040 -1.7293
 3708TIP3   OH232538   1.153   4.910   5.492  0.0274  0.0050  0.3454
 3708TIP3    H132539   1.122   4.928   5.580  0.9306 -0.1382  0.7070
 3708TIP3    H232540   1.087   4.852   5.454 -0.8184  0.7824  0.5994
 3709TIP3   OH232541   3.034   5.326   0.613  1.1666 -0.2946 -0.2733
 3709TIP3    H132542   3.075   5.274   0.682 -1.4878 -4.0575 -1.2528
 3709TIP3    H232543   2.967   5.378   0.657  0.3225 -1.7362  0.1767
 3710TIP3   OH232544   4.703   2.038  15.129  0.7419  0.5445 -0.0826
 3710TIP3    H132545   4.678   2.097  15.058  0.5447  0.1459 -0.3493
 3710TIP3    H232546   4.665   1.954  15.104  0.3135  0.4913  0.7003
 3711TIP3   OH232547   1.969   4.979   1.000 -0.3955  0.1117 -0.2534
 3711TIP3    H132548   1.902   5.047   1.007 -2.2818 -1.5795 -1.0512
 3711TIP3    H232549   1.931   4.914   0.942  1.1072 -1.9077  0.9131
 3712TIP3   OH232550   4.120   2.859   3.264 -0.3061 -0.4346  0.6081
 3712TIP3    H132551   4.209   2.892   3.251 -0.5558  0.1077  0.2086
 3712TIP3    H232552   4.128   2.764   3.260  0.3279 -0.4101  1.0689
 3713TIP3   OH232553   0.243   4.882  14.603 -0.1074 -0.0993 -0.8623
 3713TIP3    H132554   0.168   4.880  14.663  0.1464  1.5635 -0.4444
 3713TIP3    H232555   0.306   4.821  14.641 -0.7443 -0.5792 -0.5528
 3714TIP3   OH232556   6.028   2.571  16.218  0.1536 -0.2957 -0.0983
 3714TIP3    H132557   6.003   2.484  16.188  0.9461 -0.3719 -0.5637
 3714TIP3    H232558   6.113   2.587  16.176 -0.4820  1.1446 -0.8964
 3715TIP3   OH232559   5.773   3.882   2.096 -0.1552 -0.8448  0.5441
 3715TIP3    H132560   5.782   3.807   2.037 -1.9971  1.3481 -2.8801
 3715TIP3    H232561   5.679   3.886   2.115  0.0639 -0.0063  1.5743
 3716TIP3   OH232562   5.084   0.845  16.371 -0.1763  0.6803 -0.5083
 3716TIP3    H132563   5.005   0.794  16.351 -0.6033  2.0053 -2.4516
 3716TIP3    H232564   5.055   0.912  16.432 -0.2595  0.3766 -0.2125
 3717TIP3   OH232565   1.625   4.851   3.765 -0.8061 -0.3976 -0.1639
 3717TIP3    H132566   1.564   4.918   3.735  0.6390 -0.0401 -2.6068
 3717TIP3    H232567   1.614   4.779   3.702  0.4179 -0.8002  0.0547
 3718TIP3   OH232568   1.589   5.799   1.896  0.6219  0.1533  0.5752
 3718TIP3    H132569   1.513   5.744   1.882  0.6346  0.4646 -0.8118
 3718TIP3    H232570   1.560   5.887   1.871  1.4420  0.2664 -0.0106
 3719TIP3   OH232571   2.783   0.012   1.634  0.7253 -0.5147 -0.1586
 3719TIP3    H132572   2.798   0.103   1.609  1.4277 -0.4619  0.3960
 3719TIP3    H232573   2.868  -0.017   1.669  0.4683 -1.3350 -0.1883
 3720TIP3   OH232574   6.711   3.736   5.269  0.0514  0.1701  0.5987
 3720TIP3    H132575   6.714   3.652   5.314 -2.1195 -0.2348  0.1048
 3720TIP3    H232576   6.676   3.797   5.333  0.5996  0.4628  0.6245
 3721TIP3   OH232577   1.710   1.275  15.494  0.0464  0.4013  0.4328
 3721TIP3    H132578   1.762   1.195  15.499 -1.1304 -0.4337 -0.1757
 3721TIP3    H232579   1.663   1.267  15.411 -0.2047  1.6663  0.4329
 3722TIP3   OH232580   1.703   5.321  16.176 -0.5971  0.8036  0.6253
 3722TIP3    H132581   1.795   5.316  16.150 -0.8523  1.3314 -0.4393
 3722TIP3    H232582   1.680   5.230  16.196  0.1558  0.6634  0.9048
 3723TIP3   OH232583   5.447   3.407   4.077  0.3643 -0.9924  0.2462
 3723TIP3    H132584   5.447   3.502   4.076 -0.4295 -0.9828  0.0175
 3723TIP3    H232585   5.518   3.383   4.137  0.6627 -0.2643  0.1916
 3724TIP3   OH232586   1.144   3.598   3.554  0.0385  0.2188  0.4921
 3724TIP3    H132587   1.219   3.649   3.585 -0.4030  0.0416  1.9107
 3724TIP3    H232588   1.170   3.507   3.566 -0.5370  0.1571  1.3731
 3725TIP3   OH232589   4.663   4.405  11.308 -0.6315 -0.1943  0.0066
 3725TIP3    H132590   4.716   4.412  11.228  0.1059  0.7253  0.5445
 3725TIP3    H232591   4.611   4.326  11.296  0.1526 -0.5847 -0.9812
 3726TIP3   OH232592   1.263   6.769   5.103  0.6238  0.0737  0.1894
 3726TIP3    H132593   1.194   6.747   5.040 -0.7023 -1.0194  1.9361
 3726TIP3    H232594   1.306   6.685   5.121  0.5328  0.2408  1.2295
 3727TIP3   OH232595   6.645   0.170  12.702  0.1033  0.3700 -0.3875
 3727TIP3    H132596   6.648   0.266  12.705  0.1774  0.3555  1.8136
 3727TIP3    H232597   6.564   0.150  12.655 -1.3160  1.5940  1.3746
 3728TIP3   OH232598   2.712   1.179   0.356  0.1102 -0.0835  0.4907
 3728TIP3    H132599   2.684   1.159   0.267 -1.3353  2.3475  0.3081
 3728TIP3    H232600   2.682   1.105   0.408 -3.7045  0.6953 -0.2833
 3729TIP3   OH232601   2.832   2.409  11.524  0.2790 -0.6989 -0.1280
 3729TIP3    H132602   2.805   2.357  11.449  0.0211 -1.8083  0.7155
 3729TIP3    H232603   2.862   2.492  11.486  0.2961 -1.2906 -1.4530
 3730TIP3   OH232604   1.057   2.984  13.482  0.0882  0.7288  0.4244
 3730TIP3    H132605   1.037   3.038  13.406 -1.1760  1.6168  1.3710
 3730TIP3    H232606   1.114   2.915  13.447  0.1862  1.5707 -1.1621
 3731TIP3   OH232607   4.896   1.157   5.406 -0.0941 -0.4084 -0.0037
 3731TIP3    H132608   4.946   1.173   5.327 -1.8593  0.9095 -0.9278
 3731TIP3    H232609   4.960   1.162   5.477  1.0453  1.4448 -1.0900
 3732TIP3   OH232610   2.149   3.791  11.450  0.0380 -0.7663 -0.2714
 3732TIP3    H132611   2.140   3.879  11.486  0.4633 -0.9925  0.4093
 3732TIP3    H232612   2.061   3.754  11.454 -0.0212 -0.5948  0.0503
 3733TIP3   OH232613   0.473   2.377  11.876  0.2586 -0.4104 -0.3393
 3733TIP3    H132614   0.399   2.425  11.914  0.4369 -1.0758  0.8961
 3733TIP3    H232615   0.535   2.445  11.850  0.3073  0.0790  0.9705
 3734TIP3   OH232616   1.086   0.478   1.606  0.2327 -0.4725  0.3047
 3734TIP3    H132617   1.107   0.520   1.689  0.2673 -0.2389  0.1770
 3734TIP3    H232618   1.005   0.520   1.578  0.7778  0.1924 -0.2997
 3735TIP3   OH232619   4.156   4.346  13.036 -0.2487  0.2671  0.5723
 3735TIP3    H132620   4.158   4.320  12.944  1.9958  0.8940  0.3937
 3735TIP3    H232621   4.184   4.268  13.083 -0.6627  0.1795  0.6814
 3736TIP3   OH232622   3.166   5.194   4.432  0.0593  0.0637 -0.3163
 3736TIP3    H132623   3.185   5.171   4.523 -0.4252  0.0136 -0.2266
 3736TIP3    H232624   3.235   5.150   4.382  0.6861  0.5863  0.0699
 3737TIP3   OH232625   1.730   1.113  11.926  0.2526  0.3519  0.0934
 3737TIP3    H132626   1.799   1.168  11.889  0.1575  0.5459  0.1995
 3737TIP3    H232627   1.733   1.033  11.874  1.8946 -0.4819  1.3714
 3738TIP3   OH232628   3.443   5.628   0.185  0.3284 -0.3848 -0.1281
 3738TIP3    H132629   3.503   5.682   0.133  0.3770  0.7107  1.0093
 3738TIP3    H232630   3.416   5.685   0.257 -0.5458 -1.5141  0.4704
 3739TIP3   OH232631   2.317   1.180  14.620  0.1032 -0.0506 -0.5397
 3739TIP3    H132632   2.384   1.229  14.573  0.5643 -0.4744 -0.3380
 3739TIP3    H232633   2.321   1.213  14.710  0.2541 -0.2863 -0.4570
 3740TIP3   OH232634   2.860   5.206   2.006 -0.0831 -0.0971 -0.4790
 3740TIP3    H132635   2.820   5.187   1.921  1.6486  0.9262 -1.5816
 3740TIP3    H232636   2.840   5.298   2.022  0.1811 -0.1016 -0.1177
 3741TIP3   OH232637   2.378   4.875  12.386  0.2898 -0.0190  0.6568
 3741TIP3    H132638   2.292   4.860  12.344 -0.3693 -0.0800  1.9869
 3741TIP3    H232639   2.392   4.969  12.379 -0.5469  0.1934  1.6468
 3742TIP3   OH232640   5.366   1.071  13.311  0.0943  0.2957  0.6017
 3742TIP3    H132641   5.421   1.139  13.273  0.8066 -0.3630  0.4364
 3742TIP3    H232642   5.359   1.093  13.404 -0.2091  0.9383  0.4329
 3743TIP3   OH232643   5.995   2.848   6.150 -0.0573 -0.2862 -0.5790
 3743TIP3    H132644   5.906   2.843   6.116 -0.2418  0.4485 -0.2308
 3743TIP3    H232645   5.987   2.898   6.231  0.7860  0.5890 -1.0085
 3744TIP3   OH232646   5.596   6.384  12.096  0.2025  0.4650 -0.0319
 3744TIP3    H132647   5.625   6.464  12.052  2.8961  0.7126  1.9839
 3744TIP3    H232648   5.575   6.412  12.185 -1.4993 -0.6689 -0.0245
 3745TIP3   OH232649   5.734   3.807  12.383 -0.3571  0.0705  0.5244
 3745TIP3    H132650   5.683   3.827  12.305 -2.5692  2.4488  2.3820
 3745TIP3    H232651   5.709   3.717  12.406  0.1486 -0.5722 -1.2927
 3746TIP3   OH232652   5.331   4.312  16.855 -0.1848 -0.1816  0.2886
 3746TIP3    H132653   5.307   4.234  16.806  0.5786  0.5104 -1.2454
 3746TIP3    H232654   5.411   4.287  16.901 -1.1726 -0.9885  1.6315
 3747TIP3   OH232655   6.522   3.086   0.808  0.4291  0.8191  0.0588
 3747TIP3    H132656   6.606   3.048   0.835  0.8966  0.4219 -1.8149
 3747TIP3    H232657   6.500   3.039   0.728 -0.3388  2.6541 -0.8384
 3748TIP3   OH232658   3.429   2.056   2.235 -0.4796 -0.1285  0.1724
 3748TIP3    H132659   3.464   2.067   2.323  0.3611 -0.1746 -0.1490
 3748TIP3    H232660   3.342   2.019   2.248 -0.8112  0.8931  1.0286
 3749TIP3   OH232661   3.985   3.848   5.950  0.1284 -0.1534  0.3123
 3749TIP3    H132662   4.042   3.920   5.923 -0.1232  0.4362  1.3204
 3749TIP3    H232663   3.955   3.809   5.868  1.5858 -0.1710 -0.2452
 3750TIP3   OH232664   5.387   0.097   4.001 -0.4847 -0.0532  0.0951
 3750TIP3    H132665   5.432   0.114   4.084 -0.0708 -2.8677  0.5333
 3750TIP3    H232666   5.456   0.104   3.935 -0.4294  0.3432  0.1899
 3751TIP3   OH232667   4.078   5.149  11.964 -0.3339  0.1657  0.1351
 3751TIP3    H132668   4.036   5.065  11.983  0.7079 -0.7207 -1.2393
 3751TIP3    H232669   4.081   5.152  11.868  0.5970  1.2927  0.1834
 3752TIP3   OH232670   4.085   3.887   4.625 -0.4199  0.2580 -0.2898
 3752TIP3    H132671   4.001   3.932   4.623  0.4317  1.9340  0.1507
 3752TIP3    H232672   4.116   3.889   4.534 -0.2584  0.8443 -0.2265
 3753TIP3   OH232673   6.427   3.176   3.908 -0.1562  0.0143  0.1439
 3753TIP3    H132674   6.455   3.085   3.917  0.4777  0.0782 -0.9743
 3753TIP3    H232675   6.485   3.213   3.842 -0.0392  1.3970  0.9723
 3754TIP3   OH232676   5.189   2.692  16.608 -0.2696  1.1500 -0.3597
 3754TIP3    H132677   5.107   2.740  16.597 -0.5457  0.7717  0.0132
 3754TIP3    H232678   5.247   2.729  16.542 -0.6944  1.5208 -0.5328
 3755TIP3   OH232679   3.494   3.183   4.639  0.4266 -0.4513 -0.2093
 3755TIP3    H132680   3.434   3.253   4.611 -1.0156 -0.6367  2.1968
 3755TIP3    H232681   3.437   3.111   4.665  1.6759 -0.7434  1.9088
 3756TIP3   OH232682   5.723   4.800  12.987  0.2229 -0.1256  0.3598
 3756TIP3    H132683   5.684   4.847  12.913  0.7063 -1.5884 -0.8785
 3756TIP3    H232684   5.650   4.749  13.024  0.6116 -1.9007 -1.1821
 3757TIP3   OH232685   4.959   0.616   3.047 -0.2693 -0.6402 -0.4202
 3757TIP3    H132686   4.966   0.647   2.957  1.1741 -1.1807 -0.5268
 3757TIP3    H232687   5.006   0.681   3.098 -1.1999 -0.2663 -0.0306
 3758TIP3   OH232688   2.599   0.275   1.066 -0.4311  0.2153 -0.4794
 3758TIP3    H132689   2.535   0.230   1.121 -0.5872 -0.3608 -1.1148
 3758TIP3    H232690   2.676   0.219   1.068 -0.3671  0.2924 -0.6823
 3759TIP3   OH232691   4.473   3.127  16.101 -0.1928  0.1410 -0.2179
 3759TIP3    H132692   4.422   3.148  16.023 -0.5963  1.8774  0.4821
 3759TIP3    H232693   4.556   3.174  16.089  0.2895 -0.6840 -0.2060
 3760TIP3   OH232694   3.783   3.730   3.368 -0.3089 -0.0446  0.1705
 3760TIP3    H132695   3.766   3.701   3.458  1.1043  0.4133  0.6074
 3760TIP3    H232696   3.848   3.799   3.377  2.4262 -2.2029 -1.3728
 3761TIP3   OH232697   3.617   6.673  14.387 -0.0345 -0.2188 -0.0090
 3761TIP3    H132698   3.526   6.691  14.411 -0.0257  3.7478 -2.1145
 3761TIP3    H232699   3.644   6.749  14.336  3.9319 -2.0880 -1.1078
 3762TIP3   OH232700   1.617   0.066   3.055  0.4100 -0.0963  0.2620
 3762TIP3    H132701   1.559   0.134   3.090  2.4359  1.8763  0.0413
 3762TIP3    H232702   1.655   0.024   3.133  0.1940 -0.0138  0.4105
 3763TIP3   OH232703   4.777   5.177   2.871 -0.3190  0.3624  0.6690
 3763TIP3    H132704   4.795   5.141   2.784 -2.4289 -0.1520  0.3899
 3763TIP3    H232705   4.787   5.272   2.860  0.2305  0.2455  0.0901
 3764TIP3   OH232706   0.718   0.743  12.464 -0.8408  0.2340 -0.0862
 3764TIP3    H132707   0.719   0.827  12.418  1.8802  0.1578 -0.3034
 3764TIP3    H232708   0.664   0.686  12.408 -0.0152  0.9478 -1.6747
 3765TIP3   OH232709   1.405   4.105  15.254  0.3196  0.1085  0.0274
 3765TIP3    H132710   1.420   4.166  15.181  2.3682 -1.6845 -1.1631
 3765TIP3    H232711   1.311   4.085  15.248  0.4490 -0.1627 -2.3325
 3766TIP3   OH232712   4.753   6.225   1.996 -0.3353 -0.3189 -0.7026
 3766TIP3    H132713   4.805   6.204   2.073 -0.0464  1.1842 -0.4460
 3766TIP3    H232714   4.697   6.297   2.024 -1.0988 -0.5643 -1.5573
 3767TIP3   OH232715   3.626   6.058   2.372  0.0653 -0.0176 -0.4769
 3767TIP3    H132716   3.681   6.089   2.300  0.2861  0.9057  0.0652
 3767TIP3    H232717   3.683   6.065   2.449 -0.5154  0.0540 -0.0499
 3768TIP3   OH232718   4.311   6.567  11.514  0.3609  0.2002 -0.2963
 3768TIP3    H132719   4.402   6.552  11.488  1.3553  0.3561  2.7022
 3768TIP3    H232720   4.260   6.510  11.457  2.7667 -3.7212  1.0849
 3769TIP3   OH232721   4.300   4.252   0.781  0.4090  0.1537 -0.3635
 3769TIP3    H132722   4.357   4.180   0.808 -0.5498 -1.1902 -1.7959
 3769TIP3    H232723   4.344   4.290   0.704 -0.5551 -0.8723 -1.4584
 3770TIP3   OH232724   6.123   3.654   5.992 -0.4338 -0.5383  0.3067
 3770TIP3    H132725   6.131   3.747   5.970 -0.3905 -0.7501 -0.6126
 3770TIP3    H232726   6.213   3.624   6.005 -0.1321 -1.1188 -2.3811
 3771TIP3   OH232727   1.247   3.988   5.084  0.0479  0.3750 -0.1944
 3771TIP3    H132728   1.295   4.070   5.078  0.2211  0.3861  0.9786
 3771TIP3    H232729   1.173   4.008   5.141 -0.1704 -0.1663 -0.2802
 3772TIP3   OH232730   5.701   4.215  13.289  0.6184  0.0907  0.2509
 3772TIP3    H132731   5.733   4.158  13.219 -0.0324 -0.9473  0.7796
 3772TIP3    H232732   5.739   4.179  13.369  0.7770  0.8341  0.5162
 3773TIP3   OH232733   1.476   1.019  14.262 -0.1967 -0.2171 -0.1452
 3773TIP3    H132734   1.542   1.001  14.196  0.8515 -0.3994  0.9293
 3773TIP3    H232735   1.473   1.115  14.267 -0.5317 -0.1916 -0.6774
 3774TIP3   OH232736   4.746   1.325   0.187 -0.2605  0.5327 -0.4269
 3774TIP3    H132737   4.823   1.381   0.196 -1.1168  1.6007  0.4493
 3774TIP3    H232738   4.714   1.313   0.276 -0.4648 -0.8480 -0.6645
 3775TIP3   OH232739   1.507   6.340  16.907  0.4445  0.3598 -0.2047
 3775TIP3    H132740   1.472   6.296  16.985  0.1493  0.5919 -0.2019
 3775TIP3    H232741   1.551   6.270  16.858 -1.5123 -0.3455 -1.0666
 3776TIP3   OH232742   4.583   0.256  10.930 -0.1146 -0.1185  0.0639
 3776TIP3    H132743   4.570   0.168  10.896  0.0499 -0.7606  1.5725
 3776TIP3    H232744   4.625   0.304  10.858  0.1245 -1.3655 -0.6510
 3777TIP3   OH232745   5.682   4.679  13.555 -0.2917 -0.5195 -0.0992
 3777TIP3    H132746   5.729   4.628  13.621 -0.8451 -0.8824  0.0198
 3777TIP3    H232747   5.699   4.633  13.473  1.9228  0.9416 -0.5637
 3778TIP3   OH232748   2.527   3.299   0.896  0.6952  0.2353  0.1108
 3778TIP3    H132749   2.519   3.240   0.821 -1.6696 -1.9773  1.9213
 3778TIP3    H232750   2.473   3.375   0.873 -2.6844 -1.7999  0.6114
 3779TIP3   OH232751   2.949   4.511  11.265  0.2369 -0.0242 -0.7009
 3779TIP3    H132752   2.940   4.416  11.253  1.3973  0.1084 -2.9047
 3779TIP3    H232753   2.880   4.549  11.210 -0.7291  0.4540  0.7633
 3780TIP3   OH232754   3.783   3.359   2.117  0.2146 -0.0576  0.4071
 3780TIP3    H132755   3.796   3.420   2.190 -2.1717 -0.5792  1.3653
 3780TIP3    H232756   3.741   3.412   2.049  0.0601 -0.1521  0.4280
 3781TIP3   OH232757   2.266   5.915  11.170  0.4584  0.0450 -0.0599
 3781TIP3    H132758   2.255   5.871  11.086  0.1809  0.3711 -0.1986
 3781TIP3    H232759   2.177   5.937  11.197  0.6397  1.1910 -0.3594
 3782TIP3   OH232760   4.063   3.148   5.305 -0.2985  0.5066  1.0360
 3782TIP3    H132761   4.063   3.072   5.363  0.2632  0.1198  0.5436
 3782TIP3    H232762   4.151   3.149   5.267 -1.2168 -0.4114 -1.3122
 3783TIP3   OH232763   2.379   4.053  10.999  0.1640 -0.1657 -0.0118
 3783TIP3    H132764   2.399   3.962  11.017  1.1220  0.1067  0.3837
 3783TIP3    H232765   2.299   4.051  10.946  0.6932 -1.2695 -0.7885
 3784TIP3   OH232766   0.667   2.333  16.743 -0.0331 -0.4296  0.5101
 3784TIP3    H132767   0.699   2.413  16.702 -1.4439 -0.1592 -0.1224
 3784TIP3    H232768   0.651   2.358  16.835 -1.9400  0.4923 -0.0259
 3785TIP3   OH232769   3.254   4.450   2.062  0.1858  0.3850  0.3628
 3785TIP3    H132770   3.302   4.368   2.068 -0.1084  0.1089 -0.8209
 3785TIP3    H232771   3.164   4.426   2.084 -0.3197 -0.0635 -1.9243
 3786TIP3   OH232772   1.380   0.560   2.335  0.3579  0.6349 -0.1678
 3786TIP3    H132773   1.319   0.544   2.407  2.9700 -1.1677  1.8258
 3786TIP3    H232774   1.383   0.476   2.288  0.0345  1.2590 -1.3597
 3787TIP3   OH232775   3.017   6.638   6.294 -0.0256  0.1509  0.4243
 3787TIP3    H132776   3.057   6.635   6.207  2.2295  1.4309  1.3266
 3787TIP3    H232777   2.923   6.642   6.278  0.2833 -0.7218 -1.8984
 3788TIP3   OH232778   1.277   0.645  13.029  0.4104 -0.5829  0.2894
 3788TIP3    H132779   1.187   0.636  13.059  0.2796 -1.2670 -0.2910
 3788TIP3    H232780   1.278   0.726  12.978  0.9534  1.4217  3.2282
 3789TIP3   OH232781   5.299   4.522   1.130  0.2599  0.5356  0.1586
 3789TIP3    H132782   5.337   4.552   1.212  2.4514  0.5895 -0.7927
 3789TIP3    H232783   5.221   4.576   1.118  0.1893  0.8856  1.9109
 3790TIP3   OH232784   0.020   6.455   3.169 -0.5208 -0.8264  0.4195
 3790TIP3    H132785  -0.006   6.484   3.256 -1.2589 -2.7842  0.9005
 3790TIP3    H232786  -0.038   6.503   3.109 -2.0669 -1.6457  1.2094
 3791TIP3   OH232787   1.529   0.665   5.997  0.3733  0.2136  0.0675
 3791TIP3    H132788   1.525   0.582   6.044 -0.1068  0.6077  0.7530
 3791TIP3    H232789   1.477   0.725   6.051 -0.6158  0.5650 -1.2245
 3792TIP3   OH232790   6.196   1.614  13.612 -0.4402 -0.3165 -0.5298
 3792TIP3    H132791   6.233   1.658  13.536 -1.5422  0.8531 -0.4223
 3792TIP3    H232792   6.116   1.663  13.632 -1.5917 -2.2120 -0.2337
 3793TIP3   OH232793   4.028   3.474   5.342  0.3490 -0.2528  0.0763
 3793TIP3    H132794   3.937   3.448   5.355  0.7207 -1.5227  0.2863
 3793TIP3    H232795   4.047   3.452   5.251 -0.2833  2.4311 -0.7856
 3794TIP3   OH232796   3.172   2.681   0.205 -0.3264  0.5795 -0.2349
 3794TIP3    H132797   3.245   2.742   0.193  0.2610  0.3722  1.8320
 3794TIP3    H232798   3.180   2.619   0.133  0.3032  1.7279 -1.1877
 3795TIP3   OH232799   3.445   2.877  11.368 -0.1418 -0.0503 -0.0082
 3795TIP3    H132800   3.457   2.861  11.462 -0.2621 -0.6202 -0.0894
 3795TIP3    H232801   3.510   2.822  11.325  0.2782  0.6116 -0.2469
 3796TIP3   OH232802   5.686   2.342   5.546  0.1067 -0.2806  0.0735
 3796TIP3    H132803   5.761   2.285   5.565  0.5101  0.7769  1.9853
 3796TIP3    H232804   5.611   2.294   5.581  0.0259 -0.8715 -0.8846
 3797TIP3   OH232805   3.854   1.924   1.991  0.7636 -0.6944  0.2375
 3797TIP3    H132806   3.808   1.978   1.927 -0.0956 -0.7625  0.7884
 3797TIP3    H232807   3.810   1.941   2.074  0.7563 -1.9032  0.5070
 3798TIP3   OH232808   6.137   0.346  12.919 -0.7082 -0.5156  0.2203
 3798TIP3    H132809   6.117   0.439  12.921 -1.5494 -0.6424 -1.4515
 3798TIP3    H232810   6.207   0.336  12.984  1.0171  1.6749 -1.1530
 3799TIP3   OH232811   3.638   2.293   5.071 -0.0574  0.4079  0.3379
 3799TIP3    H132812   3.689   2.364   5.032  0.8010  0.0089  0.7199
 3799TIP3    H232813   3.561   2.285   5.015  0.8316  0.2892 -0.8926
 3800TIP3   OH232814   5.064   1.843   4.210  0.2579  0.5971 -0.6178
 3800TIP3    H132815   5.012   1.865   4.287 -0.6843 -1.8295 -0.4797
 3800TIP3    H232816   5.078   1.927   4.165 -3.0066  1.5004 -0.1909
 3801TIP3   OH232817   0.028   3.364  12.209 -0.2348 -0.3794  0.2240
 3801TIP3    H132818   0.030   3.271  12.189 -0.3753 -0.4693  0.6184
 3801TIP3    H232819   0.050   3.369  12.302  1.5746  0.1139 -0.1957
 3802TIP3   OH232820   4.164   6.185  16.075  0.3279 -0.2816 -0.3041
 3802TIP3    H132821   4.211   6.218  16.151 -1.1882  0.3026  0.4183
 3802TIP3    H232822   4.198   6.236  16.001  0.4647  0.4672  0.2757
 3803TIP3   OH232823   0.816   5.808   2.155 -0.5881 -0.2820 -0.1461
 3803TIP3    H132824   0.876   5.774   2.089 -0.4243 -0.2781  0.0007
 3803TIP3    H232825   0.856   5.890   2.185  0.2026 -1.1122  1.1610
 3804TIP3   OH232826   2.400   0.414  14.155 -0.2425  0.0299  0.4689
 3804TIP3    H132827   2.360   0.409  14.241  0.7646  0.8416  1.0211
 3804TIP3    H232828   2.336   0.460  14.101  0.2266  2.1292  1.5640
 3805TIP3   OH232829   0.928   5.618  13.952 -0.0252  0.1300 -0.3092
 3805TIP3    H132830   0.915   5.573  14.035  1.2789 -2.1098 -1.2128
 3805TIP3    H232831   1.018   5.653  13.958 -0.0940  0.3625 -0.6020
 3806TIP3   OH232832   2.655   5.046  14.949 -0.5894 -0.0956 -0.3176
 3806TIP3    H132833   2.606   4.984  15.002 -1.4334  2.2713  1.8418
 3806TIP3    H232834   2.595   5.072  14.879 -1.7289  1.1947  1.0845
 3807TIP3   OH232835   4.059   4.486  13.447 -0.4741  0.2617 -0.1621
 3807TIP3    H132836   4.063   4.392  13.428 -1.6596  0.5928 -2.3820
 3807TIP3    H232837   4.131   4.501  13.509 -0.3087 -2.0975  0.3249
 3808TIP3   OH232838   2.801   2.867   5.455  0.0407  0.1810 -0.1394
 3808TIP3    H132839   2.780   2.946   5.504 -1.4758  0.5975 -1.3580
 3808TIP3    H232840   2.839   2.807   5.519  2.3666  2.3010  0.5681
 3809TIP3   OH232841   6.395   4.520   2.131  0.3027 -0.3241 -0.3141
 3809TIP3    H132842   6.326   4.547   2.071  1.2580 -1.1233 -1.8325
 3809TIP3    H232843   6.373   4.430   2.155 -0.5122  0.2531  1.2316
 3810TIP3   OH232844   2.135   0.774  13.852 -0.7307 -0.1432  0.5641
 3810TIP3    H132845   2.168   0.684  13.860  1.4415  0.5364 -0.0036
 3810TIP3    H232846   2.141   0.792  13.758  3.3203  2.0438  1.0229
 3811TIP3   OH232847   4.338   1.552   5.832  0.0349  0.1501 -0.1168
 3811TIP3    H132848   4.387   1.514   5.905  1.2297  0.1300 -0.9029
 3811TIP3    H232849   4.325   1.644   5.856 -0.3719 -0.0562  0.5030
 3812TIP3   OH232850   0.409   3.700  11.054 -0.0994  0.4207  0.4668
 3812TIP3    H132851   0.429   3.625  11.111  2.0941  0.6733  0.1148
 3812TIP3    H232852   0.476   3.765  11.076 -0.7633  1.5164 -0.6265
 3813TIP3   OH232853   4.923   6.097   1.399 -0.4283 -0.2377  0.4308
 3813TIP3    H132854   4.956   6.073   1.486 -1.9287 -2.1806  0.5362
 3813TIP3    H232855   4.828   6.087   1.406 -0.9495  3.1788 -0.4465
 3814TIP3   OH232856   5.317   6.288  13.025 -0.1996  0.2833 -0.4265
 3814TIP3    H132857   5.303   6.360  13.086  2.0919  0.6351 -0.2200
 3814TIP3    H232858   5.333   6.331  12.941  1.0841  0.0624 -0.3224
 3815TIP3   OH232859   4.197   3.768  12.532  0.1982  0.2235 -0.2531
 3815TIP3    H132860   4.239   3.704  12.589 -0.7920  1.5963  2.1867
 3815TIP3    H232861   4.266   3.831  12.512  0.1058  0.8470  1.2345
 3816TIP3   OH232862   2.690   3.200   5.117  0.1118  0.9073 -0.3549
 3816TIP3    H132863   2.632   3.257   5.168 -1.3899 -0.2832 -0.6444
 3816TIP3    H232864   2.651   3.113   5.126  2.5315 -0.1948  0.4088
 3817TIP3   OH232865   2.011   2.701   2.236  0.4767 -0.0880 -0.2405
 3817TIP3    H132866   2.007   2.723   2.143 -2.5944  0.6792 -0.0331
 3817TIP3    H232867   1.999   2.606   2.239 -2.5547  0.1781 -0.6325
 3818TIP3   OH232868   4.706   0.080   1.129  0.0802  0.9056  0.3548
 3818TIP3    H132869   4.662   0.105   1.048 -1.5245 -1.6460  0.3207
 3818TIP3    H232870   4.637   0.080   1.195  1.1339  1.8458  1.4988
 3819TIP3   OH232871   4.086   3.964  16.178  0.2594 -0.0335 -0.5492
 3819TIP3    H132872   4.127   4.040  16.136  0.7285  0.6737  1.1023
 3819TIP3    H232873   4.156   3.900  16.188 -0.0900 -0.6271 -1.7540
 3820TIP3   OH232874   4.151   1.877   2.516  0.6637 -0.2099 -0.1879
 3820TIP3    H132875   4.234   1.830   2.522  1.9106  1.9755  1.0810
 3820TIP3    H232876   4.171   1.956   2.466  0.3692  2.1722  3.1380
 3821TIP3   OH232877   2.271   4.248  11.396  0.3233 -0.6437  0.6538
 3821TIP3    H132878   2.302   4.171  11.443  0.6129 -0.4517  0.7860
 3821TIP3    H232879   2.176   4.248  11.408  0.1612 -1.6746 -0.4104
 3822TIP3   OH232880   0.681   4.027   2.203 -1.0593 -0.1236  0.0732
 3822TIP3    H132881   0.738   4.039   2.127 -1.2371  0.1764 -0.0138
 3822TIP3    H232882   0.741   4.032   2.278 -1.0586  0.9267  0.0186
 3823TIP3   OH232883   0.086   1.859  13.483  0.3352 -0.0677  0.0577
 3823TIP3    H132884   0.098   1.808  13.403 -2.0005  0.3798 -0.6583
 3823TIP3    H232885   0.060   1.946  13.452 -0.9607  0.0148  1.2625
 3824TIP3   OH232886   0.184   4.022   1.719 -0.7481  0.0464  0.3560
 3824TIP3    H132887   0.267   4.068   1.730 -2.0375  2.5094  0.4572
 3824TIP3    H232888   0.157   4.001   1.809 -0.1301 -1.0504  0.3063
 3825TIP3   OH232889   1.457   4.172  15.503  0.3532 -0.6298 -0.2343
 3825TIP3    H132890   1.467   4.166  15.408  0.3223 -0.0970 -0.2698
 3825TIP3    H232891   1.396   4.101  15.525 -1.7223  0.8512 -0.9279
 3826TIP3   OH232892   1.312   3.258   2.316 -0.1450 -0.4769 -0.3007
 3826TIP3    H132893   1.339   3.340   2.275  1.6591  0.2847  2.1784
 3826TIP3    H232894   1.241   3.226   2.260  0.6104  1.5705 -2.6433
 3827TIP3   OH232895   3.372   1.272  16.935 -0.0393  0.6897 -0.1037
 3827TIP3    H132896   3.420   1.258  16.853  0.0150 -0.5141  0.1313
 3827TIP3    H232897   3.280   1.282  16.907  0.0437  0.7892 -0.3491
 3828TIP3   OH232898   2.219   4.463   5.469  0.3649 -0.1909 -0.0855
 3828TIP3    H132899   2.177   4.481   5.385 -1.0843  0.4786  0.7426
 3828TIP3    H232900   2.147   4.459   5.532  1.4768  0.2037  1.2742
 3829TIP3   OH232901   6.494   5.138   3.773 -0.7364 -0.2270 -0.2091
 3829TIP3    H132902   6.501   5.174   3.862  0.0678 -1.0385  0.0737
 3829TIP3    H232903   6.400   5.126   3.760 -0.7802 -3.2511  1.8690
 3830TIP3   OH232904   1.117   2.638   3.749 -0.0143  0.1593 -0.1616
 3830TIP3    H132905   1.180   2.689   3.801 -0.6587  0.5701  0.2281
 3830TIP3    H232906   1.106   2.689   3.669  2.3574 -1.3634 -1.5721
 3831TIP3   OH232907   6.495   6.388   0.655  0.6831 -0.4813  0.1622
 3831TIP3    H132908   6.455   6.349   0.578  0.7051 -1.0118  0.4140
 3831TIP3    H232909   6.424   6.393   0.719  0.6241  0.1085  0.0598
 3832TIP3   OH232910   5.602   6.437  14.489  0.8098 -0.3459 -0.1775
 3832TIP3    H132911   5.618   6.394  14.572 -0.6420 -0.5313  0.0270
 3832TIP3    H232912   5.638   6.377  14.423 -1.0286 -1.8728  0.1075
 3833TIP3   OH232913   0.365   2.127  11.322  0.3655 -0.2279  0.1783
 3833TIP3    H132914   0.434   2.089  11.377 -0.0506 -0.2680  0.6826
 3833TIP3    H232915   0.367   2.076  11.241 -0.4842 -1.6496  1.0102
 3834TIP3   OH232916   4.618   2.186   1.962 -0.0522 -0.1938 -0.4019
 3834TIP3    H132917   4.708   2.185   1.931 -0.9207 -1.2066 -3.1658
 3834TIP3    H232918   4.589   2.276   1.949  0.2609 -0.1022 -0.4751
 3835TIP3   OH232919   2.077   0.898  11.825  0.4270  0.2475 -0.8686
 3835TIP3    H132920   2.065   0.817  11.774  0.0059  1.8514 -3.5002
 3835TIP3    H232921   2.013   0.959  11.790  0.6556  1.7444  1.1246
 3836TIP3   OH232922   3.942   4.884   1.126 -0.6176 -0.0011  0.8695
 3836TIP3    H132923   4.006   4.821   1.159  2.4790  1.4975 -1.7180
 3836TIP3    H232924   3.930   4.946   1.198  1.3537 -0.0159  1.2682
 3837TIP3   OH232925   4.178   2.244  12.882  0.4207  0.5238 -0.0601
 3837TIP3    H132926   4.160   2.278  12.969  2.0345 -2.4098  1.5836
 3837TIP3    H232927   4.096   2.203  12.854  0.5541 -0.6132  1.1667
 3838TIP3   OH232928   5.449   4.684   5.613 -0.2826 -0.3674 -0.4670
 3838TIP3    H132929   5.398   4.672   5.532 -0.0904 -0.7390 -0.5342
 3838TIP3    H232930   5.519   4.744   5.588  1.0083 -2.0725 -1.1356
 3839TIP3   OH232931   5.647   3.514   1.057  0.3370  0.5400  0.4336
 3839TIP3    H132932   5.727   3.508   1.004 -0.9751 -1.5416 -1.4849
 3839TIP3    H232933   5.622   3.606   1.053  2.1935  1.0877  0.4593
 3840TIP3   OH232934   3.990   6.044  16.750 -0.8041 -0.4916 -0.1230
 3840TIP3    H132935   4.057   6.032  16.683 -1.4875 -2.1254 -0.5658
 3840TIP3    H232936   4.028   6.106  16.812  1.2202 -1.5711 -0.2146
 3841TIP3   OH232937   3.103   3.483  12.906  0.5416  0.4131  0.0524
 3841TIP3    H132938   3.112   3.471  13.001  1.2509  1.8191  0.1767
 3841TIP3    H232939   3.155   3.560  12.886 -0.4920  0.7857 -1.3337
 3842TIP3   OH232940   2.463   1.825  15.093 -0.7211  0.3430  0.0830
 3842TIP3    H132941   2.393   1.881  15.061  0.0521  0.7902 -0.8591
 3842TIP3    H232942   2.536   1.885  15.110 -0.7213 -0.0331  1.5936
 3843TIP3   OH232943   0.576   0.897  13.512 -0.1890 -0.1391  0.2161
 3843TIP3    H132944   0.625   0.824  13.474 -0.4752 -0.2404  0.0363
 3843TIP3    H232945   0.523   0.931  13.440 -0.2702  0.0661  0.3697
 3844TIP3   OH232946   6.573   4.309  10.639 -0.2108 -0.0289 -0.1804
 3844TIP3    H132947   6.548   4.399  10.620 -0.1998  0.7502  2.9471
 3844TIP3    H232948   6.663   4.315  10.668 -0.5014 -0.8980  0.9545
 3845TIP3   OH232949   1.729   6.335  15.211 -0.3206 -0.0365 -0.7939
 3845TIP3    H132950   1.679   6.415  15.229 -1.6455 -1.0954  0.5306
 3845TIP3    H232951   1.789   6.327  15.285 -1.8756 -1.4722  0.3915
 3846TIP3   OH232952   0.883   6.248   3.294 -0.0412  0.0233 -0.2474
 3846TIP3    H132953   0.829   6.326   3.277 -1.2937 -0.6286  0.5840
 3846TIP3    H232954   0.898   6.250   3.388  1.0463 -0.0429 -0.4130
 3847TIP3   OH232955   4.459   2.204  16.354  0.1764 -0.1972  0.0386
 3847TIP3    H132956   4.545   2.238  16.326  0.0684  0.2216  0.2029
 3847TIP3    H232957   4.470   2.188  16.448  0.0824 -0.1703  0.0543
 3848TIP3   OH232958   3.546   1.040   0.292  0.1417  0.2075  0.4445
 3848TIP3    H132959   3.616   1.005   0.348  0.8286  2.0229  0.7894
 3848TIP3    H232960   3.589   1.059   0.209  0.5056  2.7624  1.1349
 3849TIP3   OH232961   0.291   2.523   3.397 -0.0898 -0.0645  0.0345
 3849TIP3    H132962   0.354   2.554   3.462  0.7637  0.1513 -0.8728
 3849TIP3    H232963   0.237   2.600   3.378 -0.3531 -0.1336  0.4996
 3850TIP3   OH232964   4.747   5.815   0.621 -0.2884  0.4246  0.0174
 3850TIP3    H132965   4.742   5.881   0.690 -2.1640  1.6482 -1.2269
 3850TIP3    H232966   4.814   5.848   0.561 -0.1909  0.4534  0.1413
 3851TIP3   OH232967   1.927   3.063  15.833  0.0592  0.1978 -0.2036
 3851TIP3    H132968   1.907   3.132  15.896  2.9742  0.8682  0.1379
 3851TIP3    H232969   1.896   3.096  15.749  0.7821  1.6486  0.0767
 3852TIP3   OH232970   6.260   4.939  11.713 -0.1759 -0.4702  0.0474
 3852TIP3    H132971   6.263   4.896  11.799 -0.2242 -1.0906 -0.2612
 3852TIP3    H232972   6.172   4.977  11.708  0.7615  2.2382  1.5448
 3853TIP3   OH232973   3.885   1.789  12.256 -0.1262 -0.3963  0.6526
 3853TIP3    H132974   3.865   1.852  12.325  1.7455 -0.0939  0.9704
 3853TIP3    H232975   3.911   1.844  12.181 -1.3461 -0.7435 -0.0612
 3854TIP3   OH232976   6.486   4.667   2.665  0.0189 -0.1884 -0.2339
 3854TIP3    H132977   6.555   4.689   2.603 -0.5663  0.0294 -0.8242
 3854TIP3    H232978   6.531   4.628   2.739  0.7931  0.1831 -0.5040
 3855TIP3   OH232979   3.288   0.159   4.200  0.5222  0.0958 -0.1153
 3855TIP3    H132980   3.234   0.206   4.264  0.8307  0.2562  0.0246
 3855TIP3    H232981   3.352   0.223   4.170 -0.2401  0.3237 -1.3350
 3856TIP3   OH232982   6.514   4.896   3.606 -0.0727 -0.3837 -0.5487
 3856TIP3    H132983   6.522   4.988   3.630 -0.2089 -0.4510 -0.2345
 3856TIP3    H232984   6.458   4.858   3.674  1.4047 -1.0750  0.3401
 3857TIP3   OH232985   2.865   5.414  14.580 -0.0740 -1.0649 -0.2444
 3857TIP3    H132986   2.871   5.373  14.494 -1.3186 -2.2775  0.2054
 3857TIP3    H232987   2.881   5.343  14.642  0.0578 -0.3676  0.5398
 3858TIP3   OH232988   4.521   3.554   3.849 -0.1000 -0.1267 -0.5453
 3858TIP3    H132989   4.605   3.575   3.888 -1.2598 -0.3879  2.3602
 3858TIP3    H232990   4.472   3.510   3.919 -2.0995 -1.4181 -2.5940
 3859TIP3   OH232991   0.088   1.406  16.441  0.6341 -0.1503 -0.0486
 3859TIP3    H132992   0.021   1.357  16.489  1.1537  0.2973  1.1575
 3859TIP3    H232993   0.106   1.482  16.496  0.5503  0.8977 -1.4161
 3860TIP3   OH232994   6.371   2.163  13.375 -0.0969 -0.1258  0.1137
 3860TIP3    H132995   6.376   2.131  13.465 -1.1741  0.0312  0.2360
 3860TIP3    H232996   6.459   2.198  13.358  0.8142 -2.1538  0.3203
 3861TIP3   OH232997   0.524   0.830   1.028  0.3756  0.5113 -0.3969
 3861TIP3    H132998   0.495   0.918   1.005  1.3625  1.2029  0.8827
 3861TIP3    H232999   0.620   0.833   1.021  0.4494 -0.3250  0.0836
 3862TIP3   OH233000   6.624   2.644   1.933 -0.0348  0.2162 -0.0086
 3862TIP3    H133001   6.631   2.561   1.980  2.5212  1.0686  1.2929
 3862TIP3    H233002   6.645   2.711   1.998  0.0480  1.7248 -1.5160
 3863TIP3   OH233003   6.114   1.507   5.000 -0.0026  0.0495  0.2855
 3863TIP3    H133004   6.207   1.510   4.977  0.1001  0.2001  0.7054
 3863TIP3    H233005   6.082   1.596   4.986  0.1762  0.2657  1.1638
 3864TIP3   OH233006   1.229   5.746  13.831 -0.5217 -0.2941 -0.1189
 3864TIP3    H133007   1.313   5.750  13.877  0.5565  0.0911 -2.0133
 3864TIP3    H233008   1.239   5.807  13.758 -2.9687  0.8009  0.3678
 3865TIP3   OH233009   2.586   4.338   4.348 -0.3444  0.3430  0.8774
 3865TIP3    H133010   2.553   4.307   4.432 -1.1945  1.5892  1.0321
 3865TIP3    H233011   2.551   4.427   4.340 -1.4707 -0.2385 -1.4580
 3866TIP3   OH233012   2.267   1.495   3.062 -0.2442 -0.4448 -0.5953
 3866TIP3    H133013   2.337   1.482   2.998  0.0193  0.0781 -0.4261
 3866TIP3    H233014   2.197   1.437   3.034 -1.1529  1.5493 -2.8689
 3867TIP3   OH233015   1.234   3.901   1.494 -0.1451 -0.1691 -0.5049
 3867TIP3    H133016   1.253   3.808   1.484  2.7139  0.3919 -1.1865
 3867TIP3    H233017   1.222   3.913   1.588 -0.0409 -1.1277 -0.3614
 3868TIP3   OH233018   2.985   3.817   0.127  0.1797  1.0043  0.3108
 3868TIP3    H133019   2.914   3.806   0.065 -0.3261  0.2648  0.9963
 3868TIP3    H233020   2.943   3.857   0.204  0.8089  1.9806  0.1675
 3869TIP3   OH233021   3.965   3.680  10.954  0.1200 -0.4763 -0.4950
 3869TIP3    H133022   4.029   3.742  10.919 -0.9123  1.1938  0.4144
 3869TIP3    H233023   3.984   3.677  11.048 -0.1628 -1.1585 -0.4564
 3870TIP3   OH233024   6.551   3.440   4.369 -0.3061 -0.7982 -0.2023
 3870TIP3    H133025   6.562   3.367   4.309  0.9828 -1.4780  0.8245
 3870TIP3    H233026   6.481   3.493   4.330 -1.1057 -2.4403 -1.0757
 3871TIP3   OH233027   2.307   3.030   2.910  0.2589  0.2260  0.3914
 3871TIP3    H133028   2.301   3.025   3.005  0.9937  0.2005  0.4375
 3871TIP3    H233029   2.397   3.056   2.892 -0.0761  0.9925 -0.2701
 3872TIP3   OH233030   5.691   5.061  16.493 -0.3515 -0.3908 -0.2610
 3872TIP3    H133031   5.745   5.044  16.415  2.4919  4.5069  0.1909
 3872TIP3    H233032   5.628   5.127  16.464 -2.4152 -1.8800  0.6392
 3873TIP3   OH233033   5.956   0.100   3.420 -0.4185  0.3731 -0.3833
 3873TIP3    H133034   6.009   0.154   3.479 -0.7464  0.7487 -0.4302
 3873TIP3    H233035   5.976   0.010   3.446 -1.3112  0.5319  0.9879
 3874TIP3   OH233036   4.058   4.530   0.561  0.2130  0.3500 -0.2145
 3874TIP3    H133037   4.139   4.543   0.610 -0.3233 -0.2766  0.9008
 3874TIP3    H233038   3.989   4.550   0.625 -0.5335  2.5302 -1.6169
 3875TIP3   OH233039   5.167   1.251  12.045  0.2660  0.6980  0.4947
 3875TIP3    H133040   5.122   1.167  12.035  0.6571  0.3601  1.4356
 3875TIP3    H233041   5.124   1.293  12.120 -0.1133  1.4745 -0.1405
 3876TIP3   OH233042   4.355   3.850   0.718  0.1384 -0.4892  0.0603
 3876TIP3    H133043   4.323   3.785   0.781 -0.3279 -1.0338 -0.7272
 3876TIP3    H233044   4.353   3.806   0.634  1.8470 -0.1297 -0.2032
 3877TIP3   OH233045   0.474   3.045  14.402  0.6657  0.4120  0.1105
 3877TIP3    H133046   0.426   2.976  14.447  0.5325  1.2602  1.3095
 3877TIP3    H233047   0.419   3.068  14.327 -0.4952  0.9085  1.0891
 3878TIP3   OH233048   1.315   0.299   5.574 -0.6566  0.3526  0.1550
 3878TIP3    H133049   1.308   0.271   5.483  1.3890 -0.3108  0.1494
 3878TIP3    H233050   1.335   0.219   5.623  0.5031  1.0273  0.8362
 3879TIP3   OH233051   5.367   1.431  11.743 -0.3685  0.7085  0.2846
 3879TIP3    H133052   5.419   1.480  11.679 -1.0140 -0.2551 -1.0274
 3879TIP3    H233053   5.412   1.347  11.750  0.0149  1.0045  1.5578
 3880TIP3   OH233054   2.981   6.782  12.700  0.6647 -0.3246  0.0486
 3880TIP3    H133055   3.030   6.806  12.622 -0.7935 -0.6103 -0.9968
 3880TIP3    H233056   2.965   6.688  12.690  2.6703 -0.9622  1.9968
 3881TIP3   OH233057   1.732   4.999  15.701 -0.0652 -0.4140  0.0213
 3881TIP3    H133058   1.682   4.921  15.725  0.1975 -0.2423  1.1629
 3881TIP3    H233059   1.788   4.969  15.629 -0.4194 -1.1159  0.0280
 3882TIP3   OH233060   5.357   2.520   2.491 -0.0167  0.2680  0.1349
 3882TIP3    H133061   5.297   2.595   2.489 -0.6228 -0.2177 -0.2122
 3882TIP3    H233062   5.401   2.528   2.576 -1.2083  0.1583  0.7978
 3883TIP3   OH233063   5.056   5.312  10.461  0.2925  0.0244  0.0462
 3883TIP3    H133064   5.048   5.218  10.445 -0.6628  0.2778 -1.1241
 3883TIP3    H233065   5.127   5.320  10.525  1.9687 -1.3600 -1.5300
 3884TIP3   OH233066   1.883   0.868  10.839  0.4908 -0.0731 -0.4355
 3884TIP3    H133067   1.943   0.923  10.889 -0.6114  0.1085  0.7428
 3884TIP3    H233068   1.856   0.922  10.765  1.9686 -0.2623 -1.1527
 3885TIP3   OH233069   3.563   3.511   2.836 -0.1345 -0.1319  0.2637
 3885TIP3    H133070   3.608   3.522   2.920  1.6154 -0.1928 -0.6309
 3885TIP3    H233071   3.499   3.582   2.833  0.3160  0.3340  1.3040
 3886TIP3   OH233072   4.118   4.858  11.593  0.2325  0.3193 -0.0727
 3886TIP3    H133073   4.044   4.854  11.533  1.8983 -0.2684 -2.2470
 3886TIP3    H233074   4.155   4.769  11.591  2.7387  1.2709 -1.5302
 3887TIP3   OH233075   5.397   4.962  12.989 -0.0896  0.4961  0.0862
 3887TIP3    H133076   5.309   4.924  12.995 -0.3203  1.1491  1.1797
 3887TIP3    H233077   5.449   4.911  13.051  0.7742 -1.0508 -1.8351
 3888TIP3   OH233078   4.524   1.313   2.159  0.6531 -0.3906  0.2116
 3888TIP3    H133079   4.438   1.338   2.192  0.5927 -0.5652  0.1878
 3888TIP3    H233080   4.507   1.276   2.073  0.7139 -0.7164  0.3352
 3889TIP3   OH233081   2.844   6.319  13.767  0.1656  0.3071  0.0872
 3889TIP3    H133082   2.795   6.324  13.850  0.4984  0.2872  0.2863
 3889TIP3    H233083   2.935   6.304  13.794  0.5594  1.9738 -0.2300
 3890TIP3   OH233084   1.089   5.007   1.145 -0.3594 -0.5629  0.6119
 3890TIP3    H133085   1.041   4.924   1.140  1.3554 -1.6273  0.7268
 3890TIP3    H233086   1.104   5.020   1.239  0.5154 -0.8636  0.5307
 3891TIP3   OH233087   0.830   2.641   0.629  0.9886  0.0069  0.5695
 3891TIP3    H133088   0.808   2.617   0.539  1.1649 -0.7562  0.7267
 3891TIP3    H233089   0.881   2.722   0.620  2.6127 -1.0443 -0.1654
 3892TIP3   OH233090   5.996   3.896  14.221  0.6167 -0.6253  0.2357
 3892TIP3    H133091   6.032   3.811  14.247  1.4296 -0.4695 -0.3442
 3892TIP3    H233092   6.051   3.960  14.265 -0.3015 -0.3790  1.0765
 3893TIP3   OH233093   2.825   3.566  14.784  0.3018 -0.5206  0.1877
 3893TIP3    H133094   2.858   3.509  14.715  0.8696  0.1564 -0.1036
 3893TIP3    H233095   2.731   3.571  14.767  0.2839 -1.1438  0.0599
 3894TIP3   OH233096   4.564   3.510  16.996 -0.7738 -0.8742 -0.2225
 3894TIP3    H133097   4.583   3.418  16.976 -2.1141 -1.2537  0.1625
 3894TIP3    H233098   4.507   3.506  17.073 -1.0458  0.2766 -0.3536
 3895TIP3   OH233099   1.900   4.954  14.873 -0.6177  0.0438  0.2916
 3895TIP3    H133100   1.815   4.966  14.830  0.5869 -0.5308 -2.5025
 3895TIP3    H233101   1.909   4.859  14.882  0.6357 -0.0656 -1.5956
 3896TIP3   OH233102   0.442   2.540  14.510  0.2497 -0.2473 -0.3766
 3896TIP3    H133103   0.399   2.560  14.426 -1.6984 -1.6510  0.2141
 3896TIP3    H233104   0.446   2.445  14.513 -0.9142 -0.2778  1.6619
 3897TIP3   OH233105   4.364   6.622  15.768  1.3750 -0.0961  0.2836
 3897TIP3    H133106   4.333   6.585  15.685  1.9155 -0.4029  0.2204
 3897TIP3    H233107   4.398   6.548  15.817  1.4496  0.1509  0.6085
 3898TIP3   OH233108   5.964   1.396  13.331  0.0544 -0.1869  0.4233
 3898TIP3    H133109   5.983   1.489  13.341  1.8340 -0.3292 -1.1922
 3898TIP3    H233110   6.045   1.352  13.356 -1.0026 -1.3938  1.9407
 3899TIP3   OH233111   2.394   6.477  10.621 -0.1410  0.4984  0.1039
 3899TIP3    H133112   2.408   6.542  10.552  2.2102 -0.9433 -0.9414
 3899TIP3    H233113   2.360   6.400  10.575  0.8738 -0.2826  0.5944
 3900TIP3   OH233114   2.637   3.966   4.489  0.2538 -0.0723  0.0640
 3900TIP3    H133115   2.568   4.007   4.437 -1.6461 -1.4707  1.3230
 3900TIP3    H233116   2.671   4.036   4.545  1.3651  1.1199 -1.9876
 3901TIP3   OH233117   1.319   2.209   0.362 -0.0835 -0.1146 -0.3665
 3901TIP3    H133118   1.402   2.239   0.324  0.4555 -0.9529  0.1211
 3901TIP3    H233119   1.326   2.114   0.363 -0.4889 -0.1508  0.9223
 3902TIP3   OH233120   5.896   5.203  13.492 -0.2474 -0.1468  0.3053
 3902TIP3    H133121   5.862   5.289  13.517 -0.2135 -0.0840  0.1333
 3902TIP3    H233122   5.845   5.141  13.545  0.6126  0.0453  1.4030
 3903TIP3   OH233123   1.538   5.037  14.373 -0.0067 -0.5344  0.0463
 3903TIP3    H133124   1.539   4.984  14.294  0.4797 -0.8937  0.2851
 3903TIP3    H233125   1.472   4.995  14.429 -0.7190  0.0254 -0.3675
 3904TIP3   OH233126   0.771   3.382   0.923 -0.0536  0.1950 -0.4508
 3904TIP3    H133127   0.831   3.436   0.975 -0.4654 -0.1372  0.3685
 3904TIP3    H233128   0.828   3.318   0.881 -0.0035 -1.4421  1.9295
 3905TIP3   OH233129   2.403   0.811   4.969 -0.3095 -0.5976 -0.2157
 3905TIP3    H133130   2.327   0.769   5.009 -0.8423 -1.7486 -2.2527
 3905TIP3    H233131   2.372   0.839   4.883  1.4527 -0.6951 -0.9242
 3906TIP3   OH233132   6.634   5.589   1.434 -0.7965 -0.2266  0.5231
 3906TIP3    H133133   6.699   5.551   1.494 -0.3186  1.0135  0.8312
 3906TIP3    H233134   6.654   5.550   1.349  0.4954  0.2471  0.5783
 3907TIP3   OH233135   2.998   5.623  12.165 -0.5949  0.3287  0.6733
 3907TIP3    H133136   2.911   5.597  12.196 -0.4878 -2.6153 -1.1069
 3907TIP3    H233137   3.051   5.631  12.244 -1.8621 -0.4299  1.6276
 3908TIP3   OH233138   1.915   0.470   6.166  0.4067  0.5273 -0.3634
 3908TIP3    H133139   1.926   0.376   6.176 -0.6319  0.5806  2.2517
 3908TIP3    H233140   1.986   0.508   6.219 -0.8646  1.1196  0.9759
 3909TIP3   OH233141   0.381   0.224   4.225 -0.3273 -0.0427  0.2577
 3909TIP3    H133142   0.287   0.224   4.242 -0.8467  1.4606 -2.1879
 3909TIP3    H233143   0.392   0.171   4.146  0.8752 -0.0644  0.4131
 3910TIP3   OH233144   4.807   3.144   4.017  0.0055  0.2531  0.0275
 3910TIP3    H133145   4.783   3.064   4.063 -0.9759  0.4723 -0.0846
 3910TIP3    H233146   4.747   3.149   3.943  2.0252 -0.4558 -1.7274
 3911TIP3   OH233147   6.716   1.348   2.980  0.1358  0.6095  0.2051
 3911TIP3    H133148   6.698   1.334   2.887  0.8784  0.1904  0.1187
 3911TIP3    H233149   6.659   1.421   3.005  0.1265  0.8988 -0.6435
 3912TIP3   OH233150   6.601   5.243   4.019 -0.1122 -0.2218  0.1542
 3912TIP3    H133151   6.630   5.334   4.022 -0.4264 -0.1293  0.4287
 3912TIP3    H233152   6.558   5.228   4.103 -1.2580 -0.2197 -0.4128
 3913TIP3   OH233153   1.623   1.371   3.995  0.7328  0.3247  0.5336
 3913TIP3    H133154   1.608   1.393   4.087 -0.7637  1.1037  0.1328
 3913TIP3    H233155   1.621   1.275   3.992 -0.2782  0.3208  1.1541
 3914TIP3   OH233156   4.468   4.187   0.209  0.0362  0.3074 -0.1546
 3914TIP3    H133157   4.442   4.208   0.299 -0.1870  0.6079 -0.2910
 3914TIP3    H233158   4.396   4.134   0.175 -0.4940  1.2871 -0.5912
 3915TIP3   OH233159   2.484   3.083   5.671 -0.2767 -0.1780 -0.5604
 3915TIP3    H133160   2.560   3.062   5.725 -0.9856 -0.7764  0.2223
 3915TIP3    H233161   2.422   3.012   5.687 -1.5729  1.0025 -0.0709
 3916TIP3   OH233162   1.296   5.825  15.600 -0.0854  0.3751  0.6763
 3916TIP3    H133163   1.269   5.772  15.525  1.5444  0.8763 -0.3071
 3916TIP3    H233164   1.250   5.908  15.588 -1.3354 -0.1911  1.3176
 3917TIP3   OH233165   2.505   4.679   0.197  0.4637  0.4646  0.2750
 3917TIP3    H133166   2.552   4.750   0.241  0.5403 -0.8195  2.3482
 3917TIP3    H233167   2.431   4.660   0.255 -2.1220  1.6865 -2.3475
 3918TIP3   OH233168   5.666   4.484  14.287 -0.2772 -0.1070 -0.2322
 3918TIP3    H133169   5.581   4.440  14.289  0.2935 -1.2576  0.8349
 3918TIP3    H233170   5.661   4.548  14.359  0.6653 -2.1320  1.7754
 3919TIP3   OH233171   3.030   4.929  16.414 -0.3134  0.6378 -0.4464
 3919TIP3    H133172   3.110   4.892  16.375  0.1070  1.0630 -0.0047
 3919TIP3    H233173   3.006   5.002  16.357  0.6742  1.6763  0.4146
 3920TIP3   OH233174   3.972   1.033   4.087  0.1524  0.6463  0.2358
 3920TIP3    H133175   3.952   1.104   4.148 -2.4593  1.5785 -1.5002
 3920TIP3    H233176   4.003   1.078   4.008  1.1574 -0.3547  0.0393
 3921TIP3   OH233177   5.901   4.543  11.314 -0.0554  0.0097  0.2292
 3921TIP3    H133178   5.956   4.586  11.380 -1.4637  3.2234 -0.4708
 3921TIP3    H233179   5.813   4.544  11.352 -0.2899 -1.6015 -0.2070
 3922TIP3   OH233180   6.315   5.403  11.814  0.0404  0.2362  0.7025
 3922TIP3    H133181   6.235   5.352  11.798 -1.0821  2.1870 -0.4406
 3922TIP3    H233182   6.361   5.402  11.730  0.9394 -0.3923  1.1923
 3923TIP3   OH233183   2.715   6.120   0.042  0.2396  0.1300 -0.1597
 3923TIP3    H133184   2.655   6.046   0.050 -0.6817  1.0684  2.9081
 3923TIP3    H233185   2.797   6.081   0.011 -1.3872 -1.3901 -3.0064
 3924TIP3   OH233186   3.648   1.550   1.406 -0.4358 -0.2608 -0.0535
 3924TIP3    H133187   3.634   1.471   1.354  2.4423 -0.8531 -0.0940
 3924TIP3    H233188   3.707   1.604   1.353 -0.0663  0.6235  1.1963
 3925TIP3   OH233189   2.688   3.701  15.610 -0.6936  0.0223 -0.5014
 3925TIP3    H133190   2.732   3.669  15.688  0.1776 -0.8713 -1.3357
 3925TIP3    H233191   2.609   3.647  15.602 -1.2474  0.7044  0.2311
 3926TIP3   OH233192   0.741   3.516  15.101 -0.1338 -0.5256 -0.7172
 3926TIP3    H133193   0.690   3.522  15.020 -0.9811 -0.4100 -0.1905
 3926TIP3    H233194   0.694   3.451  15.153 -0.5897  0.6415  0.3752
 3927TIP3   OH233195   0.174   0.443  15.978 -0.0170  0.5902 -0.1382
 3927TIP3    H133196   0.264   0.411  15.994  0.2107  0.7870 -1.0007
 3927TIP3    H233197   0.148   0.401  15.896  0.1958  2.4272 -1.1786
 3928TIP3   OH233198   4.970   4.071   4.068  0.1601 -0.3347  0.3175
 3928TIP3    H133199   4.973   4.161   4.100 -0.3989  0.0484 -0.6763
 3928TIP3    H233200   5.045   4.064   4.010 -1.2378  0.3158 -1.6541
 3929TIP3   OH233201   3.741   5.164  10.273 -0.2951 -0.4274 -0.6684
 3929TIP3    H133202   3.800   5.137  10.203  0.5852  0.3723 -0.2656
 3929TIP3    H233203   3.680   5.226  10.231 -2.5909 -3.1708 -1.6898
 3930TIP3   OH233204   4.481   4.055  13.878  0.2670  0.2046  0.5139
 3930TIP3    H133205   4.485   4.069  13.972  1.1127 -0.3489  0.5697
 3930TIP3    H233206   4.501   3.962  13.866 -1.8510 -0.2249 -0.0805
 3931TIP3   OH233207   5.962   4.259   2.774  0.0406  0.1343  0.3639
 3931TIP3    H133208   5.941   4.343   2.734  1.0088  0.1542 -0.1288
 3931TIP3    H233209   5.993   4.205   2.701 -2.4936 -1.3591  0.2635
 3932TIP3   OH233210   0.951   3.608  14.489 -0.3863 -0.3569  0.0413
 3932TIP3    H133211   0.974   3.539  14.427  0.5969 -2.1927  2.2615
 3932TIP3    H233212   0.869   3.579  14.528 -0.1719 -0.0734  0.7167
 3933TIP3   OH233213   1.798   2.441  16.099  0.1385  0.0048 -0.4888
 3933TIP3    H133214   1.812   2.464  16.007 -1.9113  2.1693 -0.3457
 3933TIP3    H233215   1.857   2.499  16.147  0.8839 -0.8206 -0.3648
 3934TIP3   OH233216   1.330   0.122  15.526 -0.4942  0.5333 -0.0154
 3934TIP3    H133217   1.319   0.110  15.432  0.6926  0.9879 -0.2341
 3934TIP3    H233218   1.346   0.216  15.536 -0.9967  0.5519  0.6921
 3935TIP3   OH233219   4.206   2.977  15.489 -0.0391  0.4647 -0.3161
 3935TIP3    H133220   4.289   2.948  15.529 -0.0543 -0.3198 -0.8272
 3935TIP3    H233221   4.232   3.044  15.426  0.3930 -0.7569 -1.4886
 3936TIP3   OH233222   1.651   5.802   4.198  0.3517  0.4376  0.1730
 3936TIP3    H133223   1.612   5.795   4.111 -0.6473 -0.0243  0.6471
 3936TIP3    H233224   1.617   5.884   4.233 -0.6319 -0.2198  0.7893
 3937TIP3   OH233225   1.214   2.132   4.291  0.0002  0.2436  0.5817
 3937TIP3    H133226   1.228   2.083   4.210  2.6023 -1.8730  2.1234
 3937TIP3    H233227   1.285   2.196   4.293 -0.6074  0.9300  0.7842
 3938TIP3   OH233228   1.258   5.389  13.238  0.5940 -0.2407  0.3656
 3938TIP3    H133229   1.260   5.425  13.149  1.5838 -0.2156  0.3820
 3938TIP3    H233230   1.249   5.294  13.225 -1.1012 -0.0921  0.3003
 3939TIP3   OH233231   1.686   5.413   4.557  0.1893  0.1171 -0.3763
 3939TIP3    H133232   1.740   5.492   4.547 -1.7840  1.7455  0.9941
 3939TIP3    H233233   1.625   5.417   4.483 -0.7554  0.6161  0.4157
 3940TIP3   OH233234   4.170   1.473   2.545 -0.0028 -0.2870 -0.1828
 3940TIP3    H133235   4.231   1.416   2.593  1.1308 -0.1634 -1.4066
 3940TIP3    H233236   4.086   1.429   2.552  0.1141 -0.2738  1.8762
 3941TIP3   OH233237   4.073   3.573  12.933  0.6378  0.3287  0.5447
 3941TIP3    H133238   4.116   3.647  12.976 -1.2624  1.3685  0.8167
 3941TIP3    H233239   3.983   3.604  12.918  0.3247 -1.2244 -1.1542
 3942TIP3   OH233240   1.711   5.138  12.249 -0.1347  0.4068  0.3498
 3942TIP3    H133241   1.752   5.164  12.166  0.0921  1.6347  0.8117
 3942TIP3    H233242   1.617   5.143  12.233 -0.1161 -0.7954 -0.2385
 3943TIP3   OH233243   0.926   6.352   5.372  0.0559  0.6419 -0.1179
 3943TIP3    H133244   1.000   6.362   5.313  1.6061 -0.4669  1.5593
 3943TIP3    H233245   0.924   6.258   5.393 -2.4716  0.4383 -0.8947
 3944TIP3   OH233246   2.542   0.193   2.385  0.1805  0.5399 -0.1874
 3944TIP3    H133247   2.604   0.120   2.383 -0.7502 -0.6303  3.7021
 3944TIP3    H233248   2.561   0.238   2.468 -2.7596  1.4261  0.1264
 3945TIP3   OH233249   2.699   6.771   4.443  0.3589  0.0835  0.7725
 3945TIP3    H133250   2.632   6.764   4.375  0.1064 -1.0293  1.1070
 3945TIP3    H233251   2.781   6.753   4.397  0.1097 -1.4428  0.8808
 3946TIP3   OH233252   5.733   6.593  16.390  0.3406 -0.7244 -0.0073
 3946TIP3    H133253   5.777   6.509  16.378  0.6575 -0.4983 -0.4740
 3946TIP3    H233254   5.731   6.632  16.302 -0.3528 -0.5131  0.0894
 3947TIP3   OH233255   5.078   6.080   1.925  0.4166  0.3747  0.6552
 3947TIP3    H133256   5.075   6.144   1.996  1.1551  0.7126  0.3910
 3947TIP3    H233257   5.124   6.004   1.963  1.1828  0.7146  0.4232
 3948TIP3   OH233258   5.231   2.991   3.864 -0.3057 -0.4791 -0.3600
 3948TIP3    H133259   5.158   3.016   3.920  0.0304 -1.4479  0.5462
 3948TIP3    H233260   5.290   3.066   3.865 -1.6579  0.6702 -1.8091
 3949TIP3   OH233261   1.646   4.861   5.237 -0.7111 -0.3980  0.0096
 3949TIP3    H133262   1.553   4.840   5.234 -0.8632 -0.1346  1.8366
 3949TIP3    H233263   1.685   4.809   5.166 -2.3130  0.0188 -1.2235
 3950TIP3   OH233264   6.306   4.407   1.250 -0.5912  0.0745  0.0192
 3950TIP3    H133265   6.281   4.466   1.322 -1.8563 -1.6456  1.0649
 3950TIP3    H233266   6.401   4.403   1.255 -0.1536  3.8337 -1.6430
 3951TIP3   OH233267   5.957   3.212   1.741 -0.5000 -0.7344  0.7524
 3951TIP3    H133268   5.966   3.133   1.687 -1.1977  0.3799 -1.0712
 3951TIP3    H233269   5.862   3.226   1.747 -0.3831 -0.0632  1.1011
 3952TIP3   OH233270   4.445   3.529  10.987  0.7828 -0.1215 -0.1378
 3952TIP3    H133271   4.377   3.558  11.048  0.0827 -0.3392 -0.7937
 3952TIP3    H233272   4.398   3.478  10.921  1.4582  0.4431 -1.0857
 3953TIP3   OH233273   1.264   3.422   2.109 -0.5215 -0.2764 -0.7310
 3953TIP3    H133274   1.191   3.464   2.153  0.7667  1.1737  0.1301
 3953TIP3    H233275   1.322   3.494   2.085 -0.0140 -1.2575 -2.6374
 3954TIP3   OH233276   2.637   5.394  11.791  0.0091 -0.4780 -0.0690
 3954TIP3    H133277   2.621   5.414  11.699 -1.7440  0.6169  0.4164
 3954TIP3    H233278   2.709   5.452  11.817 -0.1857 -0.0374 -0.4961
 3955TIP3   OH233279   0.945   2.440  11.253  0.0236  0.5083  0.1281
 3955TIP3    H133280   0.952   2.490  11.334  1.6611  1.2528 -0.4449
 3955TIP3    H233281   0.891   2.494  11.195  0.4550  0.8725  0.0648
 3956TIP3   OH233282   0.101   3.422   3.459  0.2163  0.2435  0.1559
 3956TIP3    H133283   0.058   3.499   3.496  0.3297  0.5383 -0.3046
 3956TIP3    H233284   0.155   3.457   3.388  0.8632 -0.1747  0.4325
 3957TIP3   OH233285   2.350   3.703  14.570 -0.1238 -0.1234  0.2131
 3957TIP3    H133286   2.296   3.749  14.633 -1.4877  0.7604 -1.5082
 3957TIP3    H233287   2.288   3.647  14.522  0.6359  0.1648 -1.1519
 3958TIP3   OH233288   2.801   0.199   4.533 -0.2272  0.4842 -0.6458
 3958TIP3    H133289   2.739   0.254   4.485 -0.6842  0.8522  0.3189
 3958TIP3    H233290   2.782   0.110   4.505 -0.6998  0.6654 -0.9084
 3959TIP3   OH233291   2.180   2.948  13.078  0.1313  0.3301 -0.9049
 3959TIP3    H133292   2.177   2.977  13.169  2.0224  2.8504 -1.5507
 3959TIP3    H233293   2.273   2.938  13.058 -0.2037  0.5783 -2.7807
 3960TIP3   OH233294   2.897   0.602   4.833  0.0208  0.4742 -0.4280
 3960TIP3    H133295   2.830   0.597   4.901  1.6443 -1.5840  1.1853
 3960TIP3    H233296   2.915   0.511   4.810  1.4246  1.0072 -1.6577
 3961TIP3   OH233297   2.749   4.687  11.194 -0.0896 -0.0539  0.6146
 3961TIP3    H133298   2.760   4.730  11.110  0.0892 -0.4774  0.4230
 3961TIP3    H233299   2.658   4.656  11.193  0.0765 -0.5440  0.3489
 3962TIP3   OH233300   3.366   3.391   6.679 -0.2921 -0.1886 -0.1389
 3962TIP3    H133301   3.320   3.321   6.632  0.9854 -2.2656  1.5359
 3962TIP3    H233302   3.454   3.391   6.641 -0.5194  1.1576 -0.7226
 3963TIP3   OH233303   3.088   0.936   3.365 -0.0310  0.3913  0.7022
 3963TIP3    H133304   3.039   0.922   3.284  0.5621 -0.0944  0.4283
 3963TIP3    H233305   3.025   0.981   3.422 -0.9272 -0.5375  0.4866
 3964TIP3   OH233306   0.102   4.137   0.549 -0.1072  0.1777  0.1523
 3964TIP3    H133307   0.135   4.081   0.479  1.3988  1.2714 -0.0719
 3964TIP3    H233308   0.050   4.079   0.604  0.8459 -1.2920 -0.4277
 3965TIP3   OH233309   2.727   2.421  14.007  0.1913 -0.2790  0.4597
 3965TIP3    H133310   2.672   2.499  13.997 -0.8481 -1.0258  0.2187
 3965TIP3    H233311   2.710   2.391  14.096  3.3931  1.8077  1.9758
 3966TIP3   OH233312   3.734   0.859  12.927  0.1844  0.5059  0.1521
 3966TIP3    H133313   3.649   0.860  12.882  0.6305 -0.6614 -0.7526
 3966TIP3    H233314   3.716   0.816  13.010  0.1011 -0.8398 -0.5337
 3967TIP3   OH233315   2.502   6.266   0.552 -0.5903  0.3192 -0.1328
 3967TIP3    H133316   2.564   6.244   0.482  0.1059 -0.2541  0.6381
 3967TIP3    H233317   2.480   6.358   0.536  2.1234  1.2338  0.7773
 3968TIP3   OH233318   0.418   2.085  14.553 -0.5646  0.5021 -0.2904
 3968TIP3    H133319   0.324   2.103  14.551 -0.5269  0.9846  1.0709
 3968TIP3    H233320   0.446   2.114  14.640  0.4812 -1.4816  0.0764
 3969TIP3   OH233321   1.023   2.074  11.480 -0.1640 -0.2223 -0.5213
 3969TIP3    H133322   1.027   2.019  11.402 -2.1757  0.8199 -1.4705
 3969TIP3    H233323   1.114   2.093  11.502  0.4694 -1.0634 -2.2529
 3970TIP3   OH233324   5.726   6.240   2.559  0.2984 -0.0874 -0.4148
 3970TIP3    H133325   5.755   6.328   2.582 -0.4018 -0.0665  0.4134
 3970TIP3    H233326   5.646   6.226   2.609  1.3845 -1.8918  0.9622
 3971TIP3   OH233327   1.797   4.622   1.450  0.0442  0.0950  0.0266
 3971TIP3    H133328   1.842   4.707   1.448  0.6345 -0.2243 -0.4011
 3971TIP3    H233329   1.710   4.642   1.485  0.0621  0.9360 -0.3837
 3972TIP3   OH233330   2.401   1.210   0.510 -0.1969 -0.3182 -0.1896
 3972TIP3    H133331   2.347   1.289   0.506 -0.0588 -0.0174  2.1350
 3972TIP3    H233332   2.422   1.200   0.603  2.5278 -1.2622 -0.7920
 3973TIP3   OH233333   4.677   4.356   4.673 -0.6764  0.1070  0.1534
 3973TIP3    H133334   4.610   4.329   4.736 -1.1448  1.1742  0.1271
 3973TIP3    H233335   4.671   4.290   4.603 -0.8584 -0.4929  0.7218
 3974TIP3   OH233336   6.281   2.914  12.132 -0.0042  0.1889 -0.5995
 3974TIP3    H133337   6.263   2.937  12.223 -0.3152 -1.8801 -0.1012
 3974TIP3    H233338   6.244   2.987  12.081 -1.6526  0.4118  0.8259
 3975TIP3   OH233339   2.579   5.223  12.634 -0.3566 -0.2279  0.2784
 3975TIP3    H133340   2.637   5.300  12.635  0.6878 -1.0046  1.2526
 3975TIP3    H233341   2.496   5.256  12.670 -2.0443  1.9182 -4.6517
 3976TIP3   OH233342   5.999   1.130   4.337 -0.1328 -0.7304  0.1401
 3976TIP3    H133343   5.946   1.070   4.388 -2.2216  1.0067  0.1544
 3976TIP3    H233344   6.037   1.190   4.401 -1.9174  0.8111 -0.1454
 3977TIP3   OH233345   2.654   2.497   3.371 -0.2921  0.0135  0.4119
 3977TIP3    H133346   2.610   2.576   3.340 -1.4756 -0.8616 -0.2427
 3977TIP3    H233347   2.643   2.434   3.299 -0.6544 -1.1996  1.4974
 3978TIP3   OH233348   6.705   4.987   5.640 -0.0640  0.2301  0.5693
 3978TIP3    H133349   6.692   5.031   5.724 -2.0755  0.0401  0.4114
 3978TIP3    H233350   6.743   4.902   5.663  0.2513  0.5368  1.2063
 3979TIP3   OH233351   4.811   6.813  16.089  0.9342 -0.5611  0.5069
 3979TIP3    H133352   4.864   6.835  16.012  2.5724  1.5544  2.0843
 3979TIP3    H233353   4.723   6.842  16.067  1.5832  0.9596 -0.2427
 3980TIP3   OH233354   4.547   1.343   2.812  0.1097 -0.0646 -0.1621
 3980TIP3    H133355   4.485   1.411   2.788 -0.5990 -0.7529 -0.3219
 3980TIP3    H233356   4.597   1.380   2.885 -0.6732  0.3931  0.1424
 3981TIP3   OH233357   4.475   2.947  12.209 -0.6539 -0.3317  0.1722
 3981TIP3    H133358   4.460   2.925  12.117  0.0417  0.5561 -0.1679
 3981TIP3    H233359   4.562   2.986  12.211 -1.0221  0.4902  1.0587
 3982TIP3   OH233360   5.117   6.551  12.963  0.6589  0.2384  0.3032
 3982TIP3    H133361   5.079   6.476  13.011 -0.9985 -0.4721 -1.9555
 3982TIP3    H233362   5.054   6.622  12.977  0.9453  0.4743  0.3996
 3983TIP3   OH233363   0.632   0.100  15.236 -0.2867  0.8043 -0.0915
 3983TIP3    H133364   0.719   0.136  15.251 -0.0046  1.3528 -2.5507
 3983TIP3    H233365   0.644   0.005  15.243  0.4033  0.9025  0.1233
 3984TIP3   OH233366   3.276   1.784  13.527 -0.3680  0.1064 -0.0065
 3984TIP3    H133367   3.340   1.822  13.586 -1.1858 -0.3741  1.2316
 3984TIP3    H233368   3.195   1.781  13.578 -0.9305 -0.9664 -0.9082
 3985TIP3   OH233369   1.596   5.996  15.436 -0.2820 -0.3931  0.7814
 3985TIP3    H133370   1.546   6.042  15.503 -0.6627 -1.0943  0.9855
 3985TIP3    H233371   1.535   5.986  15.363  0.7497  2.3575 -0.6349
 3986TIP3   OH233372   4.157   6.672  13.170  0.0465  0.2983  0.0036
 3986TIP3    H133373   4.128   6.736  13.105 -2.3310 -1.6307 -1.0028
 3986TIP3    H233374   4.251   6.665  13.158 -0.1303  1.0760 -2.2574
 3987TIP3   OH233375   4.630   2.925   0.200 -0.3439 -0.5102 -0.0574
 3987TIP3    H133376   4.552   2.909   0.255 -1.4004 -0.6953 -1.5556
 3987TIP3    H233377   4.704   2.908   0.258 -1.3929  0.5206  1.6863
 3988TIP3   OH233378   4.802   0.853  15.846  0.1533 -0.1080  0.1365
 3988TIP3    H133379   4.755   0.793  15.903  1.4409 -1.2856  0.0244
 3988TIP3    H233380   4.893   0.847  15.876  0.6279  0.2710 -1.1825
 3989TIP3   OH233381   3.992   0.623   2.744  0.3306 -0.2541 -0.2980
 3989TIP3    H133382   3.998   0.715   2.771  0.1288 -0.2884 -0.1283
 3989TIP3    H233383   3.965   0.626   2.653 -0.5684 -0.1556 -0.0348
 3990TIP3   OH233384   6.525   0.818  13.638 -0.5664 -0.1447 -0.3168
 3990TIP3    H133385   6.543   0.907  13.667  0.6777 -0.2278 -0.7432
 3990TIP3    H233386   6.465   0.828  13.564 -0.1428  0.3769 -0.5979
 3991TIP3   OH233387   5.547   6.329  11.682  0.6004  0.4008  0.0959
 3991TIP3    H133388   5.511   6.401  11.735 -0.4428 -0.3368  0.4314
 3991TIP3    H233389   5.636   6.318  11.714  0.7376  1.4721  0.1167
 3992TIP3   OH233390   4.516   1.153   2.396 -0.1814  0.1300  0.2712
 3992TIP3    H133391   4.493   1.206   2.319 -3.1602  0.7851  1.4814
 3992TIP3    H233392   4.432   1.123   2.430  1.0954 -0.7672  2.8614
 3993TIP3   OH233393   0.307   2.537  12.463  0.1678 -0.5761 -0.2138
 3993TIP3    H133394   0.302   2.504  12.553  1.5944 -1.1971 -0.3289
 3993TIP3    H233395   0.217   2.557  12.440 -0.5663 -2.7028  0.5343
 3994TIP3   OH233396   5.325   1.288   4.561 -0.4454 -0.0559  0.3177
 3994TIP3    H133397   5.343   1.359   4.499  0.4839 -0.6741 -0.1522
 3994TIP3    H233398   5.328   1.330   4.647  1.0401  0.3274  0.1101
 3995TIP3   OH233399   2.785   1.557   2.300  0.2426  0.1926 -0.2470
 3995TIP3    H133400   2.826   1.478   2.337  0.0536 -0.0257 -0.5002
 3995TIP3    H233401   2.722   1.523   2.236  0.4147  0.5646 -0.6120
 3996TIP3   OH233402   2.365   5.071   1.185  0.2568 -0.1602  0.2179
 3996TIP3    H133403   2.292   5.010   1.201  0.8643 -2.5883 -4.5589
 3996TIP3    H233404   2.443   5.023   1.212  0.5259 -0.1453 -0.5347
 3997TIP3   OH233405   6.620   6.325   6.522 -0.0698  0.4040 -0.2435
 3997TIP3    H133406   6.658   6.249   6.565 -0.3951  0.1097 -0.4692
 3997TIP3    H233407   6.695   6.380   6.499  0.2170 -0.1141 -0.5811
 3998TIP3   OH233408   4.804   4.078   1.551 -0.7010  0.0653 -0.2596
 3998TIP3    H133409   4.718   4.051   1.519 -0.5043  0.8884 -1.5548
 3998TIP3    H233410   4.866   4.027   1.499 -0.3943  0.3822 -0.2130
 3999TIP3   OH233411   2.828   5.179   3.837 -0.2644  0.3806 -0.0612
 3999TIP3    H133412   2.855   5.104   3.784  0.8030  0.7170 -0.0048
 3999TIP3    H233413   2.750   5.213   3.793 -0.3253 -0.3157 -0.4962
 4000TIP3   OH233414   4.504   2.585   3.890  0.1594 -0.2194 -0.5420
 4000TIP3    H133415   4.413   2.613   3.884 -0.4426 -1.6423  1.2093
 4000TIP3    H233416   4.521   2.543   3.805 -1.3755 -1.4340 -0.2996
 4001TIP3   OH233417   2.332   1.475  13.615  0.1946 -0.2404 -0.2834
 4001TIP3    H133418   2.297   1.478  13.704  0.9168 -0.5658  0.0203
 4001TIP3    H233419   2.313   1.386  13.585 -0.4871  0.0210 -0.6435
 4002TIP3   OH233420   3.540   3.457  16.560 -0.4318  0.5255  0.1592
 4002TIP3    H133421   3.574   3.514  16.630  1.9473  0.9172 -1.2002
 4002TIP3    H233422   3.548   3.368  16.596 -0.0602  0.7832  0.7310
 4003TIP3   OH233423   5.746   0.356   1.193 -0.0724 -0.2501 -0.3286
 4003TIP3    H133424   5.787   0.435   1.229  0.0401 -0.6501  0.4369
 4003TIP3    H233425   5.818   0.309   1.151 -0.2815  0.4245 -1.4747
 4004TIP3   OH233426   6.575   5.714  14.440  0.2051 -0.3673 -0.2003
 4004TIP3    H133427   6.664   5.694  14.411  1.2102  1.6009  1.3109
 4004TIP3    H233428   6.534   5.758  14.365  1.8468  2.2082  0.3087
 4005TIP3   OH233429   2.039   3.142  14.138 -0.0926 -0.0052 -0.1878
 4005TIP3    H133430   2.133   3.145  14.122 -0.1764  1.7317 -0.6259
 4005TIP3    H233431   2.026   3.205  14.210 -0.9602  0.1571 -0.4804
 4006TIP3   OH233432   0.584   6.587   4.901  0.1820  0.0016  0.0535
 4006TIP3    H133433   0.513   6.651   4.915 -0.4697 -0.6384 -0.2640
 4006TIP3    H233434   0.646   6.605   4.971 -0.8731 -0.2151  1.0663
 4007TIP3   OH233435   3.550   4.458   1.635  0.1953  0.3490  0.5343
 4007TIP3    H133436   3.469   4.507   1.622  0.0389 -0.3793 -1.5955
 4007TIP3    H233437   3.537   4.376   1.587  2.3970  0.4501 -0.3286
 4008TIP3   OH233438   1.445   0.100  16.982 -0.0752  0.4710 -0.4536
 4008TIP3    H133439   1.477   0.054  16.904 -2.1601 -1.2307 -0.4090
 4008TIP3    H233440   1.411   0.183  16.949 -0.9253 -0.2277 -1.3942
 4009TIP3   OH233441   6.520   6.627   5.763  0.1931 -0.0275  0.1359
 4009TIP3    H133442   6.570   6.662   5.837  0.9810  0.0600 -0.4257
 4009TIP3    H233443   6.440   6.680   5.760  0.7132  0.7727  0.1859
 4010TIP3   OH233444   6.215   3.890   1.396  0.0740 -0.3387 -0.0454
 4010TIP3    H133445   6.308   3.871   1.386 -0.2157 -1.2341 -1.2185
 4010TIP3    H233446   6.212   3.983   1.418  1.2238 -0.1983 -0.4004
 4011TIP3   OH233447   6.708   1.670   2.868 -0.2891 -0.2771 -0.5883
 4011TIP3    H133448   6.650   1.613   2.920 -0.4850  0.1409 -0.3462
 4011TIP3    H233449   6.692   1.758   2.902 -0.8915  0.1001 -1.7710
 4012TIP3   OH233450   6.626   1.981  14.539 -0.0281  0.1885 -0.3013
 4012TIP3    H133451   6.609   2.046  14.471 -0.6887 -0.4819 -0.7947
 4012TIP3    H233452   6.647   1.901  14.491  0.9805  0.0815  0.3027
 4013TIP3   OH233453   0.366   2.835  12.111  0.1256  0.0273 -0.5714
 4013TIP3    H133454   0.368   2.848  12.206 -1.4874 -2.4993 -0.0604
 4013TIP3    H233455   0.435   2.771  12.094 -0.3176 -0.3839 -0.8785
 4014TIP3   OH233456   4.397   3.866   1.205 -0.7959  0.5480 -0.3496
 4014TIP3    H133457   4.468   3.823   1.156  0.4719  2.8088 -0.6404
 4014TIP3    H233458   4.422   3.856   1.297 -0.8454  0.1142 -0.3834
 4015TIP3   OH233459   6.148   1.783   2.788  0.4693  0.1790  0.1676
 4015TIP3    H133460   6.199   1.818   2.714 -0.2113  0.7919 -0.0274
 4015TIP3    H233461   6.058   1.808   2.768  0.0147 -1.3321  0.2499
 4016TIP3   OH233462   5.616   3.320   3.802 -0.2291  0.0638  0.1455
 4016TIP3    H133463   5.674   3.313   3.878  0.6701  1.1841 -0.4072
 4016TIP3    H233464   5.530   3.339   3.840 -0.3084 -1.6913  0.9828
 4017TIP3   OH233465   5.204   3.799  13.086 -0.4474 -0.6153 -0.3757
 4017TIP3    H133466   5.140   3.729  13.073  0.3069 -1.5971  0.9586
 4017TIP3    H233467   5.286   3.753  13.102 -0.1864  0.5210  1.8752
 4018TIP3   OH233468   5.028   2.398  13.714  0.3797  0.3103 -0.0772
 4018TIP3    H133469   5.048   2.378  13.623 -0.5260 -1.2987  0.0273
 4018TIP3    H233470   4.937   2.427  13.713  0.7171  1.4419  0.1951
 4019TIP3   OH233471   1.047   4.039   2.464 -0.0978 -0.2992  0.4305
 4019TIP3    H133472   1.015   4.100   2.531 -0.3973  0.1267 -0.0916
 4019TIP3    H233473   1.131   4.008   2.499 -0.2767 -0.1327  1.0303
 4020TIP3   OH233474   5.560   5.280   1.990 -0.2237  0.2644 -0.0805
 4020TIP3    H133475   5.597   5.286   2.078 -0.3296  1.1787 -0.0882
 4020TIP3    H233476   5.634   5.253   1.935  0.0969  0.6966  0.1305
 4021TIP3   OH233477   4.260   1.964  13.272  0.2782 -0.2952  0.6979
 4021TIP3    H133478   4.261   1.955  13.177  1.0899 -0.3488  0.7013
 4021TIP3    H233479   4.352   1.979  13.295  0.1996 -1.0650  1.5491
 4022TIP3   OH233480   1.711   0.432   5.795 -0.3020 -0.2565  0.2607
 4022TIP3    H133481   1.805   0.430   5.782 -0.4377  1.4016 -1.2289
 4022TIP3    H233482   1.673   0.427   5.708 -1.6160 -0.8260  0.8236
 4023TIP3   OH233483   3.328   1.195  14.223 -0.5562  0.4456 -0.0822
 4023TIP3    H133484   3.323   1.290  14.213  0.9112  0.5308 -0.2240
 4023TIP3    H233485   3.294   1.178  14.311 -2.4492  0.8938 -0.6754
 4024TIP3   OH233486   5.468   5.274  14.375  0.3903  0.0257  0.3520
 4024TIP3    H133487   5.403   5.313  14.316  2.7105  0.8190 -1.8367
 4024TIP3    H233488   5.525   5.346  14.400  1.0443 -0.8328  1.4320
 4025TIP3   OH233489   0.970   5.083  15.333  0.0462 -0.0762 -0.4494
 4025TIP3    H133490   0.985   4.993  15.363  1.7579  0.9585  2.1486
 4025TIP3    H233491   0.998   5.138  15.406 -3.1172  2.6009 -1.0107
 4026TIP3   OH233492   3.330   5.361   5.688  0.1067  0.0840  0.0415
 4026TIP3    H133493   3.244   5.323   5.706  0.6287 -1.2661 -0.1934
 4026TIP3    H233494   3.345   5.420   5.762 -0.7948 -0.0781  0.3722
 4027TIP3   OH233495   0.806   2.193  12.438  0.4966  0.1979 -0.3948
 4027TIP3    H133496   0.826   2.271  12.490  0.8877 -0.4554  0.4543
 4027TIP3    H233497   0.743   2.145  12.491 -0.1303  0.1754 -1.1477
 4028TIP3   OH233498   0.876   3.900  11.342 -0.4030  0.0055  0.2187
 4028TIP3    H133499   0.819   3.833  11.304 -1.9252  0.8144  0.9526
 4028TIP3    H233500   0.889   3.964  11.272 -1.8904  0.6919  0.5217
 4029TIP3   OH233501   3.438   5.268   2.173 -0.1706  0.1461  0.1298
 4029TIP3    H133502   3.422   5.279   2.079 -2.1920  0.5938  0.4736
 4029TIP3    H233503   3.495   5.191   2.179 -0.5850 -0.3179 -1.4299
 4030TIP3   OH233504   2.214   0.027   3.159 -0.8772 -0.5786  0.3697
 4030TIP3    H133505   2.123   0.041   3.184 -1.1860 -0.6656 -0.6304
 4030TIP3    H233506   2.210  -0.045   3.096 -0.4608  1.0001 -1.5821
 4031TIP3   OH233507   5.596   3.347   4.925  0.4190  0.2017 -0.5016
 4031TIP3    H133508   5.663   3.406   4.890  0.2840  1.0717  0.6670
 4031TIP3    H233509   5.551   3.398   4.992  0.5427 -1.3346  0.8141
 4032TIP3   OH233510   0.159   1.343  15.385  0.2472  0.4957 -0.2948
 4032TIP3    H133511   0.218   1.320  15.457 -0.0866  1.5566  0.3366
 4032TIP3    H233512   0.073   1.352  15.427  0.1711  1.7837 -0.6967
 4033TIP3   OH233513   2.233   5.083  15.841 -0.6092  0.2464  0.0461
 4033TIP3    H133514   2.176   5.158  15.824 -1.1370  0.2132  1.5436
 4033TIP3    H233515   2.221   5.064  15.934  1.4200 -0.1403  0.2703
 4034TIP3   OH233516   2.313   2.231  11.577 -0.4020 -0.6305  0.1335
 4034TIP3    H133517   2.312   2.160  11.513  0.9220 -1.5562  1.0717
 4034TIP3    H233518   2.405   2.237  11.604 -0.8762 -0.1247  1.7619
 4035TIP3   OH233519   3.309   2.422  16.694  0.2998  0.2090  0.4728
 4035TIP3    H133520   3.309   2.450  16.603 -6.0531  1.2505  0.3719
 4035TIP3    H233521   3.279   2.331  16.691  1.8185 -0.3821  1.5890
 4036TIP3   OH233522   1.960   0.015  14.856 -0.3233  0.0862  0.0670
 4036TIP3    H133523   1.870  -0.018  14.861 -1.1108  1.4580 -3.0315
 4036TIP3    H233524   1.950   0.109  14.844  1.5621  0.2625 -0.3577
 4037TIP3   OH233525   3.550   6.201  13.633 -0.2171 -0.1708 -0.4588
 4037TIP3    H133526   3.489   6.266  13.666 -1.0780 -1.0800 -0.2105
 4037TIP3    H233527   3.502   6.156  13.563 -0.2223 -1.5546  0.3939
 4038TIP3   OH233528   5.168   5.458  13.348 -0.0948  0.2186 -0.5224
 4038TIP3    H133529   5.191   5.406  13.425 -0.2132  0.8723 -0.0321
 4038TIP3    H233530   5.172   5.397  13.275  0.1166 -0.3910 -0.0071
 4039TIP3   OH233531   4.793   4.090  11.815 -0.1397 -0.1642 -0.2951
 4039TIP3    H133532   4.724   4.024  11.810  0.9752 -1.3954 -0.0252
 4039TIP3    H233533   4.808   4.117  11.724 -1.7937  1.0362 -0.2485
 4040TIP3   OH233534   3.733   4.273   5.438 -0.5964 -0.1056  0.6195
 4040TIP3    H133535   3.759   4.182   5.426  2.4590  0.5233  1.5547
 4040TIP3    H233536   3.680   4.294   5.361  2.6068 -1.3715 -2.1837
 4041TIP3   OH233537   0.065   0.061  15.755 -0.2868  0.1226  0.7120
 4041TIP3    H133538  -0.009   0.020  15.799  0.3171  0.3912  2.0147
 4041TIP3    H233539   0.047   0.155  15.761  1.0776  0.3181  2.8333
 4042TIP3   OH233540   1.260   1.456   4.224  0.5154  0.5986  0.0646
 4042TIP3    H133541   1.169   1.432   4.236 -0.1375  1.2517 -2.8094
 4042TIP3    H233542   1.300   1.379   4.184  1.1022  0.5354  0.7494
 4043TIP3   OH233543   6.346   3.844   3.935  0.4748  0.5402  0.2489
 4043TIP3    H133544   6.260   3.822   3.970  0.6794 -0.0207  0.4078
 4043TIP3    H233545   6.359   3.935   3.960  0.6229  0.1504  1.6578
 4044TIP3   OH233546   3.741   2.723   0.715  0.3566  0.4678 -0.0330
 4044TIP3    H133547   3.754   2.633   0.687 -1.7807  0.4300 -1.0590
 4044TIP3    H233548   3.783   2.775   0.646 -0.7789  0.2887 -0.8755
 4045TIP3   OH233549   3.626   5.392   1.076  0.3545 -0.0784 -0.1367
 4045TIP3    H133550   3.653   5.420   1.163  0.2057  1.2460 -0.4944
 4045TIP3    H233551   3.709   5.377   1.030  0.4357 -1.3976  0.4000
 4046TIP3   OH233552   4.270   4.533   6.090 -0.2059 -0.7119 -0.1857
 4046TIP3    H133553   4.348   4.588   6.098  0.2689 -1.2348 -1.0506
 4046TIP3    H233554   4.290   4.455   6.141  0.2236 -1.2380 -1.1213
 4047TIP3   OH233555   6.592   6.092  12.433  0.1045  0.3559 -0.0498
 4047TIP3    H133556   6.684   6.112  12.415 -0.0286  1.3814  0.3504
 4047TIP3    H233557   6.592   5.999  12.455  0.7382 -0.1953 -2.0967
 4048TIP3   OH233558   2.066   3.282  14.362 -0.3589  0.2239 -0.1697
 4048TIP3    H133559   2.063   3.365  14.315  0.9049  0.7230  0.5682
 4048TIP3    H233560   2.045   3.304  14.453 -0.6603 -0.3767 -0.0851
 4049TIP3   OH233561   1.457   0.588  14.076  0.2183  0.2936 -0.0479
 4049TIP3    H133562   1.375   0.559  14.036  0.7841  0.1723 -1.1709
 4049TIP3    H233563   1.522   0.579  14.006  0.9256  1.6902  0.3889
 4050TIP3   OH233564   4.587   5.681   0.817  0.0270  0.2243 -0.1198
 4050TIP3    H133565   4.560   5.727   0.897  1.7113 -0.9420  1.1825
 4050TIP3    H233566   4.611   5.752   0.756 -1.4813  1.1336  0.3028
 4051TIP3   OH233567   1.822   1.043  12.579  0.0259  0.4293  0.1647
 4051TIP3    H133568   1.856   1.026  12.491 -1.7456  1.4668 -0.7839
 4051TIP3    H233569   1.747   0.984  12.587  0.3986  0.0684  1.1489
 4052TIP3   OH233570   0.412   5.383   4.249  0.1044 -0.3572  0.3398
 4052TIP3    H133571   0.373   5.457   4.203 -0.8485 -0.5328  0.8476
 4052TIP3    H233572   0.502   5.379   4.217  0.4284  1.5321  0.9136
 4053TIP3   OH233573   2.790   0.277  16.655 -0.0340 -0.0531 -0.6329
 4053TIP3    H133574   2.832   0.194  16.679  1.8688  1.3514  1.2501
 4053TIP3    H233575   2.799   0.282  16.560  0.8639 -1.4683 -0.6437
 4054TIP3   OH233576   5.721   5.131  14.087 -0.4091 -0.2490 -0.0297
 4054TIP3    H133577   5.697   5.072  14.158 -1.1958 -0.8198 -0.7538
 4054TIP3    H233578   5.778   5.079  14.030 -1.6293 -0.5652 -1.0211
 4055TIP3   OH233579   5.778   1.115   1.012 -0.0339  0.4776 -0.2090
 4055TIP3    H133580   5.870   1.093   1.004  0.2377  1.9114 -1.3013
 4055TIP3    H233581   5.744   1.051   1.075  1.5585 -0.4292 -0.2176
 4056TIP3   OH233582   6.087   6.703  15.042 -0.8163  0.0458 -0.0329
 4056TIP3    H133583   6.081   6.751  15.125  0.3432 -0.2706  0.2495
 4056TIP3    H233584   6.176   6.720  15.012 -1.1143 -0.1486 -1.0339
 4057TIP3   OH233585   5.568   5.697   2.460  0.2246 -0.0971  0.1511
 4057TIP3    H133586   5.662   5.711   2.459  0.3321 -0.7664  0.2963
 4057TIP3    H233587   5.553   5.637   2.534 -0.2845 -0.1865 -0.0164
 4058TIP3   OH233588   4.421   4.494   2.145 -0.2529  0.1733 -0.6850
 4058TIP3    H133589   4.510   4.468   2.169 -0.0727  1.0867 -0.3003
 4058TIP3    H233590   4.366   4.421   2.172  0.4314 -0.6409 -1.4200
 4059TIP3   OH233591   2.701   3.592   4.204  0.7350 -0.1751  0.4583
 4059TIP3    H133592   2.722   3.501   4.182  1.0946 -0.3944  1.6425
 4059TIP3    H233593   2.765   3.616   4.271  0.6440  0.9613  0.1653
 4060TIP3   OH233594   3.361   1.866   3.492  0.1595  0.5918  0.0861
 4060TIP3    H133595   3.377   1.853   3.585  0.1959 -0.5088 -0.0508
 4060TIP3    H233596   3.447   1.863   3.452  0.2565  2.2344  0.1213
 4061TIP3   OH233597   3.278   6.407  11.563  1.1235  0.2945  0.1727
 4061TIP3    H133598   3.218   6.394  11.636 -0.7933 -0.7514 -1.4668
 4061TIP3    H233599   3.294   6.501  11.560 -1.4871  0.7889 -0.0579
 4062TIP3   OH233600   1.654   5.801  15.721  0.1707 -0.1990 -0.4847
 4062TIP3    H133601   1.623   5.799  15.631  0.8023  1.0445 -0.7469
 4062TIP3    H233602   1.596   5.864  15.765  0.4595 -0.0822 -0.2650
 4063TIP3   OH233603   3.657   5.059  13.608 -0.0595  0.0815  0.1627
 4063TIP3    H133604   3.687   4.999  13.676  0.5030 -1.1583 -1.1448
 4063TIP3    H233605   3.715   5.043  13.534 -0.4962  1.5870 -0.5416
 4064TIP3   OH233606   3.661   3.812   4.559  0.7086 -0.2623 -0.0001
 4064TIP3    H133607   3.626   3.900   4.572  0.0067 -0.5552  0.1412
 4064TIP3    H233608   3.659   3.772   4.646 -2.5872 -1.7027 -0.5757
 4065TIP3   OH233609   6.502   1.079   2.815 -0.3332  0.9711 -0.4212
 4065TIP3    H133610   6.597   1.088   2.809 -0.1501  1.7756  2.1594
 4065TIP3    H233611   6.471   1.167   2.836 -1.3530  0.3395  0.8974
 4066TIP3   OH233612   4.423   6.031  16.641  0.6112 -0.3774 -0.8671
 4066TIP3    H133613   4.432   6.122  16.612  2.0235 -1.0370 -2.7154
 4066TIP3    H233614   4.333   6.008  16.619 -0.0397  0.7778  0.3993
 4067TIP3   OH233615   5.903   5.291  17.021 -0.2434 -0.2330  0.1467
 4067TIP3    H133616   5.951   5.284  16.938 -0.6437  1.1088 -0.2169
 4067TIP3    H233617   5.921   5.379  17.052 -0.2135 -0.6740  1.4401
 4068TIP3   OH233618   5.735   2.500   2.882 -0.7118 -0.5850  0.1218
 4068TIP3    H133619   5.818   2.544   2.865 -1.1953  1.0893  1.8033
 4068TIP3    H233620   5.741   2.472   2.973 -0.9610 -2.9473 -0.5138
 4069TIP3   OH233621   5.118   2.954   2.537 -0.1009 -0.1798 -0.4621
 4069TIP3    H133622   5.064   3.021   2.495  1.8439  1.1478 -0.9535
 4069TIP3    H233623   5.118   2.881   2.474 -0.9138 -0.0349 -0.6494
 4070TIP3   OH233624   5.653   1.266   2.575 -0.2226  0.3600  0.1912
 4070TIP3    H133625   5.703   1.237   2.499  0.9679  0.5565  0.8714
 4070TIP3    H233626   5.617   1.185   2.612 -1.8652  0.3785 -1.2529
 4071TIP3   OH233627   0.374   1.152  16.282 -0.1155  0.3601 -0.4471
 4071TIP3    H133628   0.398   1.094  16.210  0.2652  0.0944 -0.1062
 4071TIP3    H233629   0.457   1.190  16.311 -0.3676  1.1493 -0.7250
 4072TIP3   OH233630   3.343   1.190   2.031 -0.4012  0.0874 -0.3507
 4072TIP3    H133631   3.358   1.240   1.951 -2.0208 -0.1275 -0.8274
 4072TIP3    H233632   3.353   1.099   2.005  0.7866  0.0655  0.1140
 4073TIP3   OH233633   5.645   4.851   5.536  0.1679 -0.5160  0.3820
 4073TIP3    H133634   5.645   4.863   5.441  0.6477 -0.6331  0.3631
 4073TIP3    H233635   5.738   4.854   5.560  0.0507 -0.5201  0.8434
 4074TIP3   OH233636   1.749   1.623  16.022  0.2906 -0.4071  0.1823
 4074TIP3    H133637   1.685   1.678  15.977  0.5792  1.1099  1.4892
 4074TIP3    H233638   1.697   1.556  16.066 -0.3792  0.4994  0.8082
 4075TIP3   OH233639   5.006   4.601  15.411 -0.0590  0.1397 -0.1255
 4075TIP3    H133640   4.961   4.676  15.450 -1.9610 -1.6606  1.3659
 4075TIP3    H233641   4.992   4.612  15.317 -2.8664  0.2080  0.2014
 4076TIP3   OH233642   3.801   4.516   3.513 -0.3846 -0.5438 -0.5393
 4076TIP3    H133643   3.744   4.593   3.508  1.7843  1.2178  0.5732
 4076TIP3    H233644   3.871   4.534   3.451 -0.3166 -2.1014 -0.9549
 4077TIP3   OH233645   6.222   6.210  15.728  0.2701 -0.3763 -0.4895
 4077TIP3    H133646   6.145   6.158  15.749  0.8599 -0.9098  0.4224
 4077TIP3    H233647   6.290   6.146  15.708  1.1911 -0.0159  1.2804
 4078TIP3   OH233648   2.855   4.274  14.409  0.1723  0.2124  0.5922
 4078TIP3    H133649   2.848   4.366  14.382 -0.7556  0.3959  1.4167
 4078TIP3    H233650   2.836   4.224  14.330  0.7468  0.7189  0.1188
 4079TIP3   OH233651   1.405   5.573  11.990 -0.1645 -0.4485  0.5334
 4079TIP3    H133652   1.349   5.647  11.968 -0.1293 -0.8843 -1.2305
 4079TIP3    H233653   1.345   5.498  11.994 -0.0469 -0.5122  1.1872
 4080TIP3   OH233654   3.484   3.097   1.028  0.3610  0.0306  0.0579
 4080TIP3    H133655   3.487   3.191   1.009 -0.6073  0.1693  0.4940
 4080TIP3    H233656   3.408   3.065   0.978 -0.5599 -0.1093  1.4937
 4081TIP3   OH233657   6.309   4.575   1.690 -0.2193  0.2320 -0.1373
 4081TIP3    H133658   6.252   4.552   1.617  1.0931 -0.1729 -1.0738
 4081TIP3    H233659   6.335   4.666   1.673 -0.3726  0.3316  0.1443
 4082TIP3   OH233660   3.975   1.515   4.969 -0.9416 -0.1367  0.0858
 4082TIP3    H133661   3.972   1.419   4.962 -1.6261 -0.1424  0.3419
 4082TIP3    H233662   3.999   1.531   5.060  4.8034 -0.0524 -1.1109
 4083TIP3   OH233663   1.418   4.800   4.966 -0.2748 -0.3767 -0.2316
 4083TIP3    H133664   1.492   4.740   4.961 -2.2555 -2.9701 -0.4456
 4083TIP3    H233665   1.435   4.865   4.897  1.6499 -1.0066 -0.3977
 4084TIP3   OH233666   3.952   0.312   0.503 -0.1385 -0.2815  0.1856
 4084TIP3    H133667   3.997   0.378   0.555 -1.9552  3.3676 -2.4449
 4084TIP3    H233668   4.019   0.245   0.488  2.5049  1.8592  1.4195
 4085TIP3   OH233669   5.081   1.692  11.420  0.0825  0.2685 -0.0057
 4085TIP3    H133670   5.112   1.761  11.361 -0.9131  0.3695 -0.4381
 4085TIP3    H233671   5.135   1.700  11.498  0.9235  0.6242 -0.6059
 4086TIP3   OH233672   3.952   3.253   5.555 -0.5613 -0.0865 -0.0193
 4086TIP3    H133673   4.002   3.266   5.636 -0.5155 -1.4171  0.1814
 4086TIP3    H233674   4.009   3.287   5.486  0.3282 -0.9002  0.2881
 4087TIP3   OH233675   1.182   1.777   0.250 -0.2641  0.2502 -0.2830
 4087TIP3    H133676   1.193   1.820   0.335 -0.7574  0.2263 -0.2039
 4087TIP3    H233677   1.254   1.809   0.197  1.0789 -1.0163  0.6680
 4088TIP3   OH233678   2.860   4.487   5.234  0.0403  0.2512 -0.1876
 4088TIP3    H133679   2.857   4.507   5.327 -0.0422 -1.1492  0.1321
 4088TIP3    H233680   2.946   4.448   5.221 -0.8557 -1.8264 -0.1796
 4089TIP3   OH233681   6.660   4.420  16.561 -0.0535  0.0388  0.4571
 4089TIP3    H133682   6.582   4.458  16.599  0.1565  0.0946  0.8362
 4089TIP3    H233683   6.695   4.362  16.629 -0.9274 -1.6569 -0.4518
 4090TIP3   OH233684   2.062   3.796  13.555 -0.8134 -0.0117 -0.1205
 4090TIP3    H133685   2.056   3.797  13.460  1.2506  0.4964 -0.2809
 4090TIP3    H233686   2.091   3.884  13.578  0.0458 -0.5364  0.8676
 4091TIP3   OH233687   5.212   3.612  13.973  0.2516 -0.0252 -0.5919
 4091TIP3    H133688   5.189   3.589  14.063  1.7477 -0.7952 -0.3673
 4091TIP3    H233689   5.135   3.590  13.922 -0.5036  0.1099  0.4510
 4092TIP3   OH233690   3.385   1.408  14.756 -0.2010  0.0540 -0.0721
 4092TIP3    H133691   3.422   1.460  14.685  0.9698 -1.8623 -0.9339
 4092TIP3    H233692   3.460   1.384  14.810 -0.7838 -0.3606  0.5746
 4093TIP3   OH233693   4.411   2.145  14.406  0.1952  0.6963  1.1470
 4093TIP3    H133694   4.437   2.097  14.484 -1.6559  0.6175  1.7623
 4093TIP3    H233695   4.369   2.224  14.439 -0.4372  0.7604  0.2450
 4094TIP3   OH233696   3.018   2.206  14.174 -0.1544 -0.0939  0.2919
 4094TIP3    H133697   3.003   2.122  14.131 -0.9065 -0.4871  1.2858
 4094TIP3    H233698   3.090   2.189  14.235 -0.7466 -0.2004  0.9693
 4095TIP3   OH233699   6.461   5.494   2.571  0.1260  0.5567  0.5352
 4095TIP3    H133700   6.430   5.407   2.545  1.9417 -0.3312  1.1714
 4095TIP3    H233701   6.405   5.519   2.644 -2.5903  1.4373 -1.6921
 4096TIP3   OH233702   0.985   0.221   3.329  1.0690  0.6261  0.4949
 4096TIP3    H133703   1.050   0.196   3.264  2.3370  1.5278  1.3596
 4096TIP3    H233704   0.959   0.139   3.370 -0.5771 -0.1154 -1.8057
 4097TIP3   OH233705   5.373   4.507  16.666  0.0127 -0.6208  0.3825
 4097TIP3    H133706   5.364   4.443  16.737  0.7891 -0.2800  0.7979
 4097TIP3    H233707   5.438   4.570  16.698 -0.4454  0.1546 -0.1872
 4098TIP3   OH233708   2.706   4.791  14.332 -0.1212 -0.3621  0.3473
 4098TIP3    H133709   2.707   4.884  14.352 -0.9512 -0.1495 -0.4838
 4098TIP3    H233710   2.664   4.750  14.407  0.4631 -0.0994  0.8213
 4099TIP3   OH233711   3.336   1.768   5.391  0.2226 -0.2720  0.0358
 4099TIP3    H133712   3.260   1.795   5.442  0.6355  0.4044  0.3053
 4099TIP3    H233713   3.361   1.683   5.429 -0.0890 -0.2574  0.2792
 4100TIP3   OH233714   3.467   0.449   3.771 -0.0440  0.7350 -0.5297
 4100TIP3    H133715   3.537   0.397   3.809  0.5901 -0.1479 -2.7270
 4100TIP3    H233716   3.390   0.431   3.825  0.7854 -0.4364  0.2943
 4101TIP3   OH233717   3.142   1.995   6.331  0.1770 -0.3995  0.1870
 4101TIP3    H133718   3.072   1.942   6.291  2.7089 -3.2835 -0.8714
 4101TIP3    H233719   3.162   1.950   6.413  0.3658  0.8030  0.8194
 4102TIP3   OH233720   6.217   1.860  16.725 -0.1831 -0.0852 -0.4361
 4102TIP3    H133721   6.274   1.895  16.656  2.4577 -1.6973  0.7719
 4102TIP3    H233722   6.273   1.854  16.802 -1.6544 -2.8488  0.5684
 4103TIP3   OH233723   5.679   3.850   4.182 -0.8358  0.1804  0.2892
 4103TIP3    H133724   5.756   3.794   4.166 -1.5437 -0.3993 -1.3085
 4103TIP3    H233725   5.628   3.843   4.102 -1.8118  1.7863  0.7290
 4104TIP3   OH233726   2.913   2.438  11.075 -0.2847 -0.0221  0.2088
 4104TIP3    H133727   2.916   2.517  11.021  0.1099  0.1281  0.4420
 4104TIP3    H233728   2.820   2.421  11.089 -0.3674  0.6364  0.4871
 4105TIP3   OH233729   1.717   5.770  13.473  0.2946  0.9853  0.1070
 4105TIP3    H133730   1.655   5.840  13.453 -1.1901 -0.1630  0.5880
 4105TIP3    H233731   1.681   5.726  13.550  2.3382  1.0126  1.1569
 4106TIP3   OH233732   3.540   1.958   6.396 -0.7803  0.0240  0.1827
 4106TIP3    H133733   3.522   2.052   6.393 -3.3207 -0.4185 -1.1395
 4106TIP3    H233734   3.474   1.923   6.456  0.7771 -0.8433  1.4654
 4107TIP3   OH233735   3.984   3.721  12.346  0.0959 -0.1179 -0.7922
 4107TIP3    H133736   3.981   3.805  12.300 -0.8707 -0.7336 -1.9076
 4107TIP3    H233737   4.043   3.737  12.419  1.0520  1.1398 -1.7755
 4108TIP3   OH233738   5.199   6.164   2.365 -0.2333  0.1124  0.2411
 4108TIP3    H133739   5.260   6.209   2.307 -0.8848  0.9201  0.1575
 4108TIP3    H233740   5.242   6.165   2.450 -0.1060  0.6616  0.1787
 4109TIP3   OH233741   1.900   4.001  14.493 -0.1331  0.1627  0.1168
 4109TIP3    H133742   1.874   3.976  14.405  0.0455  0.9658 -0.1757
 4109TIP3    H233743   1.932   4.091  14.484  0.2667  0.1129  0.9283
 4110TIP3   OH233744   6.517   6.360  15.722 -0.3544  0.2506  0.0647
 4110TIP3    H133745   6.470   6.327  15.799  1.5562 -0.6220  0.9382
 4110TIP3    H233746   6.530   6.283  15.667 -1.1551  0.7536 -0.8669
 4111TIP3   OH233747   1.745   5.797  12.338 -0.1015  0.3554 -0.0949
 4111TIP3    H133748   1.772   5.777  12.428 -0.1030  1.5706  0.1989
 4111TIP3    H233749   1.714   5.714  12.303  1.2104 -0.4464  0.5582
 4112TIP3   OH233750   1.657   0.724  15.124  0.3875 -0.9057 -0.4771
 4112TIP3    H133751   1.662   0.803  15.178  0.3731 -0.7961 -0.6367
 4112TIP3    H233752   1.730   0.670  15.154 -0.5325 -1.5150  0.7272
 4113TIP3   OH233753   2.810   2.562  12.592  0.2848 -0.4054 -0.1861
 4113TIP3    H133754   2.808   2.467  12.578  0.0054 -0.1526 -2.0150
 4113TIP3    H233755   2.717   2.587  12.601  0.4214 -0.5548  2.5420
 4114TIP3   OH233756   6.291   1.003  12.423 -0.4850  0.3440 -0.2480
 4114TIP3    H133757   6.284   0.996  12.328 -0.2638  0.1176 -0.2501
 4114TIP3    H233758   6.308   0.914  12.453 -1.2977  0.2913  0.0770
 4115TIP3   OH233759   3.169   5.269  16.363  0.1009 -0.2867  0.0940
 4115TIP3    H133760   3.199   5.183  16.392  0.8106 -0.5544 -1.3498
 4115TIP3    H233761   3.195   5.329  16.433  2.1448 -0.8268 -0.1363
 4116TIP3   OH233762   4.448   5.463  13.477  0.2107  0.1601  0.1957
 4116TIP3    H133763   4.499   5.460  13.558 -0.7828  2.4574  1.0145
 4116TIP3    H233764   4.370   5.513  13.501 -0.1438  0.8396 -2.1683
 4117TIP3   OH233765   2.419   0.706   2.015  0.1902  0.3767  0.0235
 4117TIP3    H133766   2.476   0.674   1.945 -1.2322 -0.4472 -0.7937
 4117TIP3    H233767   2.361   0.633   2.034 -1.3662  1.5728  0.0144
 4118TIP3   OH233768   0.643   5.555   4.166  0.1190  0.2077 -0.5012
 4118TIP3    H133769   0.618   5.632   4.216 -2.2806 -0.6150 -0.2732
 4118TIP3    H233770   0.707   5.510   4.222 -1.0895  0.2666  1.0038
 4119TIP3   OH233771   2.075   1.546   4.041 -0.0156  0.1188 -0.1237
 4119TIP3    H133772   2.069   1.467   4.094 -0.7961  0.7506  0.7680
 4119TIP3    H233773   2.003   1.540   3.978 -0.2428  0.2349  0.1216
 4120TIP3   OH233774   3.497   6.063  11.768  0.4123 -0.0794 -0.1076
 4120TIP3    H133775   3.406   6.045  11.795  0.8267 -1.2013  0.6175
 4120TIP3    H233776   3.491   6.143  11.716 -0.9557  0.0363  0.1830
 4121TIP3   OH233777   2.989   0.241   3.554 -0.7211 -0.1234  0.5030
 4121TIP3    H133778   2.940   0.160   3.541 -0.9171  0.1828 -0.7478
 4121TIP3    H233779   2.922   0.307   3.572 -0.5495 -0.2541  1.7265
 4122TIP3   OH233780   4.734   4.717   0.722  0.4615  0.0171 -0.6999
 4122TIP3    H133781   4.739   4.714   0.817 -0.1016 -2.2101 -0.6757
 4122TIP3    H233782   4.647   4.754   0.704  0.1093 -0.5862 -0.2986
 4123TIP3   OH233783   6.467   3.285   0.508  0.2267 -0.6457  0.0601
 4123TIP3    H133784   6.547   3.336   0.519  1.5131 -2.7464  1.2487
 4123TIP3    H233785   6.398   3.337   0.549  1.3485  0.3574  0.7110
 4124TIP3   OH233786   1.205   6.060  15.547  0.2072 -0.4124 -0.4040
 4124TIP3    H133787   1.188   6.076  15.454 -0.8740  1.9334  0.1141
 4124TIP3    H233788   1.249   6.140  15.577  1.2657 -1.4605  0.9578
 4125TIP3   OH233789   2.230   5.855  14.892 -0.1500  1.0348  0.4574
 4125TIP3    H133790   2.168   5.873  14.821  0.7037  0.0104 -0.5958
 4125TIP3    H233791   2.184   5.881  14.972 -1.6802  0.9213 -0.3491
 4126TIP3   OH233792   0.152   1.062  13.597  0.0569 -0.0430  0.4544
 4126TIP3    H133793   0.194   1.000  13.655  1.5112  0.9595  0.5250
 4126TIP3    H233794   0.186   1.147  13.624 -1.1724  0.7036 -0.2332
 4127TIP3   OH233795   3.042   0.826   4.810  0.7397  0.2431 -0.2280
 4127TIP3    H133796   3.040   0.894   4.878  2.1701 -0.0012  0.1016
 4127TIP3    H233797   2.984   0.758   4.843  0.5257  0.6256  0.2032
 4128TIP3   OH233798   4.296   0.517   5.128  0.0232  0.1077 -0.6675
 4128TIP3    H133799   4.291   0.517   5.033 -0.1850 -3.8893 -0.8402
 4128TIP3    H233800   4.386   0.543   5.147 -0.0574  1.3884 -1.9095
 4129TIP3   OH233801   3.016   6.212   5.213  0.1992 -0.3185 -0.1754
 4129TIP3    H133802   2.944   6.243   5.269  0.7586 -1.7171  1.3936
 4129TIP3    H233803   3.086   6.276   5.227 -0.2921  0.3602 -0.7447
 4130TIP3   OH233804   3.766   3.155  15.696  0.1709  0.7108 -0.3035
 4130TIP3    H133805   3.834   3.150  15.764  1.0579 -0.2767 -1.2367
 4130TIP3    H233806   3.773   3.073  15.649 -1.8129  0.5012 -0.3291
 4131TIP3   OH233807   0.691   5.413  15.690  0.6858  0.2870 -0.0109
 4131TIP3    H133808   0.659   5.408  15.600  1.4264  0.3831 -0.2839
 4131TIP3    H233809   0.715   5.505  15.702  0.4575  0.3043  0.3343
 4132TIP3   OH233810   5.176   3.581  16.424  0.0864  0.5237 -0.3758
 4132TIP3    H133811   5.256   3.582  16.371 -0.4012 -1.4983 -1.2410
 4132TIP3    H233812   5.136   3.497  16.405 -0.9718  0.4193  1.9972
 4133TIP3   OH233813   2.324   0.587  10.226 -0.6254 -0.0398  0.0740
 4133TIP3    H133814   2.404   0.536  10.216 -0.2299  0.1605  1.9370
 4133TIP3    H233815   2.336   0.661  10.166 -0.4025 -1.1366 -1.2803
 4134TIP3   OH233816   1.467   5.906  12.833  0.2316 -0.1311 -0.0349
 4134TIP3    H133817   1.389   5.958  12.848  1.4649  2.0760 -0.8474
 4134TIP3    H233818   1.467   5.888  12.739 -0.5173 -2.2852  0.3116
 4135TIP3   OH233819   3.302   2.309   5.505 -0.4232  0.2816 -0.7267
 4135TIP3    H133820   3.309   2.383   5.444  2.4467  0.7223 -0.0228
 4135TIP3    H233821   3.283   2.350   5.589  2.3887  0.5040 -0.0827
 4136TIP3   OH233822   1.000   4.624  15.314 -0.2688 -0.1553  0.2306
 4136TIP3    H133823   1.064   4.553  15.314  0.2203  0.2181 -1.7525
 4136TIP3    H233824   1.047   4.699  15.349  0.0081 -0.1986 -0.0398
 4137TIP3   OH233825   2.795   6.328   0.676  0.3104 -0.0574 -0.1073
 4137TIP3    H133826   2.888   6.320   0.700  0.6502  4.5502  0.9681
 4137TIP3    H233827   2.796   6.372   0.591 -0.8334  1.5904  0.6975
 4138TIP3   OH233828   6.292   3.365   4.511  0.2184 -0.7581 -0.1607
 4138TIP3    H133829   6.367   3.388   4.456  2.0577  0.6402  2.6749
 4138TIP3    H233830   6.234   3.442   4.507 -0.4279 -1.2804 -1.2683
 4139TIP3   OH233831   1.286   6.780   3.239 -0.1268  0.0187 -0.0453
 4139TIP3    H133832   1.347   6.743   3.176  0.3760  0.8679 -0.0675
 4139TIP3    H233833   1.320   6.754   3.325  1.3129  1.9756  0.0351
 4140TIP3   OH233834   6.169   4.242  14.634 -0.2475 -0.4131  0.0256
 4140TIP3    H133835   6.187   4.331  14.603  1.8138  0.2533  2.7220
 4140TIP3    H233836   6.079   4.246  14.668 -0.3331  0.5159 -0.2818
 4141TIP3   OH233837   3.222   1.537  14.495  0.7919  0.4664  0.0110
 4141TIP3    H133838   3.312   1.563  14.515  0.5107  1.2526  0.2891
 4141TIP3    H233839   3.176   1.540  14.579  1.1545 -2.8019  0.4311
 4142TIP3   OH233840   0.577   0.556  16.247  0.0322 -0.2424 -0.4979
 4142TIP3    H133841   0.668   0.531  16.265  0.1137  0.8521  0.7495
 4142TIP3    H233842   0.548   0.600  16.327 -1.4232 -0.0824 -1.0894
 4143TIP3   OH233843   5.011   4.659  12.165  0.0532  0.3106  0.2667
 4143TIP3    H133844   4.984   4.723  12.100  0.7298  0.5741  0.2411
 4143TIP3    H233845   4.979   4.695  12.248 -0.2269  0.3012  0.1653
 4144TIP3   OH233846   4.534   5.328  11.714 -0.1323 -0.5482  0.1017
 4144TIP3    H133847   4.464   5.264  11.702 -0.4523 -0.5222  1.6273
 4144TIP3    H233848   4.530   5.351  11.807  1.8494 -0.4816  0.2204
 4145TIP3   OH233849   3.118   4.047   3.562 -0.1958  0.2853 -0.6163
 4145TIP3    H133850   3.035   4.071   3.522  0.5856  0.4380 -2.2254
 4145TIP3    H233851   3.173   4.019   3.489  1.6186  1.4517  0.2282
 4146TIP3   OH233852   0.275   1.604  13.870 -0.0703  0.4847 -0.7746
 4146TIP3    H133853   0.303   1.638  13.955  0.6225  1.1269 -1.2511
 4146TIP3    H233854   0.190   1.646  13.855  0.2633  1.1444 -0.8494
 4147TIP3   OH233855   5.795   0.550   2.152 -0.1570  0.2713  0.1754
 4147TIP3    H133856   5.864   0.501   2.109  0.6063 -0.4832  2.1299
 4147TIP3    H233857   5.734   0.484   2.184 -0.3647  0.7445  0.7911
 4148TIP3   OH233858   5.230   4.477  14.490 -0.2965 -0.6011  0.1389
 4148TIP3    H133859   5.185   4.562  14.495 -1.3218 -1.1266  0.1404
 4148TIP3    H233860   5.317   4.493  14.526  0.2386  0.9237 -1.6389
 4149TIP3   OH233861   4.603   3.804   3.077 -0.7026 -0.2514  0.4694
 4149TIP3    H133862   4.649   3.750   3.013 -1.2483  0.5600 -0.6490
 4149TIP3    H233863   4.671   3.859   3.115 -0.7649  1.5121 -1.7447
 4150TIP3   OH233864   3.454   5.329  11.700 -0.1017  0.6584 -0.3739
 4150TIP3    H133865   3.391   5.373  11.757  0.3957  0.7118  0.1489
 4150TIP3    H233866   3.533   5.383  11.707  0.8292 -0.7880  0.9997
 4151TIP3   OH233867   3.691   4.613   6.757 -0.1568  0.4219 -0.3742
 4151TIP3    H133868   3.756   4.549   6.787  0.1078  1.1570  0.6819
 4151TIP3    H233869   3.619   4.560   6.722 -0.4985 -0.5248  1.6290
 4152TIP3   OH233870   6.410   4.168  11.209 -0.1220  0.3889 -0.3105
 4152TIP3    H133871   6.383   4.081  11.178  0.5851 -0.1254  0.4519
 4152TIP3    H233872   6.504   4.172  11.191 -0.0637  0.8142  0.0647
 4153TIP3   OH233873   3.457   3.088  12.048  0.0521  0.4479 -0.7286
 4153TIP3    H133874   3.395   3.074  11.976  0.5000 -1.1206 -0.8669
 4153TIP3    H233875   3.403   3.084  12.127 -0.1748  0.1251 -0.8942
 4154TIP3   OH233876   6.242   6.635  12.491  0.1401  0.0274  0.3191
 4154TIP3    H133877   6.206   6.580  12.561  0.2704 -0.2236  0.1873
 4154TIP3    H233878   6.314   6.584  12.454 -1.4079 -0.9077 -1.6002
 4155TIP3   OH233879   3.937   5.374  10.413 -0.1903 -0.1592  0.6203
 4155TIP3    H133880   4.004   5.313  10.379 -0.7239 -0.7626  0.6278
 4155TIP3    H233881   3.912   5.426  10.337  1.3646  1.1252  0.9286
 4156TIP3   OH233882   6.559   5.840  14.725  0.1189  0.2949  0.1324
 4156TIP3    H133883   6.563   5.863  14.632 -1.2200  2.0710  0.4756
 4156TIP3    H233884   6.567   5.923  14.771  0.0777 -0.4869  1.6086
 4157TIP3   OH233885   4.559   0.037  15.519  0.6114 -0.2875 -0.4831
 4157TIP3    H133886   4.647   0.074  15.527  0.1117  0.7069  0.6139
 4157TIP3    H233887   4.515   0.094  15.455 -0.6050  2.0508  2.2172
 4158TIP3   OH233888   1.873   1.509  11.075  0.5221  0.5059 -0.3003
 4158TIP3    H133889   1.810   1.575  11.046 -0.1142  0.1389  0.2132
 4158TIP3    H233890   1.854   1.432  11.022  0.4370  0.3511 -0.0499
 4159TIP3   OH233891   4.327   4.187   0.463  0.2912 -0.0520 -0.4321
 4159TIP3    H133892   4.234   4.163   0.464 -0.2241  1.7929  1.0614
 4159TIP3    H233893   4.373   4.103   0.464 -1.4014 -1.1585  3.6142
 4160TIP3   OH233894   2.989   2.346   1.908 -0.1726 -0.1008 -0.1538
 4160TIP3    H133895   2.964   2.258   1.880  0.0586 -0.7101  1.4704
 4160TIP3    H233896   2.917   2.402   1.877 -2.2523 -1.4222  1.9787
 4161TIP3   OH233897   5.474   1.484  13.034 -0.1807 -0.9443 -0.4865
 4161TIP3    H133898   5.395   1.470  12.982 -0.3227 -1.8692 -0.0567
 4161TIP3    H233899   5.447   1.545  13.102 -0.0842  0.0054 -1.2840
 4162TIP3   OH233900   1.590   2.870  12.397  0.3826  0.1892  0.5004
 4162TIP3    H133901   1.590   2.790  12.345  1.0200  0.2905  0.3330
 4162TIP3    H233902   1.599   2.940  12.333 -0.6144  0.4367  0.6064
 4163TIP3   OH233903   2.843   4.116  14.156  0.1655 -0.3217  0.4176
 4163TIP3    H133904   2.930   4.131  14.192  0.1115  1.1012  0.0129
 4163TIP3    H233905   2.856   4.116  14.061 -0.4459  1.2537  0.3099
 4164TIP3   OH233906   4.455   2.230   1.256 -0.3026  0.3424 -0.1576
 4164TIP3    H133907   4.510   2.201   1.329  1.7957  1.6422 -1.1241
 4164TIP3    H233908   4.468   2.165   1.188  1.2618  1.3589 -0.8951
 4165TIP3   OH233909   5.411   1.276  16.963 -0.1029  0.5950 -0.2474
 4165TIP3    H133910   5.381   1.307  16.877  1.3917  1.0760 -0.6099
 4165TIP3    H233911   5.402   1.181  16.958 -2.4312  0.7412  0.0147
 4166TIP3   OH233912   6.410   0.246   3.096 -0.6635 -0.0826  0.7118
 4166TIP3    H133913   6.337   0.195   3.131 -0.3789 -1.0206 -0.0216
 4166TIP3    H233914   6.388   0.337   3.117 -1.4886 -0.4463  1.4779
 4167TIP3   OH233915   5.255   5.042   4.406 -0.5378 -0.5949  0.1799
 4167TIP3    H133916   5.165   5.012   4.422 -1.2519  0.2366 -1.8939
 4167TIP3    H233917   5.249   5.137   4.417  0.0738 -0.5286 -0.0761
 4168TIP3   OH233918   3.275   6.037  12.186 -0.3555  0.5957  0.3721
 4168TIP3    H133919   3.236   6.004  12.267  2.2245  0.3559  1.6289
 4168TIP3    H233920   3.305   6.125  12.209  0.5191  0.4723 -0.2551
 4169TIP3   OH233921   3.973   4.684   2.350 -0.2219  0.3668 -0.0007
 4169TIP3    H133922   4.050   4.738   2.331 -0.5375  0.6654 -0.4685
 4169TIP3    H233923   3.931   4.728   2.424  0.8052 -0.5835  1.1828
 4170TIP3   OH233924   0.175   4.817  13.396 -0.0558 -0.0795  0.7608
 4170TIP3    H133925   0.261   4.805  13.435  1.4091  0.7768 -1.9383
 4170TIP3    H233926   0.147   4.903  13.425  1.8601  1.3699 -1.3533
 4171TIP3   OH233927   4.948   2.995  14.525 -0.2293  0.4130 -0.2875
 4171TIP3    H133928   4.952   3.042  14.441  1.6259 -0.6201 -0.8240
 4171TIP3    H233929   4.914   2.909  14.503 -0.7306  0.4747  0.2158
 4172TIP3   OH233930   4.465   6.702  13.189 -0.0029 -0.3152 -0.2567
 4172TIP3    H133931   4.556   6.684  13.164 -0.5982 -1.3563 -1.8909
 4172TIP3    H233932   4.435   6.622  13.231  0.2309  0.5462  1.6260
 4173TIP3   OH233933   6.488   6.085  15.603  0.0010 -0.0912 -0.0908
 4173TIP3    H133934   6.471   6.054  15.514 -2.8315  0.5397  0.1428
 4173TIP3    H233935   6.467   6.010  15.659  0.3163 -0.0264  0.1140
 4174TIP3   OH233936   5.549   0.212  12.433 -0.4025  0.2266  0.4234
 4174TIP3    H133937   5.602   0.291  12.439  2.7064 -1.1405 -4.1003
 4174TIP3    H233938   5.586   0.153  12.499  0.4721  0.9411  0.5849
 4175TIP3   OH233939   0.702   6.061   1.199  0.0938 -0.3017 -0.3380
 4175TIP3    H133940   0.631   6.125   1.195  0.3791  0.0713  0.3390
 4175TIP3    H233941   0.726   6.046   1.108 -0.1229  0.3932 -0.5178
 4176TIP3   OH233942   5.080   2.873   3.380 -0.0033 -0.1687  0.6109
 4176TIP3    H133943   5.095   2.933   3.452  0.4211 -0.3405  0.6659
 4176TIP3    H233944   5.140   2.902   3.311  0.5262 -0.7977  0.7988
 4177TIP3   OH233945   1.477   0.406   1.280  0.6359  0.1309  0.4734
 4177TIP3    H133946   1.455   0.441   1.194  1.4541 -0.4360  0.0173
 4177TIP3    H233947   1.484   0.483   1.337  3.6306  0.9098 -0.7638
 4178TIP3   OH233948   3.587   3.298   2.416 -0.0302  0.3639  0.0527
 4178TIP3    H133949   3.495   3.317   2.394 -0.1768 -0.9176 -0.5117
 4178TIP3    H233950   3.636   3.328   2.339 -0.0702  0.1555 -0.0532
 4179TIP3   OH233951   3.209   3.464  16.325  0.3791  0.0335 -0.8465
 4179TIP3    H133952   3.299   3.436  16.310  0.0983 -0.3652 -1.8571
 4179TIP3    H233953   3.178   3.493  16.239  0.0362  1.6662 -0.2049
 4180TIP3   OH233954   5.192   1.019  12.939 -0.1963  0.3988  0.3153
 4180TIP3    H133955   5.179   1.090  13.002 -0.9935 -1.0444  1.8585
 4180TIP3    H233956   5.139   0.947  12.973 -0.9029 -0.3587 -2.1902
 4181TIP3   OH233957   4.149   2.774  12.791 -0.3383  0.4577 -0.3539
 4181TIP3    H133958   4.164   2.868  12.798  0.9237  0.3567 -1.3889
 4181TIP3    H233959   4.139   2.758  12.697  1.2192 -0.6605 -0.3693
 4182TIP3   OH233960   0.270   2.315   0.264 -0.0311  0.3996 -0.7626
 4182TIP3    H133961   0.182   2.293   0.293  0.0823  0.5674 -0.2861
 4182TIP3    H233962   0.300   2.382   0.325  0.5106  0.1776 -0.7785
 4183TIP3   OH233963   5.586   0.733   4.794  0.1714 -0.3961 -0.4090
 4183TIP3    H133964   5.654   0.710   4.730  0.9371  1.1956 -0.2068
 4183TIP3    H233965   5.633   0.751   4.875 -0.3601  1.5628 -0.4827
 4184TIP3   OH233966   5.320   4.974   4.140 -0.3026 -0.1555  0.7222
 4184TIP3    H133967   5.276   5.023   4.209 -0.6963  0.4312  0.0658
 4184TIP3    H233968   5.265   4.985   4.063 -1.3931 -3.1106  0.9416
 4185TIP3   OH233969   0.569   2.694  15.573 -0.3037 -0.3522  0.2689
 4185TIP3    H133970   0.639   2.656  15.520  0.6287  0.0351  1.1956
 4185TIP3    H233971   0.568   2.643  15.653  1.2769  1.7485  1.7343
 4186TIP3   OH233972   6.659   4.716   4.211 -0.2108 -0.0567 -1.1864
 4186TIP3    H133973   6.692   4.802   4.240  0.5175 -1.0213  1.0749
 4186TIP3    H233974   6.569   4.734   4.183 -0.4595  1.3113  0.2742
 4187TIP3   OH233975   1.139   4.105   3.525 -0.3659 -0.4816 -0.5268
 4187TIP3    H133976   1.115   4.152   3.445 -0.2446  0.5043  0.0008
 4187TIP3    H233977   1.055   4.076   3.562 -0.4081 -1.1445 -1.1130
 4188TIP3   OH233978   1.269   5.277   0.538  0.1412 -0.0167 -0.5124
 4188TIP3    H133979   1.353   5.231   0.541  0.6845  0.9615 -0.1356
 4188TIP3    H233980   1.244   5.276   0.446  0.0962 -1.1272 -0.5010
 4189TIP3   OH233981   2.792   1.696  14.152 -0.3118  0.5835 -0.1222
 4189TIP3    H133982   2.763   1.736  14.234 -0.1618  1.5481 -0.5206
 4189TIP3    H233983   2.876   1.738  14.134  1.1362 -1.7279  0.7186
 4190TIP3   OH233984   3.350   2.465  15.908  0.0381 -0.6165  0.3933
 4190TIP3    H133985   3.374   2.449  15.816 -0.1029 -2.1184  0.5914
 4190TIP3    H233986   3.391   2.548  15.929 -1.6765  0.8593 -1.6529
 4191TIP3   OH233987   4.657   3.267  16.835  0.8593  0.1166 -0.1366
 4191TIP3    H133988   4.587   3.233  16.779 -0.3235 -0.2736  1.5041
 4191TIP3    H233989   4.737   3.230  16.798 -0.0729 -1.8266 -0.3498
 4192TIP3   OH233990   3.572   4.474  11.933  0.0751  0.1258 -0.2076
 4192TIP3    H133991   3.510   4.505  11.867 -0.3344  0.5440  0.3688
 4192TIP3    H233992   3.587   4.382  11.911 -0.2715  0.1876 -0.7146
 4193TIP3   OH233993   5.906   4.321   2.011 -0.1306  0.4633 -0.9074
 4193TIP3    H133994   5.836   4.328   1.946 -0.4155  0.6015 -0.5869
 4193TIP3    H233995   5.944   4.235   1.995 -1.7151 -0.5055  0.2462
 4194TIP3   OH233996   1.010   4.314   1.609 -0.0049 -0.3083  1.0881
 4194TIP3    H133997   1.057   4.338   1.529 -0.8129 -1.6883  0.1639
 4194TIP3    H233998   1.016   4.391   1.665  1.4451  0.3187  0.1030
 4195TIP3   OH233999   2.264   1.403  11.714 -0.6164  0.4417  0.2401
 4195TIP3    H134000   2.227   1.409  11.626 -1.5735 -0.4310  0.5656
 4195TIP3    H234001   2.333   1.337  11.706 -0.0013  1.1107 -0.0747
 4196TIP3   OH234002   1.638   5.867  16.705 -0.2658 -0.3393  0.2620
 4196TIP3    H134003   1.659   5.959  16.719  0.7749 -0.5748  0.2939
 4196TIP3    H234004   1.720   5.827  16.677 -0.9657 -1.0360 -0.8840
 4197TIP3   OH234005   4.051   6.455   0.008  0.0053 -0.5135 -0.0360
 4197TIP3    H134006   4.084   6.416  -0.073  4.0221  0.0812  1.0579
 4197TIP3    H234007   4.083   6.545   0.005 -0.5927 -0.2091  1.7911
 4198TIP3   OH234008   1.286   2.572   5.737 -0.2171  0.6657  0.4481
 4198TIP3    H134009   1.212   2.541   5.790 -1.7810  2.4571 -0.5635
 4198TIP3    H234010   1.363   2.535   5.780 -1.4868  0.9055  3.1663
 4199TIP3   OH234011   4.032   3.386   3.999 -0.2825 -0.2102 -0.0051
 4199TIP3    H134012   4.056   3.315   3.939  0.4159 -0.1249  0.1624
 4199TIP3    H234013   3.941   3.406   3.977 -0.2731 -0.6940 -0.5198
 4200TIP3   OH234014   2.359   5.880   4.960  0.3755  0.1306 -0.3302
 4200TIP3    H134015   2.444   5.896   5.002  0.8812  0.9282 -1.6097
 4200TIP3    H234016   2.316   5.817   5.018  1.2492  0.7976  1.0993
 4201TIP3   OH234017   3.512   0.540  11.914  0.2202  0.5261  0.3144
 4201TIP3    H134018   3.534   0.601  11.844 -0.3768  1.6953  1.1041
 4201TIP3    H234019   3.421   0.516  11.898  0.7801 -1.1043 -0.6443
 4202TIP3   OH234020   5.382   1.471   1.012 -0.1342  0.5348 -0.7274
 4202TIP3    H134021   5.457   1.498   0.957  1.0583  0.8952  0.9906
 4202TIP3    H234022   5.374   1.541   1.076 -0.0817 -0.8987  0.9005
 4203TIP3   OH234023   1.462   6.078   5.576 -0.1823  0.3371  0.3699
 4203TIP3    H134024   1.429   6.167   5.588 -0.7381  0.1326  0.3713
 4203TIP3    H234025   1.511   6.060   5.656  0.3834  0.8327  0.1451
 4204TIP3   OH234026   5.764   3.823  13.529 -0.5244 -0.2869 -0.3473
 4204TIP3    H134027   5.707   3.771  13.472  0.8344 -0.6133 -1.4592
 4204TIP3    H234028   5.734   3.803  13.618 -2.3743 -0.1445 -0.8858
 4205TIP3   OH234029   3.738   1.082   3.572 -0.2007  0.4718  0.4051
 4205TIP3    H134030   3.832   1.101   3.579  0.5463 -1.9908 -1.4069
 4205TIP3    H234031   3.716   1.040   3.655  0.4274  0.5942  0.6394
 4206TIP3   OH234032   0.343   4.045   1.119  0.8825  0.0481 -0.4416
 4206TIP3    H134033   0.313   4.131   1.148  0.7533  0.1280 -0.8091
 4206TIP3    H234034   0.263   3.993   1.114  1.1672 -0.7366  1.8546
 4207TIP3   OH234035   6.679   1.732  14.400  0.4189  0.0617 -0.2173
 4207TIP3    H134036   6.614   1.664  14.420 -0.0722  0.5412 -0.1688
 4207TIP3    H234037   6.762   1.684  14.392 -0.0189 -0.6137 -0.7531
 4208TIP3   OH234038   0.969   5.088  10.803 -0.3193 -0.2742 -0.1977
 4208TIP3    H134039   1.011   5.129  10.879 -1.3190  2.7409 -1.1239
 4208TIP3    H234040   0.929   5.008  10.838 -0.9008  1.0906  2.5220
 4209TIP3   OH234041   0.297   2.621  11.820 -0.4836  0.5433  0.9496
 4209TIP3    H134042   0.340   2.702  11.796 -1.6291  0.7862 -0.4152
 4209TIP3    H234043   0.317   2.610  11.913  3.0635  0.2463  0.3017
 4210TIP3   OH234044   5.707   1.403   3.930  0.2240  0.2004 -0.3990
 4210TIP3    H134045   5.622   1.447   3.925  0.3171  0.3618 -0.5744
 4210TIP3    H234046   5.758   1.456   3.991 -0.0646 -0.3456  0.3344
 4211TIP3   OH234047   2.510   5.901  12.070  0.1975 -0.4155 -0.3771
 4211TIP3    H134048   2.517   5.989  12.033  1.8377 -0.1154  0.5741
 4211TIP3    H234049   2.465   5.850  12.003  2.1208  0.3593 -2.3457
 4212TIP3   OH234050   1.803   5.536   2.326  0.1605  0.4127  0.2760
 4212TIP3    H134051   1.830   5.617   2.370  2.7293  0.9126 -1.9153
 4212TIP3    H234052   1.735   5.565   2.264  1.3115  1.0357 -0.7447
 4213TIP3   OH234053   6.109   0.806  13.698  0.2804 -0.3134 -0.2939
 4213TIP3    H134054   6.087   0.899  13.687 -1.0998 -0.4257  1.1978
 4213TIP3    H234055   6.054   0.761  13.634 -0.0884 -0.1987 -0.0618
 4214TIP3   OH234056   5.617   0.018  10.615 -0.2324 -0.4883  0.3968
 4214TIP3    H134057   5.605   0.108  10.586 -0.7802 -0.2552  1.3068
 4214TIP3    H234058   5.700   0.018  10.663 -0.5423 -0.3135  0.9460
 4215TIP3   OH234059   0.263   4.431  15.934  0.3009 -0.2478 -0.2789
 4215TIP3    H134060   0.214   4.399  16.010 -1.9519  1.7033 -0.7873
 4215TIP3    H234061   0.273   4.525  15.950  4.4289 -0.5580 -0.0099
 4216TIP3   OH234062   0.818   2.147   5.048  0.0782  0.1258 -0.2499
 4216TIP3    H134063   0.899   2.191   5.022  0.9091 -1.5826 -0.6791
 4216TIP3    H234064   0.770   2.133   4.967 -0.6751  1.1237  0.0024
 4217TIP3   OH234065   4.978   6.706  11.048  0.0961 -0.0476 -0.1375
 4217TIP3    H134066   4.936   6.624  11.022  0.2745 -0.3215  0.4098
 4217TIP3    H234067   5.025   6.684  11.129  0.3109  0.5451 -0.0938
 4218TIP3   OH234068   2.985   5.128   4.145  0.2887 -0.3972 -0.0903
 4218TIP3    H134069   2.957   5.168   4.227 -1.7051 -0.6628 -0.6064
 4218TIP3    H234070   2.956   5.037   4.151  1.3760 -0.7994 -0.5420
 4219TIP3   OH234071   1.167   4.731  11.442 -0.0226 -0.6780  0.6597
 4219TIP3    H134072   1.234   4.763  11.382  0.0567 -0.3458  0.9222
 4219TIP3    H234073   1.215   4.713  11.523 -0.0998 -1.2748  0.5800
 4220TIP3   OH234074   0.613   0.944   1.580 -0.5467 -0.3662  0.1963
 4220TIP3    H134075   0.572   1.030   1.581 -1.2048 -0.6713  0.0701
 4220TIP3    H234076   0.583   0.902   1.661 -0.9533 -0.8041 -0.1736
 4221TIP3   OH234077   5.562   3.026   4.275  1.1974 -0.4740  0.1836
 4221TIP3    H134078   5.478   3.004   4.317  0.9301  0.6364  0.2536
 4221TIP3    H234079   5.627   2.978   4.326  0.5066 -2.4002 -0.6740
 4222TIP3   OH234080   1.700   6.753  15.692  0.3783  0.3693 -0.3082
 4222TIP3    H134081   1.640   6.697  15.642  0.7484  0.8178 -1.2751
 4222TIP3    H234082   1.765   6.782  15.628  0.0551  2.1101  0.0893
 4223TIP3   OH234083   5.790   2.975   4.763  0.0848  0.2691  0.4269
 4223TIP3    H134084   5.738   2.933   4.832 -0.9139 -1.3438 -1.2485
 4223TIP3    H234085   5.880   2.965   4.793 -0.3010 -0.7334  1.3426
 4224TIP3   OH234086   1.551   5.808  15.074 -0.3927  0.4121  0.3331
 4224TIP3    H134087   1.549   5.854  14.990  2.1636 -0.0393 -0.0756
 4224TIP3    H234088   1.486   5.854  15.127 -1.8613  0.9229 -1.7482
 4225TIP3   OH234089   0.057   1.559  16.694 -0.1091 -0.9428  0.6561
 4225TIP3    H134090   0.149   1.583  16.691 -0.5442  0.7580 -1.5131
 4225TIP3    H234091   0.010   1.643  16.693 -1.6966 -1.7752  1.4129
 4226TIP3   OH234092   6.789   6.537   0.174 -0.8578  0.2123  0.6620
 4226TIP3    H134093   6.705   6.556   0.217  0.1152  0.5119  2.5431
 4226TIP3    H234094   6.792   6.441   0.170 -0.5089  0.1215  2.3379
 4227TIP3   OH234095   0.809   1.175  13.817 -0.1472 -0.0648 -0.6704
 4227TIP3    H134096   0.729   1.212  13.779 -0.3081 -1.3109 -1.6554
 4227TIP3    H234097   0.878   1.197  13.754 -0.0487 -0.4684 -0.7085
 4228TIP3   OH234098   5.635   1.659   2.406 -0.2132  0.4168 -0.7447
 4228TIP3    H134099   5.709   1.599   2.406 -0.3636  0.1858  0.5135
 4228TIP3    H234100   5.642   1.705   2.490 -0.7172  1.3802 -1.2109
 4229TIP3   OH234101   4.518   0.591   0.296 -0.7365  0.4520 -0.2762
 4229TIP3    H134102   4.490   0.524   0.234  0.0199  0.1958 -0.3532
 4229TIP3    H234103   4.484   0.673   0.259 -2.1076  0.0754  0.0916
 4230TIP3   OH234104   4.679   4.317  14.999 -0.5686 -0.1095 -0.3299
 4230TIP3    H134105   4.658   4.398  15.045 -2.3627 -1.0109  0.5627
 4230TIP3    H234106   4.665   4.337  14.906  1.4154  1.2476 -0.3822
 4231TIP3   OH234107   3.249   5.307  15.225  0.4532 -0.3780  0.2443
 4231TIP3    H134108   3.312   5.254  15.273 -0.5013 -0.4463  1.4695
 4231TIP3    H234109   3.165   5.291  15.270 -0.1980  0.7063 -0.5388
 4232TIP3   OH234110   5.260   5.956  15.274 -0.2114  0.6355  0.8415
 4232TIP3    H134111   5.349   5.962  15.309  1.4443  2.6034 -3.1163
 4232TIP3    H234112   5.211   6.023  15.323  1.0209  0.9668  1.6794
 4233TIP3   OH234113   6.424   2.336  15.477 -0.0406  0.2826 -0.5842
 4233TIP3    H134114   6.383   2.335  15.391  0.3321  1.2481 -0.7834
 4233TIP3    H234115   6.511   2.298  15.463 -1.1697 -2.7490  0.0369
 4234TIP3   OH234116   0.311   2.936   5.766  0.2459  0.2871 -0.5557
 4234TIP3    H134117   0.374   2.991   5.812  1.0203 -0.5950 -0.5130
 4234TIP3    H234118   0.282   2.872   5.832  0.1464  0.0059 -0.8661
 4235TIP3   OH234119   2.636   6.701  11.596  0.0123  0.6233 -0.0528
 4235TIP3    H134120   2.616   6.659  11.512  0.9459 -0.6879  0.3639
 4235TIP3    H234121   2.550   6.728  11.629 -0.7003 -1.4176 -0.1028
 4236TIP3   OH234122   4.082   1.239   2.903  0.5463  0.4556 -0.4180
 4236TIP3    H134123   4.099   1.152   2.939 -0.1744  1.1359  1.7050
 4236TIP3    H234124   4.008   1.227   2.844  0.2112 -0.3055  0.1562
 4237TIP3   OH234125   5.920   6.565  16.678 -0.5961  0.1897  0.0849
 4237TIP3    H134126   5.897   6.649  16.637 -1.4516  0.1573  0.4731
 4237TIP3    H234127   6.013   6.553  16.657 -0.5665  1.0301 -0.3291
 4238TIP3   OH234128   6.739   4.762  15.941 -0.1637 -0.0415  0.4595
 4238TIP3    H134129   6.690   4.841  15.920 -1.9098 -0.9435  0.9902
 4238TIP3    H234130   6.797   4.750  15.866 -0.1159  1.5224  0.2049
 4239TIP3   OH234131   6.098   2.739   3.805  0.3423  0.6363  0.3314
 4239TIP3    H134132   6.069   2.654   3.840 -0.7694  0.5775 -0.6559
 4239TIP3    H234133   6.057   2.804   3.862 -1.2081  0.5367 -0.6029
 4240TIP3   OH234134   4.509   3.348  15.013  0.3011  0.3543 -0.0781
 4240TIP3    H134135   4.557   3.378  15.090  0.0015 -1.1046  0.7034
 4240TIP3    H234136   4.446   3.418  14.996  0.2194  0.5952  1.1360
 4241TIP3   OH234137   0.623   0.064  12.973  0.0052  0.1680  0.3587
 4241TIP3    H134138   0.705   0.033  12.935 -0.2923  0.9072 -0.9908
 4241TIP3    H234139   0.565   0.076  12.897 -0.9425  0.8204  1.1571
 4242TIP3   OH234140   6.751   0.618  15.034  0.5184 -0.7222 -0.1213
 4242TIP3    H134141   6.740   0.698  14.984 -1.9400 -1.5352 -1.0240
 4242TIP3    H234142   6.755   0.548  14.968 -1.7103 -1.7131  0.6955
 4243TIP3   OH234143   3.696   5.884  12.710  0.0092 -0.3641  0.5813
 4243TIP3    H134144   3.643   5.961  12.685  0.8736 -0.0656 -0.4059
 4243TIP3    H234145   3.786   5.911  12.692  0.3244 -1.5886  0.2869
 4244TIP3   OH234146   6.139   1.486  16.882 -0.3391 -0.2645 -0.2921
 4244TIP3    H134147   6.089   1.444  16.952  0.1605 -0.9799 -0.3442
 4244TIP3    H234148   6.206   1.536  16.927 -1.4627  1.2126 -0.2015
 4245TIP3   OH234149   4.188   1.692  13.901  0.2996 -0.3482  0.0319
 4245TIP3    H134150   4.240   1.771  13.918  0.2832 -0.7916  2.5116
 4245TIP3    H234151   4.106   1.707  13.949  0.5055 -2.0515  0.9831
 4246TIP3   OH234152   2.034   5.516   1.735 -0.0225 -0.4367  0.3917
 4246TIP3    H134153   1.962   5.566   1.771 -1.0954  0.0396 -2.1772
 4246TIP3    H234154   2.057   5.454   1.804 -2.5045 -0.2173  1.5330
 4247TIP3   OH234155   6.500   0.590   2.093 -0.1376  0.1288 -0.0650
 4247TIP3    H134156   6.418   0.633   2.114  0.2119 -0.2436  2.2765
 4247TIP3    H234157   6.517   0.531   2.166  2.7348  0.9919  0.1224
 4248TIP3   OH234158   5.331   6.363  16.717 -0.6857  0.3100 -0.1612
 4248TIP3    H134159   5.354   6.278  16.679  0.3016 -0.1873  1.4607
 4248TIP3    H234160   5.400   6.422  16.688 -0.5422  0.1960 -0.0525
 4249TIP3   OH234161   2.793   1.868  10.876  0.4521  0.4340  0.5919
 4249TIP3    H134162   2.709   1.845  10.838  0.7224  0.2427  0.0976
 4249TIP3    H234163   2.822   1.944  10.825  0.9126  0.0494  0.2731
 4250TIP3   OH234164   3.066   1.801   5.873 -0.4105 -0.2752 -0.0531
 4250TIP3    H134165   2.983   1.821   5.915 -0.3995 -0.3313 -0.0047
 4250TIP3    H234166   3.048   1.724   5.819 -0.8734  0.8281 -1.5391
 4251TIP3   OH234167   4.011   2.291   1.473  0.3984 -0.2082  0.0838
 4251TIP3    H134168   3.994   2.384   1.463 -0.1731 -0.2809  0.3736
 4251TIP3    H234169   4.080   2.273   1.409  0.3851  0.3736 -0.1019
 4252TIP3   OH234170   1.799   2.796   0.589  0.2811 -0.2340 -0.1846
 4252TIP3    H134171   1.836   2.861   0.530 -0.4584  0.2067 -0.1684
 4252TIP3    H234172   1.874   2.761   0.636  0.7058  0.4619 -0.3396
 4253TIP3   OH234173   0.693   2.521   1.636 -0.3570 -0.0486  0.7677
 4253TIP3    H134174   0.628   2.568   1.687  0.0260  1.6611 -0.2425
 4253TIP3    H234175   0.647   2.443   1.604 -1.5355  0.5161  1.0474
 4254TIP3   OH234176   4.119   4.183  12.122  0.0167  0.6432 -0.2664
 4254TIP3    H134177   4.082   4.228  12.045  0.7478 -0.6322 -1.3995
 4254TIP3    H234178   4.199   4.231  12.142 -1.2490  2.3216  1.1016
 4255TIP3   OH234179   6.117   0.211   5.479 -0.3024 -0.4983 -0.4656
 4255TIP3    H134180   6.023   0.196   5.488 -0.1111 -2.4557 -1.1124
 4255TIP3    H234181   6.154   0.124   5.466  1.7510  0.1055  0.7946
 4256TIP3   OH234182   3.223   6.782   1.128 -0.0925  0.1414 -0.3901
 4256TIP3    H134183   3.271   6.753   1.206 -1.2678 -0.4634  0.1322
 4256TIP3    H234184   3.163   6.710   1.109  1.7065 -0.8142 -3.2581
 4257TIP3   OH234185   1.948   0.122   3.201  0.4388  0.0874 -0.8363
 4257TIP3    H134186   1.905   0.044   3.167 -1.2072  1.5378 -2.2702
 4257TIP3    H234187   1.905   0.139   3.285 -0.0731  0.1424 -1.1078
 4258TIP3   OH234188   3.335   2.666   1.939  0.3012 -0.1107 -0.4646
 4258TIP3    H134189   3.291   2.644   1.857 -0.2359  0.8901 -0.4700
 4258TIP3    H234190   3.296   2.750   1.965  3.1298  1.5680 -1.1679
 4259TIP3   OH234191   4.100   5.122  11.657 -0.5248  0.2605  0.4397
 4259TIP3    H134192   4.112   5.028  11.640  1.5796  0.2815  1.5345
 4259TIP3    H234193   4.032   5.149  11.594 -1.6778 -2.1039  0.5619
 4260TIP3   OH234194   4.339   4.873  13.685 -0.3013 -0.4561  0.2345
 4260TIP3    H134195   4.394   4.844  13.612 -0.7350 -3.4852  0.9827
 4260TIP3    H234196   4.400   4.902  13.752  0.2448 -0.6696 -0.1619
 4261TIP3   OH234197   4.160   6.182  11.201  0.1643  0.1262  0.1460
 4261TIP3    H134198   4.222   6.150  11.267 -0.7007 -0.9494  0.4603
 4261TIP3    H234199   4.078   6.136  11.221 -0.6079  1.1568 -0.5604
 4262TIP3   OH234200   3.742   2.041  14.167 -0.1439  0.2381  0.0131
 4262TIP3    H134201   3.777   2.119  14.212 -0.0641  0.2496 -0.0686
 4262TIP3    H234202   3.812   1.976  14.174 -0.2757  0.1170  0.2272
 4263TIP3   OH234203   1.399   4.378  11.509 -0.2119 -0.0332  0.3601
 4263TIP3    H134204   1.388   4.411  11.420  0.7419 -0.1967  0.1655
 4263TIP3    H234205   1.494   4.375  11.522 -0.2146 -2.7785  0.3251
 4264TIP3   OH234206   1.158   3.444   0.894 -0.1550 -0.2197 -0.2656
 4264TIP3    H134207   1.211   3.473   0.968 -0.4114 -0.6770  0.1053
 4264TIP3    H234208   1.143   3.523   0.842 -0.5275  0.2376  0.5221
 4265TIP3   OH234209   0.595   3.395   2.950  0.0580 -0.7958  0.1010
 4265TIP3    H134210   0.526   3.394   2.884  1.0644 -0.9260 -0.9858
 4265TIP3    H234211   0.559   3.448   3.022 -0.4187  0.8221 -1.2590
 4266TIP3   OH234212   4.760   4.700  14.271 -0.0339 -0.0776  0.4191
 4266TIP3    H134213   4.712   4.662  14.199  0.0985 -0.0216  0.2997
 4266TIP3    H234214   4.697   4.707  14.343 -0.7577  1.7827 -0.3229
 4267TIP3   OH234215   6.139   4.080  14.352  0.5392 -0.2950  0.0997
 4267TIP3    H134216   6.178   4.120  14.274  1.7158  0.0644  0.8343
 4267TIP3    H234217   6.084   4.149  14.389 -0.3990 -0.6237 -0.6547
 4268TIP3   OH234218   2.759   5.975   5.210 -0.4692  0.1076 -0.4343
 4268TIP3    H134219   2.701   5.930   5.148 -0.9129  1.4322 -0.9979
 4268TIP3    H234220   2.716   5.962   5.295 -1.6336  1.0948 -0.8458
 4269TIP3   OH234221   4.766   1.814   0.319  0.0959 -0.4606 -0.2300
 4269TIP3    H134222   4.842   1.757   0.323 -0.2017 -0.8261  0.2958
 4269TIP3    H234223   4.802   1.903   0.318  0.5050 -0.5813  1.3705
 4270TIP3   OH234224   5.472   1.832  13.763 -0.0818  0.2507 -0.0001
 4270TIP3    H134225   5.559   1.870  13.750  0.3564  0.1970  2.3387
 4270TIP3    H234226   5.475   1.748  13.718  1.5382 -0.2894  1.0179
 4271TIP3   OH234227   1.006   4.197  13.386  0.2671  0.1305 -0.1686
 4271TIP3    H134228   1.090   4.176  13.425 -0.0650 -0.7550  0.0868
 4271TIP3    H234229   0.996   4.133  13.315 -0.8685 -0.7631  0.7702
 4272TIP3   OH234230   4.280   5.614  11.388  0.0121  0.0668 -0.6207
 4272TIP3    H134231   4.199   5.573  11.415 -0.2137  0.3809 -0.8103
 4272TIP3    H234232   4.274   5.619  11.293  0.0347  0.5359 -0.5999
 4273TIP3   OH234233   0.338   2.337  13.116 -0.2336  0.1305 -0.0221
 4273TIP3    H134234   0.348   2.243  13.131  1.8204  0.1624 -0.9141
 4273TIP3    H234235   0.393   2.378  13.183 -0.1435  0.6529 -0.4078
 4274TIP3   OH234236   3.602   4.343   2.070  0.0725  0.5859  0.1127
 4274TIP3    H134237   3.637   4.363   1.983 -0.7945  1.2238 -0.1099
 4274TIP3    H234238   3.668   4.376   2.131  0.3133  0.8723 -0.2975
 4275TIP3   OH234239   5.124   5.144   2.272 -0.3205  0.1819  0.4528
 4275TIP3    H134240   5.218   5.127   2.279 -0.3541 -0.1204  0.1516
 4275TIP3    H234241   5.083   5.077   2.326 -0.4268 -0.4130 -0.3625
 4276TIP3   OH234242   0.154   5.806  11.492 -0.5338 -0.2130 -0.1130
 4276TIP3    H134243   0.096   5.877  11.519  1.8443  1.8888 -0.2461
 4276TIP3    H234244   0.143   5.800  11.397 -0.2187  0.4670 -0.1924
 4277TIP3   OH234245   5.902   4.622   6.300  0.0642  0.0805  0.5415
 4277TIP3    H134246   5.895   4.649   6.208 -2.1544 -0.8523  0.3640
 4277TIP3    H234247   5.828   4.563   6.313  1.0015 -0.7190  2.6455
 4278TIP3   OH234248   5.987   6.007   0.634  0.2154 -0.0278 -0.0015
 4278TIP3    H134249   6.018   5.917   0.622  0.3451  0.3072 -2.8308
 4278TIP3    H234250   5.918   6.000   0.700 -0.5834 -2.4286 -0.9658
 4279TIP3   OH234251   1.630   1.783   1.845 -0.0519 -0.6715  0.3590
 4279TIP3    H134252   1.565   1.852   1.857 -0.9964 -1.0839 -1.8735
 4279TIP3    H234253   1.702   1.807   1.904 -0.2261  2.3477 -0.4896
 4280TIP3   OH234254   5.723   1.963  16.294 -0.0477 -0.5031  0.2812
 4280TIP3    H134255   5.688   1.885  16.337 -1.4307 -0.2944 -0.3833
 4280TIP3    H234256   5.722   1.941  16.201 -1.1051  0.5088  0.0225
 4281TIP3   OH234257   3.239   4.807  16.272 -0.5288 -0.0188 -0.2681
 4281TIP3    H134258   3.251   4.719  16.236  1.2607 -0.1768  0.5995
 4281TIP3    H234259   3.291   4.864  16.214  1.1167 -0.0621  1.0713
 4282TIP3   OH234260   6.474   3.571   5.161 -0.2316 -0.5224 -0.5396
 4282TIP3    H134261   6.443   3.569   5.252  0.0424 -2.4534 -0.4429
 4282TIP3    H234262   6.480   3.664   5.139  0.8967  0.0369  1.8351
 4283TIP3   OH234263   1.867   2.856   3.746  0.7329  0.1062  0.4006
 4283TIP3    H134264   1.924   2.864   3.669  0.0261  2.1050  0.0223
 4283TIP3    H234265   1.920   2.890   3.818 -0.4382  3.9142 -0.2763
 4284TIP3   OH234266   4.028   3.053  16.324 -0.4800 -0.5501 -0.7838
 4284TIP3    H134267   3.952   3.106  16.349 -0.8894 -0.1277 -2.7476
 4284TIP3    H234268   4.066   3.099  16.249  1.4785 -0.9949 -0.1259
 4285TIP3   OH234269   5.674   5.570  15.938  0.6339  0.7030  0.1604
 4285TIP3    H134270   5.604   5.635  15.936 -0.3662 -0.3604 -0.8810
 4285TIP3    H234271   5.748   5.615  15.981  0.1491  2.6617 -0.9585
 4286TIP3   OH234272   6.256   6.633  13.456  0.0380  0.2333  0.4456
 4286TIP3    H134273   6.346   6.606  13.477 -0.3936 -1.0331  0.7281
 4286TIP3    H234274   6.261   6.729  13.451  1.0693  0.2972  2.0444
 4287TIP3   OH234275   0.622   5.038   2.625  0.1369  0.2972 -0.1074
 4287TIP3    H134276   0.711   5.006   2.635  0.2895  0.6107 -0.4533
 4287TIP3    H234277   0.632   5.130   2.602 -0.2810  0.3859  0.0569
 4288TIP3   OH234278   6.468   1.667  16.661  0.1409  0.4490  0.6259
 4288TIP3    H134279   6.442   1.723  16.733 -1.0294 -0.8917  1.2869
 4288TIP3    H234280   6.486   1.582  16.701 -0.7168 -0.3802 -0.6512
 4289TIP3   OH234281   4.918   2.107   0.799  0.0431  0.3780 -0.2165
 4289TIP3    H134282   4.833   2.127   0.839 -0.4146 -0.5967 -0.6783
 4289TIP3    H234283   4.906   2.022   0.758  1.9472 -0.8825  1.6720
 4290TIP3   OH234284   3.951   0.745  15.147 -0.8215  0.5654 -0.1352
 4290TIP3    H134285   3.999   0.667  15.120 -0.2503  1.1612 -0.8692
 4290TIP3    H234286   4.017   0.813  15.157 -1.0227  0.4785  2.5614
 4291TIP3   OH234287   3.495   2.303  14.273  0.4756  0.6711 -0.2484
 4291TIP3    H134288   3.571   2.291  14.331 -1.1888 -0.9191  1.7565
 4291TIP3    H234289   3.533   2.318  14.187  3.1300 -2.6368  0.1392
 4292TIP3   OH234290   2.487   0.417  12.971  0.0113  0.2676 -0.2439
 4292TIP3    H134291   2.447   0.332  12.952  0.1987  0.2072 -0.3706
 4292TIP3    H234292   2.541   0.435  12.895  0.1809  0.3768 -0.0969
 4293TIP3   OH234293   2.647   5.728   1.364  0.0724  0.1601  0.1474
 4293TIP3    H134294   2.601   5.688   1.290 -0.7762  0.7755  0.3376
 4293TIP3    H234295   2.664   5.655   1.424 -2.2084  0.1580  0.8818
 4294TIP3   OH234296   3.744   5.279   1.646  0.0893 -0.2316  0.4726
 4294TIP3    H134297   3.760   5.366   1.610  0.0969 -1.2386 -2.1878
 4294TIP3    H234298   3.678   5.292   1.714 -1.0811  1.6598 -0.9418
 4295TIP3   OH234299   3.383   3.162  12.697 -0.1952 -0.5843 -0.6664
 4295TIP3    H134300   3.420   3.242  12.736 -1.9745 -0.8946  1.8736
 4295TIP3    H234301   3.452   3.131  12.637  1.4748  1.5990 -0.0171
 4296TIP3   OH234302   0.861   0.441  13.714 -0.3219  0.1608  0.0984
 4296TIP3    H134303   0.952   0.418  13.694 -0.8033 -0.2934 -1.7697
 4296TIP3    H234304   0.828   0.483  13.635 -2.1871 -1.0905  0.1226
 4297TIP3   OH234305   5.861   1.261  12.657 -0.7892 -0.4768  0.0612
 4297TIP3    H134306   5.944   1.237  12.615 -0.3853  0.1788  0.4578
 4297TIP3    H234307   5.803   1.285  12.585 -0.2663  0.1457 -0.1649
 4298TIP3   OH234308   4.724   4.842   2.028 -0.6518  0.3378 -0.0071
 4298TIP3    H134309   4.727   4.747   2.018 -0.8752  0.4937 -1.9657
 4298TIP3    H234310   4.630   4.863   2.031 -0.6124  0.4518  1.4262
 4299TIP3   OH234311   4.439   5.640  13.774 -0.4614  0.2649  0.4238
 4299TIP3    H134312   4.370   5.632  13.708  1.2197  0.0088 -1.4054
 4299TIP3    H234313   4.436   5.557  13.821 -0.3234 -0.4461 -0.7725
 4300TIP3   OH234314   0.505   5.258   5.941 -0.3337 -0.5381 -0.3645
 4300TIP3    H134315   0.518   5.164   5.929  0.1890 -0.3414 -1.5045
 4300TIP3    H234316   0.486   5.268   6.034 -1.1857 -1.8570 -0.3617
 4301TIP3   OH234317   6.393   2.818   3.752 -0.1134  0.1328  0.6333
 4301TIP3    H134318   6.478   2.837   3.790 -0.8292  0.8261  1.9680
 4301TIP3    H234319   6.378   2.725   3.770  1.6211 -0.8217 -2.2814
 4302TIP3   OH234320   6.056   3.194   2.717 -0.3827 -0.1043  0.2774
 4302TIP3    H134321   6.041   3.118   2.661  1.8687 -1.2096  1.0680
 4302TIP3    H234322   6.051   3.160   2.806 -0.1563  0.8552  0.6713
 4303TIP3   OH234323   6.356   2.225   4.737  0.0103  0.2066  0.0607
 4303TIP3    H134324   6.397   2.140   4.757  0.0114  0.0642 -0.5235
 4303TIP3    H234325   6.360   2.273   4.819  0.8105 -0.0329  0.1720
 4304TIP3   OH234326   4.711   3.472  15.215  0.3402  0.2816 -0.4745
 4304TIP3    H134327   4.777   3.458  15.283 -1.8288  0.8285  1.8593
 4304TIP3    H234328   4.674   3.558  15.234 -0.2210  0.5554 -2.5175
 4305TIP3   OH234329   3.668   1.921   1.503 -0.0109  0.3100  0.2901
 4305TIP3    H134330   3.668   1.906   1.408  0.3038  0.5217  0.2579
 4305TIP3    H234331   3.730   1.993   1.517 -0.6579  0.8197  0.5745
 4306TIP3   OH234332   0.143   2.256  16.013  0.0856  0.3454  0.2274
 4306TIP3    H134333   0.086   2.285  16.084 -0.2427  0.4060 -0.0581
 4306TIP3    H234334   0.091   2.270  15.933  0.5248  0.4761 -0.0402
 4307TIP3   OH234335   0.146   3.442   0.884 -0.4225 -0.0181 -0.8203
 4307TIP3    H134336   0.191   3.360   0.906 -1.2584  0.0806  1.5503
 4307TIP3    H234337   0.056   3.428   0.912 -0.2539  2.1840  1.1371
 4308TIP3   OH234338   5.413   0.174  15.963  0.1918  0.2229 -0.2009
 4308TIP3    H134339   5.328   0.192  16.002  0.4072  1.0052 -0.0768
 4308TIP3    H234340   5.400   0.188  15.869 -0.1604 -1.0164 -0.3483
 4309TIP3   OH234341   5.156   3.343  11.461 -0.1316 -0.0091  0.1691
 4309TIP3    H134342   5.060   3.339  11.464 -0.2561 -0.8512 -2.4027
 4309TIP3    H234343   5.175   3.410  11.396  0.9891 -0.8221 -0.3564
 4310TIP3   OH234344   1.891   5.674  15.708  0.0721 -0.3823 -0.3242
 4310TIP3    H134345   1.811   5.727  15.701 -0.3284 -1.0711 -1.2821
 4310TIP3    H234346   1.889   5.640  15.797 -0.6903 -0.3591 -0.3248
 4311TIP3   OH234347   0.964   6.003  14.408  0.5259  0.0209 -0.0676
 4311TIP3    H134348   1.043   5.949  14.402  0.3128 -0.3256  0.2119
 4311TIP3    H234349   0.939   6.019  14.317 -0.2174 -1.5444 -0.1686
 4312TIP3   OH234350   2.114   1.037  14.269  0.5298  0.4345 -0.5087
 4312TIP3    H134351   2.180   1.066  14.205  1.5360 -0.3178  0.1574
 4312TIP3    H234352   2.127   1.095  14.344  0.6544  0.0675 -0.2471
 4313TIP3   OH234353   5.391   0.921   0.902 -0.0041  0.1898  0.0290
 4313TIP3    H134354   5.326   0.877   0.956 -1.3684 -0.6031 -2.1598
 4313TIP3    H234355   5.369   1.014   0.909 -1.2298 -0.0495 -0.4721
 4314TIP3   OH234356   1.729   5.994  14.879  0.1835  0.0898 -0.7345
 4314TIP3    H134357   1.799   6.024  14.938 -1.0161  2.3668 -0.3856
 4314TIP3    H234358   1.661   6.061  14.885 -1.7949 -1.7151 -1.5579
 4315TIP3   OH234359   2.476   3.001  11.606 -0.0624  0.8474 -0.1716
 4315TIP3    H134360   2.546   2.940  11.626  0.2566  0.6358 -1.8647
 4315TIP3    H234361   2.496   3.079  11.658  0.3791  0.1151  0.7845
 4316TIP3   OH234362   2.784   5.970  14.705  0.3485  0.4135 -0.6463
 4316TIP3    H134363   2.822   5.883  14.692  1.0567  0.7406 -0.8429
 4316TIP3    H234364   2.720   5.980  14.635 -1.7103 -0.9834  0.9181
 4317TIP3   OH234365   6.230   1.917   4.561  0.4879 -0.1075  0.5932
 4317TIP3    H134366   6.167   1.952   4.623  0.1498 -1.4785  1.0635
 4317TIP3    H234367   6.198   1.829   4.541  2.5871 -1.1218  1.3748
 4318TIP3   OH234368   4.246   3.540  12.634 -0.0450 -0.0384 -0.0237
 4318TIP3    H134369   4.309   3.481  12.593 -0.2773 -3.1306  3.5400
 4318TIP3    H234370   4.279   3.551  12.723 -3.1971  0.3609  1.1977
 4319TIP3   OH234371   6.271   4.532   4.428 -0.0682 -0.3418 -0.1948
 4319TIP3    H134372   6.210   4.554   4.499  1.2635  1.1000  0.5738
 4319TIP3    H234373   6.231   4.571   4.350  0.0675  1.0283  0.3874
 4320TIP3   OH234374   2.469   2.943   3.584 -0.1742  0.3532  0.0776
 4320TIP3    H134375   2.563   2.951   3.594  0.2146  0.6014 -2.9504
 4320TIP3    H234376   2.443   3.023   3.538 -1.4511 -0.8497 -1.3732
 4321TIP3   OH234377   5.226   1.448  16.770  0.3909 -0.2245 -0.5862
 4321TIP3    H134378   5.281   1.518  16.738  4.0353 -2.5572 -0.0123
 4321TIP3    H234379   5.209   1.471  16.862 -1.2188  1.3499 -1.2174
 4322TIP3   OH234380   5.119   2.722   2.398  0.1950  0.0323  0.5503
 4322TIP3    H134381   5.059   2.650   2.417 -0.1223  0.3885  0.9225
 4322TIP3    H234382   5.084   2.761   2.318  1.1121 -1.0165 -0.3883
 4323TIP3   OH234383   5.179   5.047  14.487 -0.1750 -0.6040 -0.5793
 4323TIP3    H134384   5.215   5.082  14.406  0.5404 -1.6490 -0.7415
 4323TIP3    H234385   5.088   5.074  14.487  0.7571  3.2049  0.4352
 4324TIP3   OH234386   1.264   0.805  16.826 -0.4271 -0.2007  0.5774
 4324TIP3    H134387   1.268   0.827  16.920  1.4425  2.5563 -0.0345
 4324TIP3    H234388   1.354   0.782  16.803 -0.2429  1.8579 -1.0475
 4325TIP3   OH234389   0.949   5.043   5.017 -0.2159 -0.1679  0.1022
 4325TIP3    H134390   0.879   5.089   5.063  1.6221  4.0957 -0.8239
 4325TIP3    H234391   0.996   4.996   5.085 -2.2329 -0.7436  1.1740
 4326TIP3   OH234392   4.253   5.699   1.195  0.1495 -0.4455  0.1376
 4326TIP3    H134393   4.267   5.745   1.278 -0.8920  1.7599 -0.8264
 4326TIP3    H234394   4.326   5.728   1.140 -0.9970  0.7807 -0.7619
 4327TIP3   OH234395   2.540   0.931  16.941 -0.2683 -0.1363 -0.0657
 4327TIP3    H134396   2.555   0.879  16.862  2.3422  2.0366 -1.1265
 4327TIP3    H234397   2.452   0.967  16.930  0.0396  0.1227 -2.0119
 4328TIP3   OH234398   4.620   6.820  12.699 -0.5312  0.3420 -0.3889
 4328TIP3    H134399   4.629   6.902  12.749  0.2569  0.2268 -0.3187
 4328TIP3    H234400   4.558   6.768  12.749  1.3110 -0.3557  1.3174
 4329TIP3   OH234401   6.076   4.593   4.620  0.4744  0.0127 -0.7712
 4329TIP3    H134402   6.029   4.548   4.550  0.7083  0.6702 -1.3567
 4329TIP3    H234403   6.060   4.686   4.604  1.2157  0.2022 -0.4401
 4330TIP3   OH234404   5.744   6.431   2.157 -0.4107  0.0778 -0.4720
 4330TIP3    H134405   5.775   6.357   2.210 -1.2517  1.0915  1.5251
 4330TIP3    H234406   5.769   6.408   2.068 -0.1423 -2.3504  0.1542
 4331TIP3   OH234407   0.569   3.988   4.139 -0.2977 -0.1183 -0.1105
 4331TIP3    H134408   0.474   3.979   4.126 -0.3635  0.0356  0.2630
 4331TIP3    H234409   0.591   3.920   4.203 -0.3068  0.4337  0.4858
 4332TIP3   OH234410   0.262   0.881  13.779  0.0187  0.2068  0.0691
 4332TIP3    H134411   0.173   0.865  13.810 -1.1725  1.6350 -2.2831
 4332TIP3    H234412   0.291   0.797  13.745 -1.2571  0.1339 -0.9291
 4333TIP3   OH234413   4.460   6.619   4.027 -0.5199  0.6529 -0.2092
 4333TIP3    H134414   4.550   6.588   4.025 -0.6632  0.1277 -3.2174
 4333TIP3    H234415   4.448   6.662   3.943 -2.8025  1.5917  0.5299
 4334TIP3   OH234416   4.163   0.287  12.631 -0.5615  0.0366  0.1929
 4334TIP3    H134417   4.252   0.308  12.658 -0.5469  0.3060 -0.0559
 4334TIP3    H234418   4.109   0.313  12.706 -0.4297 -0.1536  0.3548
 4335TIP3   OH234419   3.224   5.151   0.728  0.1876 -0.5934 -0.0436
 4335TIP3    H134420   3.307   5.183   0.763  0.0337 -1.6191  1.3642
 4335TIP3    H234421   3.236   5.056   0.722 -1.0040 -0.8054  0.5980
 4336TIP3   OH234422   2.420   1.072   5.063 -0.3131  0.3268 -0.7390
 4336TIP3    H134423   2.512   1.098   5.066 -0.6105  1.4295 -0.9500
 4336TIP3    H234424   2.422   0.981   5.032  0.8276 -0.4210  1.2973
 4337TIP3   OH234425   5.247   6.754  15.594 -0.1049  0.1656 -0.3693
 4337TIP3    H134426   5.250   6.681  15.656 -2.6367  0.5637  0.3509
 4337TIP3    H234427   5.292   6.826  15.639 -1.1161  0.1802  0.6728
 4338TIP3   OH234428   4.595   1.744  11.336 -0.1656  0.4783 -0.4846
 4338TIP3    H134429   4.555   1.695  11.265 -0.9754  0.5649 -0.0960
 4338TIP3    H234430   4.690   1.737  11.321 -0.2561 -1.3460 -0.3233
 4339TIP3   OH234431   5.430   0.917   5.725  0.5933  0.5025 -0.1823
 4339TIP3    H134432   5.444   0.828   5.693 -0.9837 -0.2726  1.1639
 4339TIP3    H234433   5.374   0.907   5.802 -0.0779  2.6989 -0.3119
 4340TIP3   OH234434   2.434   2.139   3.594  0.2089 -0.6072 -0.3088
 4340TIP3    H134435   2.397   2.151   3.506 -0.5586  1.9015  0.2586
 4340TIP3    H234436   2.520   2.182   3.590  0.0286 -0.1831  0.2226
 4341TIP3   OH234437   0.879   2.413  13.514  0.6240  0.2299 -0.4169
 4341TIP3    H134438   0.901   2.473  13.585 -0.8101 -0.0465  0.2829
 4341TIP3    H234439   0.837   2.338  13.556 -0.3720  0.1157 -1.5399
 4342TIP3   OH234440   5.589   4.709   2.728  0.4385 -0.1073 -0.1467
 4342TIP3    H134441   5.630   4.700   2.815  0.9656  0.0362 -0.3755
 4342TIP3    H234442   5.529   4.635   2.723  2.0230 -1.4352 -0.5205
 4343TIP3   OH234443   2.105   2.627  12.966 -0.1110  0.4152  0.9595
 4343TIP3    H134444   2.158   2.549  12.979  1.1860  1.1085 -0.0207
 4343TIP3    H234445   2.109   2.674  13.050  2.1226  1.2159  0.4617
 4344TIP3   OH234446   3.891   3.820  13.269 -0.2924  0.1019  0.0339
 4344TIP3    H134447   3.979   3.782  13.277 -1.4954 -2.7130  1.3151
 4344TIP3    H234448   3.896   3.901  13.320  1.6539  0.2271 -0.2658
 4345TIP3   OH234449   0.674   0.992   1.992 -0.2508  0.9013  0.2033
 4345TIP3    H134450   0.686   0.916   2.049 -1.0844  1.3456  0.9906
 4345TIP3    H234451   0.590   0.978   1.949  1.1168 -0.3095 -2.3647
 4346TIP3   OH234452   0.409   4.719   3.417  0.0300  0.3886  0.3771
 4346TIP3    H134453   0.336   4.722   3.355  0.5983  0.4178 -0.3147
 4346TIP3    H234454   0.385   4.652   3.480  0.1655 -0.8691 -0.8466
 4347TIP3   OH234455   5.138   1.950  10.637 -0.2079 -0.5642 -0.4325
 4347TIP3    H134456   5.202   1.978  10.571 -0.0719  1.3499  0.4367
 4347TIP3    H234457   5.188   1.896  10.698  0.4481  0.3078 -0.1690
 4348TIP3   OH234458   5.003   5.912  12.804 -0.1544  0.7505 -0.0213
 4348TIP3    H134459   5.043   5.883  12.885  1.0612  0.1351 -0.8212
 4348TIP3    H234460   4.911   5.929  12.828  0.1894  0.6586  1.4757
 4349TIP3   OH234461   3.621   3.307   3.049 -0.0818 -0.6147  0.3979
 4349TIP3    H134462   3.634   3.213   3.054  2.1737 -0.2929  1.8317
 4349TIP3    H234463   3.708   3.344   3.060 -1.0360  1.6835  0.8077
 4350TIP3   OH234464   4.932   3.922   2.997 -0.2436 -0.5271  0.3446
 4350TIP3    H134465   4.924   3.948   3.089 -0.3518  2.7435 -0.4861
 4350TIP3    H234466   4.849   3.948   2.957  0.7122  0.3724 -1.1484
 4351TIP3   OH234467   5.427   2.114  15.107  0.7393 -0.6188  0.3233
 4351TIP3    H134468   5.452   2.134  15.198  0.7005  0.9473  0.0114
 4351TIP3    H234469   5.409   2.199  15.068  0.1446 -1.3282 -0.9948
 4352TIP3   OH234470   2.459   2.964  13.006 -0.0245 -0.1638 -0.1439
 4352TIP3    H134471   2.427   3.054  13.003  0.6206  0.0615 -0.5494
 4352TIP3    H234472   2.411   2.919  12.936 -2.6195 -0.9458  1.9784
 4353TIP3   OH234473   2.216   0.024  14.219  0.1319  0.8506 -0.8196
 4353TIP3    H134474   2.280   0.029  14.290  1.4928 -0.8165 -1.8473
 4353TIP3    H234475   2.138  -0.013  14.260 -0.2557  2.9566  0.4661
 4354TIP3   OH234476   3.072   4.952   5.216  0.2574 -0.0545  0.2003
 4354TIP3    H134477   3.014   5.022   5.186 -1.7828 -1.3286  0.9700
 4354TIP3    H234478   3.015   4.875   5.222  1.7667 -1.0923  2.1859
 4355TIP3   OH234479   3.609   2.576  16.570 -0.1711  0.1427 -0.4711
 4355TIP3    H134480   3.574   2.488  16.559 -0.0581  0.1871 -1.2018
 4355TIP3    H234481   3.695   2.562  16.610  0.2782 -0.1447 -1.5126
 4356TIP3   OH234482   1.509   2.380  14.044 -0.2289  0.6527 -0.1636
 4356TIP3    H134483   1.437   2.388  14.108 -1.2971 -1.7141 -0.9422
 4356TIP3    H234484   1.587   2.406  14.093 -0.9375 -1.3492  2.2839
 4357TIP3   OH234485   6.694   3.799  12.781 -0.0240  0.5048  0.4151
 4357TIP3    H134486   6.776   3.754  12.802  0.0669 -0.2656 -1.4092
 4357TIP3    H234487   6.720   3.883  12.744  0.1860 -0.8326 -2.8366
 4358TIP3   OH234488   6.011   2.264   1.958 -0.6898 -0.4467 -0.2053
 4358TIP3    H134489   5.928   2.302   1.985 -0.7021 -0.0928 -0.7404
 4358TIP3    H234490   5.986   2.188   1.906 -0.6699 -0.6917  0.1367
 4359TIP3   OH234491   0.607   1.178  11.538 -0.1650 -0.0019 -0.1086
 4359TIP3    H134492   0.611   1.084  11.552  0.3172 -0.0772 -0.7186
 4359TIP3    H234493   0.518   1.203  11.563 -0.6995 -0.8216 -1.1444
 4360TIP3   OH234494   5.901   4.298   5.049  0.3383  0.3632 -0.2706
 4360TIP3    H134495   5.815   4.326   5.018  0.2835  0.0861 -0.3706
 4360TIP3    H234496   5.923   4.361   5.117 -0.5024 -0.3044  0.6433
 4361TIP3   OH234497   6.631   6.656  16.867  0.5004  0.8513  0.9568
 4361TIP3    H134498   6.546   6.654  16.824 -0.2158 -1.1393  2.3446
 4361TIP3    H234499   6.615   6.702  16.950  1.2016  2.0013  0.4845
 4362TIP3   OH234500   0.793   0.041  16.743 -0.4354 -0.6865  0.1400
 4362TIP3    H134501   0.743   0.017  16.821 -2.4616  0.3790 -0.7482
 4362TIP3    H234502   0.726   0.055  16.675  1.2373 -1.3084 -1.7225
 4363TIP3   OH234503   3.443   0.843   4.806  0.2369  0.5708  0.6669
 4363TIP3    H134504   3.397   0.884   4.880 -1.0105 -0.4504  0.4883
 4363TIP3    H234505   3.517   0.798   4.846 -1.0249 -0.8747  1.4901
 4364TIP3   OH234506   0.255   1.416  10.419 -0.5066 -0.1370 -0.1981
 4364TIP3    H134507   0.342   1.386  10.444 -0.7242 -0.3120  0.3675
 4364TIP3    H234508   0.195   1.356  10.464 -0.9902  1.8163  1.9046
 4365TIP3   OH234509   6.504   1.533   3.040  0.0545  1.1436 -0.3662
 4365TIP3    H134510   6.421   1.490   3.061 -0.6629  1.1969 -2.8214
 4365TIP3    H234511   6.481   1.625   3.026  0.4209  1.0962 -1.3890
 4366TIP3   OH234512   6.484   5.466   5.859 -0.2520 -0.0355 -0.0989
 4366TIP3    H134513   6.495   5.503   5.947  2.2401  3.5407 -1.7203
 4366TIP3    H234514   6.567   5.422   5.840 -0.8738 -1.0321 -0.6239
 4367TIP3   OH234515   0.657   4.420   4.906  0.2537  0.1883 -0.1126
 4367TIP3    H134516   0.567   4.447   4.888  0.7567  1.4763 -0.7549
 4367TIP3    H234517   0.704   4.501   4.925  0.8761 -0.6170  2.2328
 4368TIP3   OH234518   6.348   6.713  15.570 -0.1383 -0.2544 -0.7024
 4368TIP3    H134519   6.344   6.623  15.537  0.7055 -0.2789 -0.7527
 4368TIP3    H234520   6.270   6.722  15.624 -0.2824 -0.9906 -0.7789
 4369TIP3   OH234521   5.322   1.038  10.766  0.5258  0.4165 -0.3024
 4369TIP3    H134522   5.239   1.010  10.804  0.7389  0.0955 -0.0687
 4369TIP3    H234523   5.374   1.066  10.841  0.7408  0.3228 -0.4175
 4370TIP3   OH234524   0.176   5.671  10.317 -0.1725 -0.5160 -0.0508
 4370TIP3    H134525   0.171   5.591  10.265 -0.0371 -0.1520 -0.6313
 4370TIP3    H234526   0.084   5.695  10.333 -0.2148 -1.0007  0.4705
 4371TIP3   OH234527   3.045   0.930   5.066 -0.1167 -0.3480  0.2939
 4371TIP3    H134528   3.133   0.966   5.073  0.2274 -0.6794 -1.6774
 4371TIP3    H234529   3.021   0.907   5.156  0.1501  3.4629  1.5436
 4372TIP3   OH234530   0.033   5.192   4.877 -0.6064 -0.3039  0.3708
 4372TIP3    H134531  -0.026   5.122   4.849 -1.4128 -0.1113  1.5337
 4372TIP3    H234532  -0.023   5.254   4.923  0.1749  0.9057 -0.2578
 4373TIP3   OH234533   1.901   1.285  10.827 -0.9325  0.4085 -0.2214
 4373TIP3    H134534   1.811   1.253  10.834 -1.2372  1.1398 -0.6575
 4373TIP3    H234535   1.894   1.366  10.777  0.1095 -0.1310 -1.2850
 4374TIP3   OH234536   6.607   2.814  10.731  0.2311 -0.1226 -0.2469
 4374TIP3    H134537   6.620   2.904  10.702  0.0930  0.0481  0.2173
 4374TIP3    H234538   6.605   2.819  10.827  0.6673 -0.6802 -0.2043
 4375TIP3   OH234539   0.585   5.784   1.089  0.0143 -0.6245  0.4387
 4375TIP3    H134540   0.666   5.835   1.095  0.5859 -1.4357 -0.1033
 4375TIP3    H234541   0.614   5.696   1.066 -0.9364 -1.2587  1.5865
 4376TIP3   OH234542   1.559   6.040   5.334 -0.2210 -0.2122  0.1430
 4376TIP3    H134543   1.529   6.064   5.422  0.9982 -0.4068  0.6272
 4376TIP3    H234544   1.617   6.112   5.308 -0.7263 -0.0535 -0.6056
 4377TIP3   OH234545   0.734   3.333   0.053 -0.0450 -0.3693 -0.0876
 4377TIP3    H134546   0.718   3.243   0.080 -0.9933  0.3600  2.0065
 4377TIP3    H234547   0.813   3.359   0.100  0.6842 -0.3094 -1.2926
 4378TIP3   OH234548   5.975   0.197   1.600 -0.0840  0.4973  0.2703
 4378TIP3    H134549   5.985   0.136   1.526 -1.3402 -0.5875  0.9519
 4378TIP3    H234550   6.063   0.202   1.638  0.0167 -1.1199  0.3423
 4379TIP3   OH234551   3.299   0.967  10.467 -0.2459  0.6659 -0.1399
 4379TIP3    H134552   3.330   0.920  10.545 -1.2495 -0.7889 -0.5729
 4379TIP3    H234553   3.372   0.960  10.405 -0.0614  0.4099  0.1029
 4380TIP3   OH234554   2.463   1.377   5.193  0.0554 -0.4360 -0.3108
 4380TIP3    H134555   2.519   1.454   5.198 -0.7166  0.0686  0.9660
 4380TIP3    H234556   2.475   1.344   5.104  1.7060  0.1536 -0.3290
 4381TIP3   OH234557   6.551   4.093   0.044 -0.0193 -0.2564 -0.2050
 4381TIP3    H134558   6.610   4.167   0.059  0.0809  0.2932 -2.7974
 4381TIP3    H234559   6.607   4.024   0.009 -0.3872 -0.9945  0.6199
 4382TIP3   OH234560   6.249   5.927  16.266  0.2197  0.4563 -0.2551
 4382TIP3    H134561   6.228   5.999  16.207 -0.8399  0.3632 -0.0060
 4382TIP3    H234562   6.236   5.848  16.213 -3.7160  0.1902  0.8401
 4383TIP3   OH234563   3.023   1.875  12.361  0.2775  0.3482  0.2957
 4383TIP3    H134564   2.975   1.804  12.319 -0.9448  0.7484  0.9762
 4383TIP3    H234565   2.967   1.903  12.433  1.4102  1.0293  0.9510
 4384TIP3   OH234566   1.583   4.301  12.617 -0.0276  0.4453  0.3313
 4384TIP3    H134567   1.504   4.247  12.619 -1.8968  2.9624 -0.2274
 4384TIP3    H234568   1.643   4.258  12.678 -1.3009 -2.2674 -0.1711
 4385TIP3   OH234569   3.248   5.502   2.562 -0.3451  0.0902  0.2905
 4385TIP3    H134570   3.341   5.511   2.582 -0.3248  0.1947  0.1447
 4385TIP3    H234571   3.245   5.466   2.473 -0.4621  2.6204 -0.8061
 4386TIP3   OH234572   0.388   4.869  12.281 -0.3081 -0.3315 -0.4981
 4386TIP3    H134573   0.426   4.925  12.214  0.5782 -0.2410  0.0609
 4386TIP3    H234574   0.295   4.864  12.259 -0.2387  0.6313 -1.0622
 4387TIP3   OH234575   3.613   4.525  12.187  0.7304 -0.4612 -0.4630
 4387TIP3    H134576   3.619   4.487  12.100  0.4241 -0.9117 -0.2910
 4387TIP3    H234577   3.624   4.619  12.174 -0.0336 -0.4522 -1.0662
 4388TIP3   OH234578   5.665   1.827   5.818 -0.1454 -0.4926  0.0586
 4388TIP3    H134579   5.736   1.878   5.856  0.0581  0.7130 -1.8583
 4388TIP3    H234580   5.589   1.846   5.874 -0.0568  1.8858 -0.5335
 4389TIP3   OH234581   3.472   2.653   3.482  0.0270  0.2619  0.0700
 4389TIP3    H134582   3.461   2.563   3.449 -1.6296  0.8645 -1.1305
 4389TIP3    H234583   3.481   2.706   3.403 -0.6109  1.3503  0.7172
 4390TIP3   OH234584   4.178   5.354  13.689 -0.4602 -0.1888 -0.2744
 4390TIP3    H134585   4.182   5.442  13.652 -1.3314  0.2037  0.5264
 4390TIP3    H234586   4.134   5.301  13.622 -0.4036  0.1021 -0.5414
 4391TIP3   OH234587   6.333   1.714  15.602 -0.1277 -0.1942 -0.1079
 4391TIP3    H134588   6.391   1.732  15.528  0.8020  1.7126  1.0194
 4391TIP3    H234589   6.390   1.676  15.669 -0.9457 -1.8297 -0.2762
 4392TIP3   OH234590   4.784   3.302   2.133 -0.4065 -0.2841 -0.7925
 4392TIP3    H134591   4.766   3.315   2.040 -0.1878 -0.2770 -0.8356
 4392TIP3    H234592   4.877   3.323   2.142 -0.1440 -1.4035 -0.7899
 4393TIP3   OH234593   0.849   2.891   1.181  0.4882 -0.1094 -0.0130
 4393TIP3    H134594   0.775   2.838   1.151  1.0618 -1.2016  0.4443
 4393TIP3    H234595   0.871   2.946   1.106 -0.8582  0.3341 -0.1102
 4394TIP3   OH234596   0.229   2.153  13.651  0.5569 -0.3428  0.2816
 4394TIP3    H134597   0.258   2.072  13.607  0.7431 -0.7685  1.1675
 4394TIP3    H234598   0.226   2.218  13.581  0.3109 -1.1410 -0.4731
 4395TIP3   OH234599   6.359   2.762   0.575  0.3231  0.4383 -0.4467
 4395TIP3    H134600   6.366   2.704   0.651  1.1394 -2.2888 -2.4231
 4395TIP3    H234601   6.365   2.850   0.611  1.9650 -0.7488  2.5254
 4396TIP3   OH234602   4.048   1.297   1.490 -0.1436 -0.1722 -0.4839
 4396TIP3    H134603   4.037   1.330   1.579 -0.0470 -1.2341 -0.0688
 4396TIP3    H234604   3.977   1.234   1.478  1.1971 -1.7851 -0.2975
 4397TIP3   OH234605   5.646   3.982  11.591  0.4286 -0.1144 -0.3842
 4397TIP3    H134606   5.733   3.997  11.626  0.9091 -2.6336 -0.2784
 4397TIP3    H234607   5.587   3.989  11.666  0.7420  0.0749 -0.1576
 4398TIP3   OH234608   4.172   4.677  15.872 -0.0013 -0.1880 -0.1516
 4398TIP3    H134609   4.178   4.737  15.798 -0.9416 -0.5961 -0.5789
 4398TIP3    H234610   4.172   4.734  15.949  1.6053  0.2045 -0.4129
 4399TIP3   OH234611   5.493   0.999  12.925  0.1377  0.0615 -0.7061
 4399TIP3    H134612   5.403   1.005  12.958 -0.1358  0.4808 -1.5066
 4399TIP3    H234613   5.512   1.087  12.894  0.8620 -0.0104 -0.4706
 4400TIP3   OH234614   2.525   6.643  16.203 -0.1711  0.3511 -0.4073
 4400TIP3    H134615   2.434   6.671  16.191 -0.1036  0.3587 -0.9275
 4400TIP3    H234616   2.567   6.716  16.249 -0.9647 -0.5737  1.9143
 4401TIP3   OH234617   6.766   2.689  14.322 -0.4057  0.6676  0.2813
 4401TIP3    H134618   6.694   2.674  14.262 -0.3583 -1.3666  0.6528
 4401TIP3    H234619   6.833   2.733  14.269 -1.3559  1.2900 -0.4293
 4402TIP3   OH234620   5.316   0.511  15.815 -0.0153  0.0043  0.2370
 4402TIP3    H134621   5.225   0.483  15.830 -0.1833  0.8228  0.8061
 4402TIP3    H234622   5.333   0.487  15.724 -0.3159 -1.4624  0.5397
 4403TIP3   OH234623   3.534   5.490  12.823  0.0830 -0.7260  0.2554
 4403TIP3    H134624   3.605   5.552  12.805 -1.2616  0.4670 -1.3484
 4403TIP3    H234625   3.488   5.527  12.899  1.6217 -1.9818  1.8822
 4404TIP3   OH234626   5.552   2.081   0.269  0.1586  0.1381  0.1829
 4404TIP3    H134627   5.580   2.151   0.329  1.0546 -0.3930  0.4015
 4404TIP3    H234628   5.588   2.107   0.184 -0.7738  0.6868 -0.0612
 4405TIP3   OH234629   2.902   6.425  14.417  0.0474  0.6485 -0.3146
 4405TIP3    H134630   2.900   6.521  14.424 -0.9154  0.7210 -1.3137
 4405TIP3    H234631   2.810   6.401  14.405  0.1532 -0.5016  0.9940
 4406TIP3   OH234632   0.954   3.371  10.559  0.4336 -0.0927  0.2787
 4406TIP3    H134633   0.988   3.393  10.472  2.6320  0.8885  1.3157
 4406TIP3    H234634   1.015   3.306  10.593 -1.5127 -1.9561  0.3961
 4407TIP3   OH234635   1.151   4.712  14.428 -0.3046 -0.1077  0.1134
 4407TIP3    H134636   1.177   4.710  14.336 -1.4702  2.2597 -0.3485
 4407TIP3    H234637   1.191   4.634  14.466  0.8604 -0.7346 -2.2119
 4408TIP3   OH234638   0.878   4.161   5.346 -0.8145  0.3637 -0.0086
 4408TIP3    H134639   0.838   4.230   5.294  0.0925 -0.6429 -2.1595
 4408TIP3    H234640   0.940   4.118   5.286  0.8504 -0.4017  2.1177
 4409TIP3   OH234641   1.723   3.657  15.563 -0.1177  0.2510 -0.3583
 4409TIP3    H134642   1.815   3.632  15.571  0.4137  2.3743  0.7895
 4409TIP3    H234643   1.719   3.708  15.482 -0.7547 -1.5580 -1.5225
 4410TIP3   OH234644   3.594   2.654   5.173  0.4090  0.1986  0.0136
 4410TIP3    H134645   3.681   2.693   5.164  0.7149 -0.4608  0.0507
 4410TIP3    H234646   3.604   2.586   5.240 -0.1575  0.1808  0.0914
 4411TIP3   OH234647   5.897   2.948   5.168 -0.0981 -0.7237 -0.1529
 4411TIP3    H134648   5.826   2.912   5.221 -0.7411 -1.3841 -1.4103
 4411TIP3    H234649   5.856   3.017   5.115  0.6704  0.3838  0.6550
 4412TIP3   OH234650   1.185   0.572   2.528  0.2249  0.0102 -0.3896
 4412TIP3    H134651   1.208   0.659   2.562 -1.2275  1.1543 -2.1422
 4412TIP3    H234652   1.101   0.553   2.568  0.4027 -0.4754 -0.2427
 4413TIP3   OH234653   1.018   1.717  13.482 -0.0584  0.3732 -0.2067
 4413TIP3    H134654   1.057   1.694  13.397  2.3055  1.5595  0.4545
 4413TIP3    H234655   1.018   1.813  13.482  0.4748  0.3956  1.3034
 4414TIP3   OH234656   1.130   0.126   6.180 -0.4663 -0.1363 -0.0886
 4414TIP3    H134657   1.147   0.180   6.256  0.0526 -0.1667 -0.1765
 4414TIP3    H234658   1.038   0.141   6.159 -0.0226  1.7459 -0.9110
 4415TIP3   OH234659   0.632   5.003   0.931  0.3485 -0.6761 -0.1283
 4415TIP3    H134660   0.621   5.084   0.981 -0.0296 -0.2639 -0.8714
 4415TIP3    H234661   0.725   4.982   0.939 -0.1690 -2.5804  3.7352
 4416TIP3   OH234662   2.829   4.548   5.515 -0.4300  0.0665  0.4605
 4416TIP3    H134663   2.792   4.623   5.561 -0.0300 -0.6580  2.0114
 4416TIP3    H234664   2.792   4.472   5.558  0.2835 -0.6495 -0.1456
 4417TIP3   OH234665   2.546   6.734  14.129 -0.2237  0.3458  0.3092
 4417TIP3    H134666   2.521   6.824  14.148 -1.1974  0.7628 -2.4663
 4417TIP3    H234667   2.463   6.688  14.115  0.3089 -0.2884 -0.9754
 4418TIP3   OH234668   2.040   3.138  11.158  0.3518  0.4332 -0.1551
 4418TIP3    H134669   1.958   3.093  11.135  0.9651  0.4870 -2.6969
 4418TIP3    H234670   2.107   3.070  11.154  0.6677  0.6914  0.4909
 4419TIP3   OH234671   6.265   4.005  12.423  0.3072  0.3672  0.0040
 4419TIP3    H134672   6.348   3.998  12.470 -0.7318 -1.0742  1.7802
 4419TIP3    H234673   6.284   3.975  12.335  1.1730 -2.7042  1.1167
 4420TIP3   OH234674   5.184   4.420  14.954 -0.0815 -0.1605 -1.1116
 4420TIP3    H134675   5.181   4.367  14.874  1.9353 -2.5550  0.2888
 4420TIP3    H234676   5.277   4.440  14.966 -0.2293 -0.5842  1.0660
 4421TIP3   OH234677   4.882   1.399   4.847  0.1383  0.0297 -0.5472
 4421TIP3    H134678   4.929   1.317   4.858 -0.0939 -0.1208 -0.6600
 4421TIP3    H234679   4.874   1.410   4.752  1.3017  0.8427 -0.5749
 4422TIP3   OH234680   5.143   0.478   1.253 -0.2818 -1.0065  0.0904
 4422TIP3    H134681   5.083   0.451   1.323 -2.3563  0.9190 -0.8208
 4422TIP3    H234682   5.168   0.567   1.277 -0.5425 -0.5455 -1.2943
 4423TIP3   OH234683   1.228   5.630   5.406  0.1986  1.2455 -0.3867
 4423TIP3    H134684   1.214   5.713   5.452 -0.6822  1.3551 -0.8431
 4423TIP3    H234685   1.234   5.655   5.313  1.1499  0.9336 -0.4205
 4424TIP3   OH234686   6.322   0.877   3.564  0.2725 -0.6620  0.5126
 4424TIP3    H134687   6.404   0.850   3.523 -0.9047 -1.4022 -1.4791
 4424TIP3    H234688   6.343   0.961   3.606  1.2008  1.1107 -3.1131
 4425TIP3   OH234689   4.912   6.381   4.464  0.0315 -0.2285 -0.1147
 4425TIP3    H134690   4.865   6.367   4.547 -1.2078 -2.3740 -1.0915
 4425TIP3    H234691   4.852   6.433   4.411  0.5318  0.5507  0.0733
 4426TIP3   OH234692   2.942   2.782   0.502  0.0994  0.1595  0.4738
 4426TIP3    H134693   2.879   2.850   0.476  0.9600  0.8838  0.2500
 4426TIP3    H234694   3.027   2.826   0.502  0.9082 -1.3054 -1.1638
 4427TIP3   OH234695   2.442   6.414  10.877  0.6338 -0.8179 -0.2546
 4427TIP3    H134696   2.432   6.384  10.787 -1.3355  0.6033 -0.5639
 4427TIP3    H234697   2.466   6.507  10.869  0.1284 -0.5939  0.6745
 4428TIP3   OH234698   5.150   3.126  12.996  0.7962 -0.1476  0.1330
 4428TIP3    H134699   5.089   3.194  13.025  0.7282 -0.5069  0.8432
 4428TIP3    H234700   5.099   3.045  12.996  0.4422 -0.0054 -2.1761
 4429TIP3   OH234701   0.204   0.187   5.089 -0.0172 -0.4408  0.0490
 4429TIP3    H134702   0.141   0.160   5.155 -1.0703 -1.2537 -1.2333
 4429TIP3    H234703   0.259   0.110   5.076  0.8358  0.0453  0.6749
 4430TIP3   OH234704   0.214   0.145   5.660 -0.9410  0.1931 -0.3949
 4430TIP3    H134705   0.168   0.229   5.655 -1.8839 -0.1659  1.4282
 4430TIP3    H234706   0.303   0.167   5.688 -0.6144  0.6938 -1.7221
 4431TIP3   OH234707   0.543   4.045  13.801  0.1777  0.4656  0.9141
 4431TIP3    H134708   0.496   3.991  13.738  1.2651 -0.6036  0.9689
 4431TIP3    H234709   0.479   4.108  13.832 -0.6605  0.3350 -0.4787
 4432TIP3   OH234710   5.164   6.142  11.951  0.0787  0.0175 -0.2746
 4432TIP3    H134711   5.084   6.185  11.921 -0.7487 -0.0962  1.6115
 4432TIP3    H234712   5.187   6.190  12.031  2.8990  1.1665 -1.6300
 4433TIP3   OH234713   4.124   4.316  12.742  0.0034 -0.0763  0.0712
 4433TIP3    H134714   4.068   4.393  12.749 -0.3244 -0.4300  1.8370
 4433TIP3    H234715   4.063   4.242  12.738  0.2672 -0.5095  2.6351
 4434TIP3   OH234716   6.784   3.988   3.314  0.1861  1.0629 -0.1172
 4434TIP3    H134717   6.784   3.982   3.410 -0.4813 -0.0506 -0.1654
 4434TIP3    H234718   6.870   4.024   3.292  0.6154  0.6700  0.8638
 4435TIP3   OH234719   2.423   6.414   1.009  0.2154  0.8292  0.2291
 4435TIP3    H134720   2.426   6.374   1.096  1.0163  0.5386  0.0811
 4435TIP3    H234721   2.350   6.370   0.965  0.1945  0.5385  0.5496
 4436TIP3   OH234722   6.289   2.405  15.264 -0.2159  0.1738  0.1461
 4436TIP3    H134723   6.314   2.466  15.195  1.2760  1.5893  1.8170
 4436TIP3    H234724   6.205   2.439  15.296 -0.5217 -0.0245 -0.4304
 4437TIP3   OH234725   1.715   4.596  12.359  0.1400 -0.4073  0.1876
 4437TIP3    H134726   1.631   4.549  12.358  0.2279 -0.5886  0.8746
 4437TIP3    H234727   1.744   4.594  12.268 -1.2449  0.8412 -0.3236
 4438TIP3   OH234728   1.661   2.160   1.022  0.3262  0.0156 -0.1658
 4438TIP3    H134729   1.580   2.189   0.979 -1.0489  2.0118  3.3033
 4438TIP3    H234730   1.661   2.206   1.106  4.0470 -1.5817  0.9263
 4439TIP3   OH234731   0.068   3.105   2.319  0.1130  0.0082 -0.5811
 4439TIP3    H134732   0.111   3.184   2.351 -0.7185  0.6787 -1.0512
 4439TIP3    H234733   0.047   3.125   2.227 -1.1350 -0.3050 -0.3818
 4440TIP3   OH234734   2.304   4.103   4.857  0.1940  0.7998  0.6588
 4440TIP3    H134735   2.255   4.023   4.837  1.4505  0.4824 -1.4889
 4440TIP3    H234736   2.317   4.100   4.952  3.4073 -3.6257  0.3937
 4441TIP3   OH234737   2.356   1.187  16.617 -0.4048  0.4930 -0.0769
 4441TIP3    H134738   2.343   1.245  16.692  2.7171  1.5700 -0.2314
 4441TIP3    H234739   2.330   1.101  16.648 -0.3374  1.1255  1.8500
 4442TIP3   OH234740   1.872   5.777  14.697  0.3331 -0.4251 -0.3468
 4442TIP3    H134741   1.934   5.850  14.706  0.8151 -0.6268 -1.7357
 4442TIP3    H234742   1.853   5.773  14.604 -2.3284  0.0303  0.1233
 4443TIP3   OH234743   2.562   4.216   2.334 -0.3844 -0.2027 -0.2799
 4443TIP3    H134744   2.628   4.230   2.403  0.8849 -0.9904 -1.2826
 4443TIP3    H234745   2.589   4.275   2.263 -1.1313 -0.0867 -0.4765
 4444TIP3   OH234746   3.846   2.341   0.027 -0.0288  0.4390 -0.9018
 4444TIP3    H134747   3.773   2.279   0.023  1.1517 -1.0228 -0.7682
 4444TIP3    H234748   3.916   2.292   0.071  1.8981  0.8775 -3.2864
 4445TIP3   OH234749   3.423   6.646   6.449 -0.3797 -0.5593  0.2975
 4445TIP3    H134750   3.512   6.647   6.414  0.1138  0.8056  1.5058
 4445TIP3    H234751   3.403   6.739   6.465 -1.4948 -0.9622  1.3302
 4446TIP3   OH234752   5.850   3.141  12.270  0.0655 -0.1497  0.0627
 4446TIP3    H134753   5.884   3.212  12.216 -1.0937 -0.4610 -1.1468
 4446TIP3    H234754   5.852   3.064  12.213 -1.9567 -0.3128  0.1238
 4447TIP3   OH234755   3.718   4.694  12.850  0.6241  0.2717  0.3197
 4447TIP3    H134756   3.671   4.741  12.919 -0.9848  0.1153 -0.6094
 4447TIP3    H234757   3.779   4.759  12.815  1.3060  0.4182  1.7056
 4448TIP3   OH234758   4.219   5.785  12.265  0.5564  0.3425  0.2687
 4448TIP3    H134759   4.201   5.769  12.173  1.6306  1.4127 -0.1520
 4448TIP3    H234760   4.314   5.792  12.270  0.5873 -0.6726  1.6388
 4449TIP3   OH234761   1.748   1.948  15.360 -0.2726  0.3742  0.2688
 4449TIP3    H134762   1.686   1.904  15.302  0.3287  0.7770 -0.7007
 4449TIP3    H234763   1.692   1.998  15.421 -0.9056  0.5095 -0.4041
 4450TIP3   OH234764   3.752   2.284  12.969  1.1992  0.1149 -0.1542
 4450TIP3    H134765   3.776   2.357  12.912  2.4922  0.0920  0.3391
 4450TIP3    H234766   3.777   2.313  13.057  1.2317 -0.7170  0.1153
 4451TIP3   OH234767   0.842   4.027   3.441  0.2380 -0.2009  0.6950
 4451TIP3    H134768   0.815   4.032   3.349  1.2146  0.9588  0.4511
 4451TIP3    H234769   0.866   3.935   3.453 -0.6303 -0.5380  0.0174
 4452TIP3   OH234770   1.193   5.196   5.446 -0.6521  0.2894  0.3617
 4452TIP3    H134771   1.210   5.226   5.535 -1.0920  2.0060 -0.1028
 4452TIP3    H234772   1.157   5.108   5.457  2.0852 -0.8098  1.7097
 4453TIP3   OH234773   4.159   2.231  12.579  0.5563  0.4398  0.0448
 4453TIP3    H134774   4.165   2.136  12.588 -1.1914  0.2691 -0.2627
 4453TIP3    H234775   4.239   2.256  12.533  0.3772 -1.0786 -1.1843
 4454TIP3   OH234776   6.663   4.993   0.857  0.4067 -0.2021 -0.0190
 4454TIP3    H134777   6.618   4.913   0.830  0.7712 -0.5600  0.4204
 4454TIP3    H234778   6.635   5.007   0.947  0.0348  0.3902 -0.2232
 4455TIP3   OH234779   4.013   5.234   5.575  0.4472 -0.0003 -0.2117
 4455TIP3    H134780   3.970   5.289   5.510  0.1224  1.2916  1.0406
 4455TIP3    H234781   3.953   5.231   5.649  0.4923 -2.0200 -0.1937
 4456TIP3   OH234782   2.606   0.489  16.264  0.4585  0.4305  0.3058
 4456TIP3    H134783   2.688   0.532  16.289  0.1580  0.8882  0.5038
 4456TIP3    H234784   2.634   0.403  16.232  0.8795 -0.1203  2.0472
 4457TIP3   OH234785   2.333   6.727   1.090 -0.0381 -0.1738  0.6544
 4457TIP3    H134786   2.336   6.823   1.088 -0.0629 -0.1556 -1.5968
 4457TIP3    H234787   2.424   6.700   1.087 -0.0602 -0.1628 -1.0684
 4458TIP3   OH234788   1.706   3.878  15.769 -0.5323  0.1750  0.7028
 4458TIP3    H134789   1.684   3.836  15.686  0.7082 -1.7594  1.2632
 4458TIP3    H234790   1.787   3.926  15.752  0.5396 -1.3983  1.0364
 4459TIP3   OH234791   1.367   3.792   1.147  0.3675  0.3576  0.1250
 4459TIP3    H134792   1.426   3.850   1.195  0.5554 -0.0671  0.4133
 4459TIP3    H234793   1.391   3.704   1.176 -0.7738  0.2121  0.6618
 4460TIP3   OH234794   1.852   4.231  16.268  0.3041  0.4090  0.1693
 4460TIP3    H134795   1.763   4.198  16.281 -0.2789  1.1713 -1.6004
 4460TIP3    H234796   1.841   4.322  16.242  1.6940  0.9086  1.2195
 4461TIP3   OH234797   2.976   2.704   6.165  0.1778  0.7701  0.5536
 4461TIP3    H134798   3.002   2.795   6.179  2.4212  0.3727 -0.4902
 4461TIP3    H234799   3.056   2.661   6.136 -0.4257 -1.9276  2.5437
 4462TIP3   OH234800   6.474   1.257   5.172  0.4204  0.8817 -0.4281
 4462TIP3    H134801   6.561   1.289   5.196  0.3144  0.8664 -0.0197
 4462TIP3    H234802   6.428   1.246   5.255  0.4887 -0.4368 -0.5399
 4463TIP3   OH234803   0.937   2.122  13.335 -0.4001  0.2227 -0.1785
 4463TIP3    H134804   0.909   2.080  13.254  0.0385 -0.0309 -0.2068
 4463TIP3    H234805   0.993   2.194  13.306 -0.3732  0.2294 -0.1100
 4464TIP3   OH234806   5.474   4.218   0.834  0.0395 -0.1104  0.1920
 4464TIP3    H134807   5.508   4.135   0.867  0.9764  0.0831 -0.2564
 4464TIP3    H234808   5.552   4.270   0.816 -0.5359  0.7793  0.2410
 4465TIP3   OH234809   0.858   4.304   4.688 -0.0200 -0.2534 -0.1781
 4465TIP3    H134810   0.823   4.330   4.603 -2.1991 -0.6667  0.5332
 4465TIP3    H234811   0.781   4.290   4.742  1.2889 -1.2230  1.5189
 4466TIP3   OH234812   6.793   6.643  12.146  0.0872 -0.0651 -0.5203
 4466TIP3    H134813   6.802   6.736  12.167 -0.2221  0.0329 -0.8120
 4466TIP3    H234814   6.739   6.641  12.067  0.0111 -0.4992 -0.4609
 4467TIP3   OH234815   1.086   2.936  12.840 -0.8195 -0.2753 -0.3724
 4467TIP3    H134816   1.088   2.843  12.820  0.8816 -1.0860  2.8711
 4467TIP3    H234817   1.026   2.944  12.914  1.6458  0.5094  1.7014
 4468TIP3   OH234818   6.403   0.999  13.141  0.0968 -1.0031 -0.0832
 4468TIP3    H134819   6.413   0.907  13.165  0.6040 -0.9136  0.0730
 4468TIP3    H234820   6.332   1.031  13.197 -1.3406 -1.7342 -1.4082
 4469TIP3   OH234821   4.120   0.444   3.134 -0.1881  0.4557  0.1864
 4469TIP3    H134822   4.101   0.396   3.054 -1.5168  0.6954  0.3370
 4469TIP3    H234823   4.193   0.397   3.173 -1.4495 -1.4820  0.3494
 4470TIP3   OH234824   4.121   2.535   2.924 -0.2724 -0.2212 -0.2777
 4470TIP3    H134825   4.110   2.465   2.989  0.1174 -1.5364 -1.5815
 4470TIP3    H234826   4.215   2.553   2.924 -0.3032 -0.0555 -0.3311
 4471TIP3   OH234827   1.940   0.059  15.820 -0.0846  0.0040 -0.7544
 4471TIP3    H134828   1.978   0.082  15.905 -1.5174 -0.9206  0.1798
 4471TIP3    H234829   1.878   0.129  15.801 -1.3745 -0.8507  0.0755
 4472TIP3   OH234830   0.703   4.301   5.174 -0.0717 -0.3844 -0.3613
 4472TIP3    H134831   0.711   4.209   5.149  0.7161 -0.3919 -0.0996
 4472TIP3    H234832   0.682   4.346   5.092 -1.8764 -0.9536 -0.2591
 4473TIP3   OH234833   6.073   5.206   1.211 -0.1922 -0.0641  0.2210
 4473TIP3    H134834   6.081   5.119   1.172 -2.9678 -0.8997  1.2463
 4473TIP3    H234835   6.130   5.203   1.288  0.2820 -0.7222 -0.1475
 4474TIP3   OH234836   5.157   3.580   3.915  0.1835 -0.1215  1.0357
 4474TIP3    H134837   5.130   3.501   3.868  1.5128 -0.1969  0.3547
 4474TIP3    H234838   5.112   3.651   3.871 -1.9709 -0.5551  2.3910
 4475TIP3   OH234839   1.951   5.726   2.468 -0.0381  0.2202 -0.4321
 4475TIP3    H134840   2.031   5.727   2.415  0.7895 -0.8330  0.7355
 4475TIP3    H234841   1.947   5.813   2.507  1.2774 -0.1147  0.5195
 4476TIP3   OH234842   4.363   2.685   0.652 -0.0986 -0.2109  0.4059
 4476TIP3    H134843   4.351   2.733   0.734  0.3007  0.2904  0.1699
 4476TIP3    H234844   4.280   2.639   0.639 -0.3308  0.0814  0.8460
 4477TIP3   OH234845   0.224   6.612   1.183  0.2786 -0.4508  0.3169
 4477TIP3    H134846   0.224   6.526   1.225  0.6047 -0.7633 -0.3021
 4477TIP3    H234847   0.277   6.599   1.104  1.4561  0.6379  0.8875
 4478TIP3   OH234848   5.870   0.205   2.944  0.0781 -0.0030 -0.5118
 4478TIP3    H134849   5.849   0.160   3.026  1.4188  2.3826  1.2540
 4478TIP3    H234850   5.787   0.241   2.915 -0.1648  0.4205  0.6474
 4479TIP3   OH234851   0.828   1.843   5.300  0.0889 -0.0624 -0.0229
 4479TIP3    H134852   0.784   1.864   5.218  3.0942 -0.1690 -1.7917
 4479TIP3    H234853   0.757   1.837   5.364 -2.3119  0.7232 -2.4243
 4480TIP3   OH234854   3.210   3.963  14.969  0.6108 -0.0813  0.2731
 4480TIP3    H134855   3.121   3.927  14.965  0.6684 -0.1137 -1.1845
 4480TIP3    H234856   3.267   3.887  14.955  0.7991  0.2323 -0.7108
 4481TIP3   OH234857   6.333   6.765   1.665  0.1537  0.0533 -0.3073
 4481TIP3    H134858   6.408   6.732   1.716  0.4391 -0.2955 -0.9364
 4481TIP3    H234859   6.272   6.691   1.662 -0.7742  0.6977  1.1988
 4482TIP3   OH234860   1.162   4.162  14.921  1.0237  0.1901  0.5216
 4482TIP3    H134861   1.094   4.167  14.854  0.2639  0.6418  1.3061
 4482TIP3    H234862   1.169   4.068  14.941  0.4291  0.1677  0.6375
 4483TIP3   OH234863   0.444   5.100   4.319  0.0069  0.1438 -0.2924
 4483TIP3    H134864   0.469   5.189   4.295  2.3087 -0.1312  0.8390
 4483TIP3    H234865   0.477   5.045   4.249 -0.3800  0.0675 -0.4169
 4484TIP3   OH234866   1.220   6.322   1.882 -0.3822  0.5243  0.3804
 4484TIP3    H134867   1.152   6.277   1.832 -1.4945  1.6860  0.8087
 4484TIP3    H234868   1.295   6.263   1.878 -1.0951 -0.3496 -0.9164
 4485TIP3   OH234869   2.925   6.732   1.278 -0.4297 -0.1680  0.3896
 4485TIP3    H134870   2.913   6.654   1.223  1.3326  0.3084 -0.7483
 4485TIP3    H234871   2.960   6.699   1.360  2.7515 -0.4885 -0.9445
 4486TIP3   OH234872   1.508   6.656  12.080  0.5558 -0.2193 -0.3373
 4486TIP3    H134873   1.578   6.591  12.067  0.2492 -0.6425  0.0971
 4486TIP3    H234874   1.504   6.668  12.175  0.4444  0.2556 -0.3997
 4487TIP3   OH234875   4.959   4.710   4.070  0.4190 -0.7719  0.0980
 4487TIP3    H134876   4.998   4.791   4.105  0.5638 -0.7848 -0.0335
 4487TIP3    H234877   4.874   4.704   4.114 -0.1602  0.1349 -0.8243
 4488TIP3   OH234878   2.662   4.802   2.582  0.3706 -0.1606 -0.8303
 4488TIP3    H134879   2.712   4.742   2.638 -1.9404  0.3402  1.9878
 4488TIP3    H234880   2.632   4.748   2.509  0.5622 -1.7567  0.2379
 4489TIP3   OH234881   2.295   0.582  11.185  0.7412  0.5660 -0.5254
 4489TIP3    H134882   2.326   0.629  11.263 -0.1699  2.1513 -1.0750
 4489TIP3    H234883   2.368   0.589  11.123  1.6270 -1.0416  0.2697
 4490TIP3   OH234884   6.229   6.644  13.800  0.7748 -0.2775  0.8162
 4490TIP3    H134885   6.246   6.604  13.714 -1.3547  0.6332 -0.0987
 4490TIP3    H234886   6.242   6.737  13.786 -3.4188  0.3803  0.2969
 4491TIP3   OH234887   2.781   4.522  12.540  0.0726 -0.2688 -0.8481
 4491TIP3    H134888   2.823   4.575  12.472  1.1505  1.3978  1.0202
 4491TIP3    H234889   2.834   4.443  12.545  0.7698  0.1752 -1.0714
 4492TIP3   OH234890   1.942   5.340  16.665  0.6621 -0.2994  0.4880
 4492TIP3    H134891   1.862   5.292  16.684  0.6462 -0.3384  0.3280
 4492TIP3    H234892   1.917   5.406  16.601  0.5973  0.2046  1.0255
 4493TIP3   OH234893   5.720   0.807   0.628 -0.3765 -0.0469  0.0646
 4493TIP3    H134894   5.771   0.751   0.570  0.4518  1.3403 -0.5588
 4493TIP3    H234895   5.636   0.761   0.637 -0.2509 -0.6561 -1.6131
 4494TIP3   OH234896   5.363   6.647  13.368  0.3061 -0.1925  0.6067
 4494TIP3    H134897   5.357   6.605  13.283  3.6945  1.5086 -0.6790
 4494TIP3    H234898   5.371   6.575  13.430  0.7160 -1.4784 -0.8745
 4495TIP3   OH234899   1.405   2.363   3.524  0.6098 -0.3778  0.4436
 4495TIP3    H134900   1.384   2.305   3.451  1.7417 -0.6434  0.3143
 4495TIP3    H234901   1.321   2.400   3.550  0.1509 -0.4625 -0.8414
 4496TIP3   OH234902   2.954   1.832  12.833  0.5707 -0.0860 -0.5406
 4496TIP3    H134903   2.935   1.746  12.871 -2.3745  1.0104  0.7594
 4496TIP3    H234904   2.989   1.883  12.906 -0.0099  0.4787 -0.6443
 4497TIP3   OH234905   0.405   0.690   5.421 -0.1838 -0.0082 -0.2107
 4497TIP3    H134906   0.415   0.763   5.482  2.6279 -1.1135  0.8109
 4497TIP3    H234907   0.397   0.731   5.335  0.5247  1.5143  0.4196
 4498TIP3   OH234908   2.098   1.809   1.801  0.2204 -0.1611  0.2045
 4498TIP3    H134909   2.083   1.761   1.720 -1.3126  0.2942  0.1996
 4498TIP3    H234910   2.143   1.889   1.774 -0.2242 -0.0427 -0.1838
 4499TIP3   OH234911   2.662   3.302  13.199 -0.0107 -0.2220 -0.1404
 4499TIP3    H134912   2.675   3.344  13.114  3.6004 -0.6483  0.0674
 4499TIP3    H234913   2.654   3.375  13.260  0.6136  0.1388 -0.4755
 4500TIP3   OH234914   5.989   6.670   3.429  0.3519  0.3300  0.3151
 4500TIP3    H134915   5.901   6.633   3.434  0.1035  0.9545  0.7256
 4500TIP3    H234916   6.047   6.596   3.447 -0.0526 -0.2045 -0.4875
 4501TIP3   OH234917   0.469   1.058  13.893  0.0920 -0.2611 -0.6684
 4501TIP3    H134918   0.377   1.035  13.906  0.6324 -1.0499  2.7894
 4501TIP3    H234919   0.509   0.980  13.856 -0.5643  0.0759 -2.1610
 4502TIP3   OH234920   0.904   5.922   3.997 -0.1882 -0.7842 -0.6155
 4502TIP3    H134921   0.903   6.014   4.025  1.0152 -1.0007  0.2376
 4502TIP3    H234922   0.812   5.899   3.990 -0.5638 -0.0851  1.2259
 4503TIP3   OH234923   4.906   3.285  16.736 -0.4964  0.4051  0.3800
 4503TIP3    H134924   4.986   3.233  16.741 -0.6201  0.3175  1.8105
 4503TIP3    H234925   4.932   3.364  16.689  0.3280  0.2052  0.4750
 4504TIP3   OH234926   1.653   6.559   3.078  0.6487  0.3147  0.4943
 4504TIP3    H134927   1.714   6.569   3.005  1.9718  0.2789  1.5633
 4504TIP3    H234928   1.612   6.645   3.086 -1.0577 -0.2292 -1.5649
 4505TIP3   OH234929   4.303   5.790   1.504 -0.3273  0.3502  0.4029
 4505TIP3    H134930   4.216   5.768   1.539 -0.3843  0.6386  0.4423
 4505TIP3    H234931   4.363   5.773   1.577 -0.2459 -0.6317  0.1288
 4506TIP3   OH234932   1.143   0.557   5.928  0.0107 -0.2428  0.5019
 4506TIP3    H134933   1.224   0.520   5.962 -0.0778 -0.5421  0.3928
 4506TIP3    H234934   1.154   0.558   5.833  0.9227  2.1280  0.5575
 4507TIP3   OH234935   5.483   5.553   1.787 -0.2368 -0.1807  0.1430
 4507TIP3    H134936   5.537   5.489   1.740  0.9005 -0.4526  1.7261
 4507TIP3    H234937   5.543   5.623   1.812 -0.7971 -0.0259  1.1322
 4508TIP3   OH234938   1.610   6.086   4.194 -0.3175 -0.2245 -0.0258
 4508TIP3    H134939   1.661   6.102   4.114 -0.5446  1.2804  0.1020
 4508TIP3    H234940   1.525   6.127   4.177  0.1527  1.5562  1.5397
 4509TIP3   OH234941   5.969   6.436  12.460  0.0214 -0.8691 -0.1081
 4509TIP3    H134942   6.035   6.473  12.402 -1.1103  0.2584 -0.7498
 4509TIP3    H234943   6.014   6.422  12.543  0.7609  1.0318 -0.1520
 4510TIP3   OH234944   0.941   1.704  13.129  0.2089 -0.3478 -0.3468
 4510TIP3    H134945   0.948   1.730  13.037 -0.5337  2.3490  0.2919
 4510TIP3    H234946   0.996   1.766  13.176  0.5097 -1.6328  1.1003
 4511TIP3   OH234947   4.379   6.487  16.145  0.0857 -0.4180  0.0184
 4511TIP3    H134948   4.472   6.510  16.149 -0.1871  0.9482 -1.1330
 4511TIP3    H234949   4.367   6.451  16.058 -1.0021  2.0167 -0.9074
 4512TIP3   OH234950   4.134   5.450  15.955 -0.7423  0.0372  0.4245
 4512TIP3    H134951   4.173   5.376  16.001 -1.3761 -0.7414 -0.2577
 4512TIP3    H234952   4.120   5.418  15.866 -1.6987  0.7376  0.3045
 4513TIP3   OH234953   1.262   6.097   4.221  0.1639 -0.1286  0.0412
 4513TIP3    H134954   1.202   6.023   4.232  0.6740 -0.2468  3.0485
 4513TIP3    H234955   1.205   6.174   4.223 -0.2679 -0.3572 -1.9857
 4514TIP3   OH234956   4.863   3.853  11.481  0.1161  0.2648  0.0725
 4514TIP3    H134957   4.832   3.911  11.411 -0.2388 -1.1131 -0.9464
 4514TIP3    H234958   4.783   3.815  11.518  0.3847 -0.2210  0.1614
 4515TIP3   OH234959   0.946   0.432   6.059  0.2330  0.2894  0.2027
 4515TIP3    H134960   0.976   0.398   6.143  0.9584 -0.3394 -0.2994
 4515TIP3    H234961   1.022   0.478   6.023  0.5125 -0.9345 -0.8734
 4516TIP3   OH234962   6.475   4.172  16.439  0.6243 -0.4996 -0.6215
 4516TIP3    H134963   6.489   4.187  16.533 -1.5798 -1.3446 -0.1078
 4516TIP3    H234964   6.563   4.158  16.404  1.4857 -0.3461  1.3435
 4517TIP3   OH234965   0.910   2.975  11.105 -0.3974 -0.1831 -0.1407
 4517TIP3    H134966   0.888   3.027  11.028 -0.7103 -1.9036 -1.2689
 4517TIP3    H234967   0.859   3.014  11.176  0.0525  1.5586 -0.7135
 4518TIP3   OH234968   4.195   4.684  13.827  0.3359 -0.0178 -0.1073
 4518TIP3    H134969   4.104   4.688  13.856  0.7141 -1.3317  1.3571
 4518TIP3    H234970   4.215   4.773  13.799 -1.5304  0.1946 -0.9208
 4519TIP3   OH234971   4.302   2.451   1.904 -0.0584 -0.3955 -0.3614
 4519TIP3    H134972   4.254   2.507   1.965 -0.2769  0.4861 -1.3235
 4519TIP3    H234973   4.235   2.402   1.858  0.1256 -1.3547  0.3636
 4520TIP3   OH234974   3.293   0.595  15.722  0.5048  0.8432  0.4940
 4520TIP3    H134975   3.379   0.572  15.756  0.8555  0.9103 -0.3064
 4520TIP3    H234976   3.289   0.551  15.637 -0.8012 -0.2629  1.1006
 4521TIP3   OH234977   2.267   4.203   6.060  0.1325 -0.3565 -0.0518
 4521TIP3    H134978   2.203   4.153   6.008  0.7352 -1.2489  0.0433
 4521TIP3    H234979   2.341   4.216   6.001  1.2105 -2.1741  0.8044
 4522TIP3   OH234980   2.877   6.098  13.175 -0.0686 -0.2760  0.2331
 4522TIP3    H134981   2.845   6.012  13.201 -0.1924 -0.3754 -0.2534
 4522TIP3    H234982   2.929   6.127  13.250  0.4500 -1.0229  0.1732
 4523TIP3   OH234983   0.698   3.896   9.789  0.2596  0.9889 -0.4268
 4523TIP3    H134984   0.659   3.812   9.812 -0.1416  0.4964 -2.6608
 4523TIP3    H234985   0.747   3.922   9.867  0.1400 -1.1527  0.4316
 4524TIP3   OH234986   3.569   2.396   6.540 -0.3432 -0.1445 -0.2092
 4524TIP3    H134987   3.478   2.380   6.562  0.3905 -2.0592  1.7930
 4524TIP3    H234988   3.609   2.428   6.621  1.6428 -3.6655  0.4286
 4525TIP3   OH234989   4.889   4.249  16.184  0.1929  0.0129 -0.9984
 4525TIP3    H134990   4.953   4.251  16.255 -0.4928  0.8599 -0.3814
 4525TIP3    H234991   4.864   4.157  16.177  0.5831 -0.1425 -0.4177
 4526TIP3   OH234992   5.880   3.707   4.808  0.3673 -0.2075  0.0962
 4526TIP3    H134993   5.832   3.692   4.889 -0.2156 -1.0912 -0.3986
 4526TIP3    H234994   5.819   3.755   4.752  1.0547  1.1528  0.4466
 4527TIP3   OH234995   3.606   6.058   3.863  0.4252  0.0789 -0.2003
 4527TIP3    H134996   3.628   6.086   3.774 -2.2046  1.2102 -0.5929
 4527TIP3    H234997   3.513   6.038   3.859  0.1217  0.6477  2.4193
 4528TIP3   OH234998   4.313   6.273  14.853 -0.3687 -0.4699  0.4133
 4528TIP3    H134999   4.256   6.328  14.906 -0.5401 -1.9454  1.8503
 4528TIP3    H235000   4.341   6.203  14.913 -0.0048 -1.8264 -1.2622
 4529TIP3   OH235001   1.183   6.683  11.278  0.1656 -0.6297  0.1808
 4529TIP3    H135002   1.090   6.700  11.288 -0.1186 -2.9201  2.5139
 4529TIP3    H235003   1.209   6.733  11.200 -3.5206 -1.8231 -2.0669
 4530TIP3   OH235004   2.441   3.300   0.151  0.4576  0.6648 -0.1667
 4530TIP3    H135005   2.470   3.236   0.085  0.4016 -0.1906  0.6258
 4530TIP3    H235006   2.458   3.258   0.235 -0.4096  1.3353  0.3635
 4531TIP3   OH235007   3.475   5.032   2.001  0.3463  0.1701 -0.2151
 4531TIP3    H135008   3.473   4.965   1.933 -1.0408  1.6190 -1.6814
 4531TIP3    H235009   3.408   5.005   2.064  0.2103 -0.1237 -0.4856
 4532TIP3   OH235010   3.628   0.258   1.401 -0.4240  0.0312  0.2880
 4532TIP3    H135011   3.635   0.271   1.307 -2.1537  0.5571  0.2049
 4532TIP3    H235012   3.546   0.212   1.413 -0.9855  1.2923  1.6263
 4533TIP3   OH235013   6.411   5.343   0.872 -0.4677  0.5913  0.0477
 4533TIP3    H135014   6.331   5.341   0.925  0.2087  1.9530  1.1843
 4533TIP3    H235015   6.425   5.436   0.854 -0.3630  0.2126 -2.0965
 4534TIP3   OH235016   2.853   0.562  14.873 -0.3207  0.3564 -0.1446
 4534TIP3    H135017   2.818   0.628  14.933  2.6574  1.4541  0.5621
 4534TIP3    H235018   2.853   0.604  14.787  1.9456  1.5958  0.3671
 4535TIP3   OH235019   3.343   0.047  15.693  0.1808  0.0245 -0.2114
 4535TIP3    H135020   3.249   0.067  15.691  0.2408  0.1982 -1.7026
 4535TIP3    H235021   3.379   0.114  15.751 -0.4822  0.5212 -0.3521
 4536TIP3   OH235022   2.689   2.500   0.317  0.0179  0.4931 -0.0555
 4536TIP3    H135023   2.768   2.493   0.371  0.6924 -0.6246 -1.1232
 4536TIP3    H235024   2.635   2.426   0.343  0.9930 -0.9287 -1.8388
 4537TIP3   OH235025   5.208   0.752   1.339  0.2386 -0.0113  0.5866
 4537TIP3    H135026   5.296   0.736   1.305  0.1567  1.8877 -0.6837
 4537TIP3    H235027   5.220   0.816   1.409 -0.0893  0.0223  0.6160
 4538TIP3   OH235028   3.202   0.443  14.015 -0.4222 -0.0442  0.1217
 4538TIP3    H135029   3.276   0.429  13.957 -0.7793  0.5606 -0.5050
 4538TIP3    H235030   3.144   0.369  14.000 -0.0581 -0.3984  0.4450
 4539TIP3   OH235031   5.129   3.079   0.756  0.2817 -0.1138  0.4451
 4539TIP3    H135032   5.114   3.144   0.687  0.6932  0.2911  0.7315
 4539TIP3    H235033   5.058   3.016   0.745 -0.5450  0.7584  0.5864
 4540TIP3   OH235034   0.524   6.419  14.123  0.2734  0.0116 -0.3645
 4540TIP3    H135035   0.438   6.462  14.113  1.0409  2.0000  1.0542
 4540TIP3    H235036   0.563   6.424  14.035 -0.2935  0.8394 -0.5815
 4541TIP3   OH235037   0.484   5.172   0.009  0.0985 -0.5336 -1.0228
 4541TIP3    H135038   0.570   5.133   0.027 -0.6989 -2.1913 -0.5957
 4541TIP3    H235039   0.421   5.105   0.037 -1.3410  0.6277 -1.3622
 4542TIP3   OH235040   5.290   0.180   2.229 -0.4211 -0.1062 -0.0524
 4542TIP3    H135041   5.253   0.091   2.230  0.3377 -0.4191  0.8016
 4542TIP3    H235042   5.330   0.187   2.142 -0.2872 -0.6890 -0.0459
 4543TIP3   OH235043   4.801   0.419  15.298  0.0486  0.3054 -0.9042
 4543TIP3    H135044   4.894   0.405  15.280 -0.1088  0.5994 -2.0570
 4543TIP3    H235045   4.779   0.496  15.246 -0.7175  0.5670 -0.1997
 4544TIP3   OH235046   2.943   2.594  14.041 -0.6080 -0.1490  0.4669
 4544TIP3    H135047   2.863   2.543  14.029 -2.4349  2.7019 -0.7487
 4544TIP3    H235048   2.977   2.568  14.126 -1.5915 -2.9906  0.0794
 4545TIP3   OH235049   3.876   0.663  11.248  0.4981 -0.2410  0.4576
 4545TIP3    H135050   3.940   0.621  11.305  0.0689 -0.7380  0.5904
 4545TIP3    H235051   3.889   0.622  11.163  0.6928  0.0184  0.3634
 4546TIP3   OH235052   6.079   1.173   2.351 -0.2131 -0.4270  0.0812
 4546TIP3    H135053   6.173   1.161   2.366 -0.2744 -0.5908  0.3454
 4546TIP3    H235054   6.073   1.216   2.266  0.2007  1.1818  0.8128
 4547TIP3   OH235055   5.259   1.123   3.141  0.1231 -0.3971 -0.4041
 4547TIP3    H135056   5.207   1.104   3.062  0.9368 -2.5070 -0.5004
 4547TIP3    H235057   5.349   1.128   3.110  0.3163  0.0389  0.2180
 4548TIP3   OH235058   5.554   0.574  16.255 -0.2464  0.0161  0.2302
 4548TIP3    H135059   5.483   0.515  16.280  0.8124 -0.9493  1.0872
 4548TIP3    H235060   5.521   0.620  16.178 -1.9797 -0.0304  0.9006
 4549TIP3   OH235061   0.413   3.607   1.223  0.1180 -0.2794  0.0858
 4549TIP3    H135062   0.504   3.632   1.204 -0.2388 -0.7660 -2.5865
 4549TIP3    H235063   0.364   3.638   1.148 -1.7804 -1.0674  0.9465
 4550TIP3   OH235064   1.403   3.510  10.685  0.3057  0.2818  0.3486
 4550TIP3    H135065   1.327   3.509  10.744  1.3057  1.3483  1.7516
 4550TIP3    H235066   1.450   3.430  10.705  0.5853  0.5884  0.9730
 4551TIP3   OH235067   1.041   2.040   0.582  0.2008  0.0847 -0.3784
 4551TIP3    H135068   0.981   1.984   0.632  0.9713 -0.0289  0.4479
 4551TIP3    H235069   1.013   2.129   0.603  0.4982  0.0380  0.2518
 4552TIP3   OH235070   1.958   2.004   5.108 -0.1443  0.3684  0.1971
 4552TIP3    H135071   1.977   2.096   5.127 -2.0953  0.9309 -0.2877
 4552TIP3    H235072   1.899   2.007   5.032  2.2460 -1.4538 -1.9430
 4553TIP3   OH235073   4.568   6.567  11.408  0.0143  0.1251 -0.1016
 4553TIP3    H135074   4.645   6.594  11.358 -1.2258  3.6311 -0.4330
 4553TIP3    H235075   4.603   6.530  11.489  2.0371  0.6220 -0.7003
 4554TIP3   OH235076   5.264   0.586  13.466  0.2781 -0.4158  0.5885
 4554TIP3    H135077   5.334   0.523  13.448 -0.0988 -1.5278  2.6216
 4554TIP3    H235078   5.218   0.595  13.382  1.5729 -1.2775 -0.2607
 4555TIP3   OH235079   0.068   5.903  10.834  0.2238 -0.5931  0.4411
 4555TIP3    H135080  -0.009   5.867  10.877  1.2712 -0.5157  2.5075
 4555TIP3    H235081   0.099   5.832  10.777  0.3657 -1.8102  1.9569
 4556TIP3   OH235082   0.122   2.561  14.744 -0.2139  0.5928 -0.4166
 4556TIP3    H135083   0.104   2.495  14.677 -2.3051  0.6558  0.0428
 4556TIP3    H235084   0.122   2.644  14.696 -2.4342  0.7144 -0.2775
 4557TIP3   OH235085   4.631   2.624   1.461  0.0461  0.4308 -0.5473
 4557TIP3    H135086   4.672   2.562   1.521  1.2449  0.7319 -1.0254
 4557TIP3    H235087   4.538   2.602   1.464  0.3898 -1.1152 -0.4054
 4558TIP3   OH235088   2.562   2.927   2.697  0.6279  0.4718 -1.0821
 4558TIP3    H135089   2.567   2.990   2.625  0.1477  1.9351  0.1149
 4558TIP3    H235090   2.555   2.981   2.776 -1.2398 -1.0792 -0.1094
 4559TIP3   OH235091   6.252   5.209   1.672 -0.0526 -0.5824  0.2984
 4559TIP3    H135092   6.204   5.230   1.752 -0.5808 -0.0946 -0.1388
 4559TIP3    H235093   6.286   5.294   1.641 -1.1032 -0.5353 -0.7820
 4560TIP3   OH235094   6.490   1.548   2.483 -0.0862  0.2636 -0.1197
 4560TIP3    H135095   6.582   1.561   2.508 -0.0387 -1.2296  0.6395
 4560TIP3    H235096   6.442   1.556   2.565 -0.5590  0.4401 -0.4140
 4561TIP3   OH235097   1.830   2.877   1.588  0.5067  0.1382 -0.3318
 4561TIP3    H135098   1.787   2.960   1.565  1.5027  0.8895  0.4339
 4561TIP3    H235099   1.764   2.810   1.571  0.3366  0.8541 -3.0115
 4562TIP3   OH235100   4.842   4.326  12.457 -0.0785 -0.0203 -0.3906
 4562TIP3    H135101   4.813   4.242  12.422  0.2256 -0.4710  0.4188
 4562TIP3    H235102   4.796   4.334  12.540 -1.7876  1.6266 -1.4073
 4563TIP3   OH235103   1.989   6.213   3.021 -0.5516 -0.1242  0.7180
 4563TIP3    H135104   2.024   6.287   2.971 -0.3258 -0.8199 -0.1801
 4563TIP3    H235105   2.033   6.219   3.106  2.1174 -1.1665 -0.4775
 4564TIP3   OH235106   2.373   1.823  14.221  0.7084  0.1136  0.2511
 4564TIP3    H135107   2.413   1.758  14.164 -0.7615  0.0628 -0.7899
 4564TIP3    H235108   2.430   1.900  14.214  1.6276 -0.5443  0.3138
 4565TIP3   OH235109   6.223   3.647   6.511 -0.0341  0.0961 -0.1807
 4565TIP3    H135110   6.155   3.712   6.527 -1.2450 -0.6634 -1.9043
 4565TIP3    H235111   6.268   3.678   6.432  0.4868 -0.3047 -0.0471
 4566TIP3   OH235112   1.172   3.846   2.928  0.4868 -0.0910  0.2728
 4566TIP3    H135113   1.116   3.909   2.882  0.2820 -1.6287 -1.7432
 4566TIP3    H235114   1.205   3.789   2.858  1.8479 -1.2954  1.8367
 4567TIP3   OH235115   6.670   3.952  14.375  0.1955  0.1388  0.0098
 4567TIP3    H135116   6.697   4.012  14.444 -0.1041 -2.6939  2.7990
 4567TIP3    H235117   6.750   3.939  14.323  0.4937  2.1482 -0.1058
 4568TIP3   OH235118   3.581   5.366   5.207  0.0944  0.0518  0.2288
 4568TIP3    H135119   3.621   5.433   5.152  1.6119  0.0357  1.2719
 4568TIP3    H235120   3.564   5.410   5.290 -2.6559  0.2207 -0.3332
 4569TIP3   OH235121   1.437   3.997   3.592  0.1780 -0.2168  0.0027
 4569TIP3    H135122   1.480   3.981   3.676  0.8497  1.8514  0.1063
 4569TIP3    H235123   1.347   4.020   3.615  0.9429  2.7426  0.4556
 4570TIP3   OH235124   5.210   6.338   0.658  0.2374 -0.1968 -0.0601
 4570TIP3    H135125   5.127   6.376   0.628  0.2023 -0.7230 -0.6376
 4570TIP3    H235126   5.235   6.277   0.589  1.0001 -0.2032  0.2148
 4571TIP3   OH235127   4.712   6.199   3.221 -0.2575  0.1020 -0.1042
 4571TIP3    H135128   4.778   6.216   3.288  0.2044  1.6682 -0.9040
 4571TIP3    H235129   4.755   6.136   3.162 -1.4984 -3.1866  2.1705
 4572TIP3   OH235130   2.117   3.036   6.503 -0.1342 -0.3749  0.2117
 4572TIP3    H135131   2.024   3.058   6.501 -0.1159 -0.0689  1.6203
 4572TIP3    H235132   2.159   3.112   6.542  0.4130 -1.3984  1.6986
 4573TIP3   OH235133   0.459   5.106  16.034 -0.6334  0.3681 -0.4629
 4573TIP3    H135134   0.483   5.198  16.043  1.6121 -0.2206  0.2661
 4573TIP3    H235135   0.483   5.084  15.943  0.0145  0.2313 -0.2697
 4574TIP3   OH235136   0.521   1.651   3.882 -0.6953 -0.2676  0.0077
 4574TIP3    H135137   0.490   1.566   3.851 -2.0445  0.8677 -1.9913
 4574TIP3    H235138   0.443   1.706   3.884  0.5760  1.7804 -1.9334
 4575TIP3   OH235139   4.544   6.485   0.466  0.3258 -0.3226  0.3170
 4575TIP3    H135140   4.566   6.559   0.521 -0.8326  0.7380 -0.5978
 4575TIP3    H235141   4.454   6.501   0.437  0.4899 -1.4230 -0.9287
 4576TIP3   OH235142   5.828   5.116   5.596  0.5611 -0.1647 -0.8347
 4576TIP3    H135143   5.880   5.157   5.664  0.6319  0.6473 -1.3769
 4576TIP3    H235144   5.806   5.030   5.632 -0.2903  0.6379  0.6658
 4577TIP3   OH235145   1.120   5.794  12.766 -0.6904 -0.1453 -0.1758
 4577TIP3    H135146   1.206   5.756  12.747  0.2041  2.6662 -2.6748
 4577TIP3    H235147   1.062   5.757  12.701 -0.2581  1.1878 -1.3756
 4578TIP3   OH235148   3.991   6.609   4.631  0.3821 -0.3303 -0.5952
 4578TIP3    H135149   3.975   6.529   4.580  0.4441  0.4361 -1.8819
 4578TIP3    H235150   3.927   6.672   4.596 -0.1947 -0.0377  0.9371
 4579TIP3   OH235151   1.426   1.722   5.729 -0.3542  0.4152 -0.0381
 4579TIP3    H135152   1.393   1.649   5.677  0.5380  0.1342 -0.2336
 4579TIP3    H235153   1.376   1.718   5.810  0.1385 -0.8545  0.2376
 4580TIP3   OH235154   5.849   4.275   4.712 -0.8654 -0.3594  0.5141
 4580TIP3    H135155   5.931   4.298   4.756 -0.8591 -0.2880  0.4638
 4580TIP3    H235156   5.807   4.358   4.693 -0.6405 -0.3720 -0.0516
 4581TIP3   OH235157   5.003   2.267  14.428  0.1952 -0.3234  0.0327
 4581TIP3    H135158   4.943   2.205  14.386  0.6658 -1.4137  0.9170
 4581TIP3    H235159   5.084   2.260  14.379  0.8259 -1.7815  1.1843
 4582TIP3   OH235160   0.504   2.680   3.524 -0.0149  0.5609  0.2186
 4582TIP3    H135161   0.563   2.668   3.450 -0.7942  0.2593 -0.3659
 4582TIP3    H235162   0.543   2.629   3.594  1.0037  1.2563  0.1834
 4583TIP3   OH235163   1.542   3.824  12.109  0.2025  0.6384  0.0236
 4583TIP3    H135164   1.459   3.822  12.060  0.7831  0.0067 -0.9664
 4583TIP3    H235165   1.549   3.914  12.140 -1.2111  0.5292  0.7521
 4584TIP3   OH235166   0.478   2.053   2.772  0.5522  0.2058 -0.1373
 4584TIP3    H135167   0.473   2.138   2.817 -0.6653 -0.1739  0.4942
 4584TIP3    H235168   0.407   2.056   2.707  0.5519 -0.2962 -0.1654
 4585TIP3   OH235169   0.226   2.430  16.955  0.5670  0.5192  0.0852
 4585TIP3    H135170   0.303   2.486  16.945  0.2781  0.6208 -1.9185
 4585TIP3    H235171   0.254   2.344  16.924  0.2676  0.1810  0.7228
 4586TIP3   OH235172   6.269   0.176  10.330  0.0762  0.1369  0.3399
 4586TIP3    H135173   6.345   0.120  10.313 -0.8623 -1.1781  0.2887
 4586TIP3    H235174   6.204   0.117  10.369 -0.5340  1.4662  1.4138
 4587TIP3   OH235175   1.391   1.235   3.133  0.5729  0.6226 -0.1645
 4587TIP3    H135176   1.439   1.226   3.215  0.0996 -0.7837 -0.0143
 4587TIP3    H235177   1.455   1.214   3.065  0.2745 -1.0353  0.0229
 4588TIP3   OH235178   4.805   6.639  11.286 -0.3473 -0.3364 -0.4268
 4588TIP3    H135179   4.893   6.675  11.275  0.2051 -1.6647 -0.5761
 4588TIP3    H235180   4.763   6.652  11.201 -0.3883  0.5277 -0.2792
 4589TIP3   OH235181   6.041   4.099  15.925  0.1696  0.0704 -0.2500
 4589TIP3    H135182   5.994   4.100  15.842 -0.1517 -1.6051 -0.1075
 4589TIP3    H235183   5.974   4.089  15.992  0.6300 -2.1101 -0.0317
 4590TIP3   OH235184   6.670   4.079   5.772  0.2279  0.3579 -0.3315
 4590TIP3    H135185   6.747   4.131   5.746  0.0354  0.3494 -0.9227
 4590TIP3    H235186   6.610   4.143   5.811  0.2898  0.4598 -0.4030
 4591TIP3   OH235187   2.176   2.359   1.057 -0.1107  0.3983  0.2441
 4591TIP3    H135188   2.160   2.422   1.127 -1.3803 -0.4965  0.7971
 4591TIP3    H235189   2.262   2.322   1.077 -1.4659 -1.7169  2.9074
 4592TIP3   OH235190   5.187   0.084   5.630  1.0230 -0.3630 -0.2954
 4592TIP3    H135191   5.225  -0.004   5.638 -1.2926 -1.5810 -1.7255
 4592TIP3    H235192   5.104   0.070   5.585 -1.1256  2.1206  2.5162
 4593TIP3   OH235193   1.356   5.295   3.089  0.6529  0.0040  0.8563
 4593TIP3    H135194   1.417   5.359   3.053 -0.2288  0.5769  0.3430
 4593TIP3    H235195   1.392   5.274   3.176  0.4461  1.9365  1.4582
 4594TIP3   OH235196   6.121   3.607   5.133  0.2402  0.3178 -0.0056
 4594TIP3    H135197   6.105   3.518   5.100 -0.0475  0.3353  0.0888
 4594TIP3    H235198   6.143   3.595   5.225 -0.5268  0.4081  0.1920
 4595TIP3   OH235199   6.519   3.984   1.330 -0.5884 -0.3624 -0.2381
 4595TIP3    H135200   6.580   3.915   1.355 -1.0659 -0.5440  0.4534
 4595TIP3    H235201   6.541   4.058   1.387  1.3708  0.8670 -2.4321
 4596TIP3   OH235202   0.215   3.438  14.869  0.4472 -0.6286  0.9994
 4596TIP3    H135203   0.238   3.508  14.808  1.7702 -1.1908  0.8178
 4596TIP3    H235204   0.272   3.365  14.846  0.6662 -1.0221  2.6150
 4597TIP3   OH235205   4.711   3.024  14.716 -0.1380  0.1591 -0.2208
 4597TIP3    H135206   4.783   3.083  14.741  1.6054 -1.9348 -0.0808
 4597TIP3    H235207   4.632   3.073  14.739  1.0557  3.5288 -2.5092
 4598TIP3   OH235208   2.050   6.271  12.481 -0.4226 -0.3106  0.2481
 4598TIP3    H135209   2.133   6.317  12.470 -0.5395  0.1663  1.2765
 4598TIP3    H235210   2.016   6.302  12.564 -1.6274 -0.5293 -0.1429
 4599TIP3   OH235211   2.441   1.537   0.238  0.5608 -0.1488  0.2468
 4599TIP3    H135212   2.479   1.491   0.313  4.3320  2.0217 -0.1083
 4599TIP3    H235213   2.391   1.609   0.278  3.9365  2.0397  0.9245
 4600TIP3   OH235214   5.780   0.918  10.328 -0.0151  0.2058 -0.1258
 4600TIP3    H135215   5.865   0.953  10.299  0.7774  0.3544  2.1965
 4600TIP3    H235216   5.802   0.844  10.383 -1.4031  0.2468  0.5255
 4601TIP3   OH235217   0.682   5.886   3.818  0.2991 -0.1278 -0.1510
 4601TIP3    H135218   0.628   5.909   3.743 -0.4033 -0.6873  0.1731
 4601TIP3    H235219   0.629   5.910   3.894 -0.4050 -2.5769  0.2077
 4602TIP3   OH235220   3.708   4.558  15.707 -0.6099 -0.4515  0.4761
 4602TIP3    H135221   3.635   4.500  15.684 -1.8919  1.5525 -0.7436
 4602TIP3    H235222   3.770   4.548  15.635 -0.3977 -0.9226  0.7119
 4603TIP3   OH235223   2.984   2.022   0.538 -0.6584  0.2183  1.2178
 4603TIP3    H135224   3.053   2.065   0.487 -1.7000  0.6379  0.0903
 4603TIP3    H235225   3.010   2.034   0.629  1.7184 -1.3010  0.8239
 4604TIP3   OH235226   1.993   4.514  13.050 -0.1529  0.0790 -0.1091
 4604TIP3    H135227   2.047   4.588  13.022  0.9837 -0.2733  1.0376
 4604TIP3    H235228   1.906   4.533  13.017  0.7712  0.4029 -2.5398
 4605TIP3   OH235229   1.215   1.208   5.053 -0.4064 -0.3401 -0.2079
 4605TIP3    H135230   1.198   1.183   5.144 -1.2804 -0.5569 -0.4177
 4605TIP3    H235231   1.190   1.300   5.048 -1.7518 -0.6988 -0.5530
 4606TIP3   OH235232   4.034   4.237   0.746 -0.2409 -0.6627  0.2124
 4606TIP3    H135233   3.986   4.303   0.797 -1.8129 -3.3800  2.5235
 4606TIP3    H235234   4.126   4.258   0.761 -0.6523  1.7078 -0.1878
 4607TIP3   OH235235   5.972   6.208  13.561  0.6223 -1.1393 -0.5933
 4607TIP3    H135236   6.045   6.233  13.619  0.8540 -2.1268 -0.4471
 4607TIP3    H235237   5.925   6.290  13.546  0.6947 -0.8044  0.8119
 4608TIP3   OH235238   5.277   2.279   1.507  0.2772  0.3000  0.2856
 4608TIP3    H135239   5.247   2.363   1.542 -0.2552 -0.1746  0.9922
 4608TIP3    H235240   5.329   2.241   1.579 -0.4234 -0.4693  0.3940
 4609TIP3   OH235241   3.985   1.367  12.996 -0.3926 -0.1225 -0.5945
 4609TIP3    H135242   4.041   1.317  12.937  3.2345  0.8976  1.6802
 4609TIP3    H235243   3.956   1.303  13.061  1.8426 -0.0008  0.6438
 4610TIP3   OH235244   2.704   5.229   4.087  0.6587 -0.2748  0.7527
 4610TIP3    H135245   2.687   5.321   4.108 -0.0050 -0.0081 -0.8237
 4610TIP3    H235246   2.766   5.232   4.014 -0.8867 -0.9784 -0.6649
 4611TIP3   OH235247   1.784   0.380   2.747  0.4509  0.3489 -0.8548
 4611TIP3    H135248   1.850   0.376   2.677  0.9943  0.5837 -0.3639
 4611TIP3    H235249   1.816   0.318   2.813  0.0170  0.2412 -0.7454
 4612TIP3   OH235250   4.409   0.699  12.551 -0.3616 -0.0446 -0.3576
 4612TIP3    H135251   4.372   0.618  12.517 -0.7028 -0.3006  0.6013
 4612TIP3    H235252   4.500   0.699  12.520 -0.5770 -0.4109 -1.0037
 4613TIP3   OH235253   3.880   0.603  13.116  0.1197 -0.0215  0.8338
 4613TIP3    H135254   3.817   0.651  13.170 -0.5716 -1.0292  0.9456
 4613TIP3    H235255   3.830   0.578  13.038  0.4781 -0.5215  0.7619
 4614TIP3   OH235256   0.329   5.864  15.666 -0.4076  0.0076  0.3113
 4614TIP3    H135257   0.381   5.942  15.683  0.7397 -0.9135  1.2739
 4614TIP3    H235258   0.248   5.878  15.715 -0.8156  1.1714 -0.6586
 4615TIP3   OH235259   3.759   5.055  11.178  0.3453 -0.4900 -0.3494
 4615TIP3    H135260   3.673   5.097  11.179  1.1287  1.2100  0.6467
 4615TIP3    H235261   3.766   5.015  11.091 -0.8240  0.6700 -1.0075
 4616TIP3   OH235262   0.567   2.888  15.309  0.5555  0.0363  0.7286
 4616TIP3    H135263   0.554   2.922  15.397 -0.8261 -0.6268  0.8094
 4616TIP3    H235264   0.617   2.807  15.322 -0.4666 -0.5739  1.0304
 4617TIP3   OH235265   6.136   5.830   0.256 -0.2332  0.0402  0.7323
 4617TIP3    H135266   6.224   5.802   0.284 -0.4136 -0.2393  1.0266
 4617TIP3    H235267   6.146   5.923   0.235  0.3733 -0.2249 -0.2298
 4618TIP3   OH235268   4.752   2.405   6.310 -0.4411 -0.2578  0.2146
 4618TIP3    H135269   4.660   2.394   6.335 -0.9251 -1.2755 -1.8891
 4618TIP3    H235270   4.750   2.462   6.234  0.4698 -1.9327 -1.1298
 4619TIP3   OH235271   3.895   3.635  16.742  0.3798 -0.1238 -0.6593
 4619TIP3    H135272   3.911   3.542  16.724 -0.2351 -0.3595 -0.0349
 4619TIP3    H235273   3.817   3.635  16.797 -0.7233  0.8957 -2.1826
 4620TIP3   OH235274   2.047   5.305   4.689 -0.1340 -0.1786 -0.3716
 4620TIP3    H135275   2.085   5.364   4.624 -0.6438  0.4534 -0.1130
 4620TIP3    H235276   2.104   5.312   4.765 -1.2817  1.5680  0.3945
 4621TIP3   OH235277   0.144   0.808   0.142  0.1667 -0.0608 -0.0791
 4621TIP3    H135278   0.224   0.756   0.130 -0.5688 -1.6808  1.7065
 4621TIP3    H235279   0.130   0.849   0.056  0.5924 -3.0945 -1.7569
 4622TIP3   OH235280   5.244   1.815  15.449 -0.4612  0.0702 -0.0287
 4622TIP3    H135281   5.152   1.829  15.470  0.1954  0.7799  2.7477
 4622TIP3    H235282   5.269   1.739  15.501  0.9227  0.9049  0.5724
 4623TIP3   OH235283   1.132   5.737  13.554 -0.5540 -0.5462  0.5988
 4623TIP3    H135284   1.115   5.693  13.638  1.5668 -0.2786  1.2329
 4623TIP3    H235285   1.198   5.682  13.512 -0.7958 -0.0826 -0.4056
 4624TIP3   OH235286   3.128   6.170   1.552 -0.0144  0.3224 -0.1539
 4624TIP3    H135287   3.164   6.222   1.624  2.6400 -0.9939 -0.3822
 4624TIP3    H235288   3.132   6.080   1.583  1.9834 -0.3828 -2.1227
 4625TIP3   OH235289   1.050   0.248   5.825  0.1153 -0.1985 -0.4284
 4625TIP3    H135290   1.134   0.273   5.862 -0.5041  0.7453  0.4095
 4625TIP3    H235291   0.986   0.272   5.893 -0.9953  0.8729 -1.8103
 4626TIP3   OH235292   4.372   5.097  16.678  0.2793 -0.3452 -0.2718
 4626TIP3    H135293   4.313   5.046  16.734 -1.4721  1.4628 -0.3541
 4626TIP3    H235294   4.413   5.160  16.737 -1.7473  1.7185 -0.9330
 4627TIP3   OH235295   0.805   1.091  17.009  0.0604  0.1654  0.4979
 4627TIP3    H135296   0.899   1.095  16.991  0.0818 -0.2639  0.4842
 4627TIP3    H235297   0.764   1.081  16.922  0.1907 -2.3158  0.6501
 4628TIP3   OH235298   4.676   6.697  11.836 -0.0345  0.4469 -0.8003
 4628TIP3    H135299   4.581   6.697  11.853 -0.0974 -0.0057 -1.1368
 4628TIP3    H235300   4.709   6.770  11.888 -0.4317  0.0114  0.0987
 4629TIP3   OH235301   2.750   3.039  11.400  0.2403 -0.2165 -0.2498
 4629TIP3    H135302   2.691   3.067  11.470  0.9052  2.0323 -0.5136
 4629TIP3    H235303   2.725   3.093  11.325  1.2093 -0.7918 -1.0098
 4630TIP3   OH235304   3.346   3.051  16.387  0.4097  0.5721 -1.0193
 4630TIP3    H135305   3.250   3.053  16.386  0.4106  1.0433 -0.6515
 4630TIP3    H235306   3.368   2.961  16.411  0.0266  0.8946  0.6431
 4631TIP3   OH235307   4.664   0.888  12.096  0.1214  0.1081 -0.4491
 4631TIP3    H135308   4.665   0.850  12.008 -1.3273 -3.0083  0.7369
 4631TIP3    H235309   4.621   0.972  12.085 -1.8549 -1.0398 -2.4881
 4632TIP3   OH235310   5.197   5.273   3.779 -0.5639  0.0232  0.3757
 4632TIP3    H135311   5.212   5.367   3.776 -1.7430  0.2198 -0.1412
 4632TIP3    H235312   5.245   5.238   3.704  0.6432  0.0759  1.1039
 4633TIP3   OH235313   4.220   0.831  12.422  0.0214  0.0668  0.5794
 4633TIP3    H135314   4.282   0.882  12.370 -0.9718 -0.4237 -1.1730
 4633TIP3    H235315   4.275   0.768  12.469  0.8863 -0.1795 -0.7082
 4634TIP3   OH235316   1.866   4.890  12.347  0.0543 -0.2918  0.1629
 4634TIP3    H135317   1.843   4.951  12.276  1.8558 -1.2164 -1.3143
 4634TIP3    H235318   1.787   4.837  12.359 -0.4832  0.2557 -0.7979
 4635TIP3   OH235319   4.484   0.712   3.096  0.2186  0.1731  0.4251
 4635TIP3    H135320   4.445   0.625   3.101  2.1504 -0.7879 -0.5135
 4635TIP3    H235321   4.484   0.734   3.003 -0.3833  1.2730  0.6589
 4636TIP3   OH235322   2.685   4.439   0.668  0.0736 -0.2431 -0.0613
 4636TIP3    H135323   2.643   4.357   0.693  0.2473 -0.9168 -1.8063
 4636TIP3    H235324   2.629   4.474   0.599  2.3271 -1.3001 -2.6550
 4637TIP3   OH235325   5.532   6.656   1.812 -0.1506  0.2792 -0.1068
 4637TIP3    H135326   5.457   6.710   1.788 -1.3030 -0.5913  1.3298
 4637TIP3    H235327   5.533   6.585   1.748 -0.5007  0.3491 -0.1885
 4638TIP3   OH235328   3.554   5.327   6.708 -0.5485  0.3559 -0.4321
 4638TIP3    H135329   3.607   5.401   6.679 -2.1834  1.7617  0.0533
 4638TIP3    H235330   3.565   5.261   6.639  1.8999  0.5098 -0.2958
 4639TIP3   OH235331   5.160   6.278  12.479  0.1558  0.1534  0.5803
 4639TIP3    H135332   5.254   6.282  12.464  0.1469  0.5234  0.6190
 4639TIP3    H235333   5.152   6.269  12.574  0.2286 -2.6917  0.4038
 4640TIP3   OH235334   1.933   2.166   5.796  0.1145 -0.7327  0.3703
 4640TIP3    H135335   2.020   2.187   5.829  0.0284 -0.5331  0.4746
 4640TIP3    H235336   1.938   2.074   5.770  1.0232 -0.1220 -1.8167
 4641TIP3   OH235337   2.337   0.278  13.784  0.1517  0.0827 -0.1302
 4641TIP3    H135338   2.309   0.230  13.862  1.0390  0.7000  0.6054
 4641TIP3    H235339   2.256   0.304  13.741 -0.5181  2.0863  2.0836
 4642TIP3   OH235340   1.104   0.865  12.077 -0.0566 -0.0670 -0.3404
 4642TIP3    H135341   1.085   0.892  11.988 -1.4615 -1.6628 -0.5962
 4642TIP3    H235342   1.068   0.935  12.132 -1.0101 -0.0082 -1.0099
 4643TIP3   OH235343   1.377   1.713  12.662 -0.1551  1.0881  0.0320
 4643TIP3    H135344   1.316   1.647  12.629 -0.0180  0.9953 -0.0407
 4643TIP3    H235345   1.427   1.739  12.584 -0.1978  1.2640  0.0654
 4644TIP3   OH235346   5.788   0.767  16.664 -0.3564  0.0750 -0.6716
 4644TIP3    H135347   5.869   0.790  16.620 -1.6948  2.2738 -2.1383
 4644TIP3    H235348   5.721   0.768  16.595 -1.7959 -0.8646  0.6267
 4645TIP3   OH235349   3.813   6.360   4.769 -1.0034 -0.3455  0.1989
 4645TIP3    H135350   3.861   6.347   4.687  1.4038  1.4305  1.1990
 4645TIP3    H235351   3.736   6.411   4.745 -1.4663 -1.6406 -1.2050
 4646TIP3   OH235352   0.175   0.228  11.061  0.1911 -0.8205  0.8418
 4646TIP3    H135353   0.204   0.315  11.090 -0.0724 -1.1588  2.1562
 4646TIP3    H235354   0.189   0.229  10.966  0.3877  0.5813  0.8666
 4647TIP3   OH235355   5.290   2.645  13.164 -0.1247 -0.1814  0.4465
 4647TIP3    H135356   5.245   2.729  13.150  0.8783  0.1621 -0.8322
 4647TIP3    H235357   5.277   2.627  13.257 -1.2753  0.8508  0.5180
 4648TIP3   OH235358   0.206   2.634   2.600 -0.4279  0.2010 -0.0577
 4648TIP3    H135359   0.191   2.645   2.694 -1.9947  0.1210 -0.2676
 4648TIP3    H235360   0.119   2.638   2.561 -0.1151 -2.3083 -1.2454
 4649TIP3   OH235361   6.807   5.546  15.411 -0.0952 -0.8161 -0.2709
 4649TIP3    H135362   6.868   5.556  15.338 -0.1706 -0.4184 -0.2815
 4649TIP3    H235363   6.727   5.589  15.381 -0.0559 -0.4643  0.1342
 4650TIP3   OH235364   4.825   5.557   5.049  0.0798  0.1831 -0.0265
 4650TIP3    H135365   4.824   5.625   5.117  0.8910  0.0429  0.1445
 4650TIP3    H235366   4.896   5.584   4.991 -0.6761  0.3592 -0.8898
 4651TIP3   OH235367   3.260   6.770   5.697 -0.0031  0.1319  0.1874
 4651TIP3    H135368   3.244   6.828   5.772  0.2587 -1.9378  1.9401
 4651TIP3    H235369   3.174   6.735   5.675  0.0084  0.2631 -0.0612
 4652TIP3   OH235370   6.629   4.709  15.142 -0.5989 -0.2482 -0.4878
 4652TIP3    H135371   6.563   4.650  15.179 -0.2274  0.3380  1.1841
 4652TIP3    H235372   6.578   4.776  15.096 -1.1477 -0.2369  0.1199
 4653TIP3   OH235373   6.631   1.738   4.979  0.2134 -0.4517 -0.6475
 4653TIP3    H135374   6.678   1.808   4.933  0.4841  1.4388  2.2943
 4653TIP3    H235375   6.548   1.778   5.006 -0.4073 -1.8318 -0.3798
 4654TIP3   OH235376   1.518   0.176  11.263 -0.0022 -0.3210 -0.3271
 4654TIP3    H135377   1.505   0.100  11.207 -0.4994 -0.5621  0.1119
 4654TIP3    H235378   1.608   0.204  11.245 -0.1937 -0.3106 -1.3447
 4655TIP3   OH235379   0.660   3.628  10.910  0.3745 -0.3445  0.3428
 4655TIP3    H135380   0.618   3.561  10.964  0.1438 -1.2718 -0.9354
 4655TIP3    H235381   0.700   3.579  10.838  1.2064  0.7940  0.0018
 4656TIP3   OH235382   2.644   5.746  13.520  0.3986 -0.4816 -0.3444
 4656TIP3    H135383   2.632   5.652  13.505  1.5693 -0.9435  1.3435
 4656TIP3    H235384   2.645   5.755  13.615  1.1877  1.1308 -0.4737
 4657TIP3   OH235385   4.500   5.873  12.498  0.3268  0.4191  0.3227
 4657TIP3    H135386   4.560   5.942  12.524  1.1847 -0.2830  0.2731
 4657TIP3    H235387   4.520   5.857  12.405  1.4780 -1.1474  0.7863
 4658TIP3   OH235388   1.129   4.379  16.160 -0.3638 -0.1769  0.4303
 4658TIP3    H135389   1.208   4.346  16.119 -0.8345 -0.1944 -0.5061
 4658TIP3    H235390   1.091   4.304  16.205 -0.2125 -0.3476  0.2745
 4659TIP3   OH235391   0.081   5.881   4.592 -0.2587  0.0213  0.1315
 4659TIP3    H135392  -0.008   5.859   4.619 -0.4015  2.2663  1.8765
 4659TIP3    H235393   0.134   5.863   4.669  0.5927 -0.1182 -0.4752
 4660TIP3   OH235394   0.256   5.648   2.812  0.0108 -0.7503  0.2340
 4660TIP3    H135395   0.277   5.562   2.848  0.9270 -1.0595 -0.9720
 4660TIP3    H235396   0.297   5.710   2.872  0.9001 -1.2276  0.1371
 4661TIP3   OH235397   4.548   6.742  15.136 -0.1694 -0.2074 -0.4893
 4661TIP3    H135398   4.529   6.774  15.048 -1.0354 -1.4207 -0.7703
 4661TIP3    H235399   4.627   6.791  15.163 -1.6113  2.4173 -0.7010
 4662TIP3   OH235400   2.308   2.899   5.033 -0.0330 -0.4812 -0.3412
 4662TIP3    H135401   2.357   2.974   4.999 -0.7123  0.5910  0.9315
 4662TIP3    H235402   2.335   2.893   5.125 -1.0000 -0.9655 -0.0792
 4663TIP3   OH235403   2.439   4.127   5.098 -0.3227 -0.3560 -0.1277
 4663TIP3    H135404   2.420   4.155   5.188 -0.3545 -0.6187 -0.0515
 4663TIP3    H235405   2.460   4.208   5.052 -0.8978 -0.1415 -0.0288
 4664TIP3   OH235406   1.152   4.655  16.852 -0.1336 -0.7981 -0.3965
 4664TIP3    H135407   1.224   4.714  16.874 -0.3041 -0.4729 -0.7030
 4664TIP3    H235408   1.151   4.591  16.923  0.3326 -0.6893 -0.2886
 4665TIP3   OH235409   4.082   3.964  14.191  0.2147  0.4082 -0.9845
 4665TIP3    H135410   4.070   3.996  14.102 -2.1778  0.9381 -0.5449
 4665TIP3    H235411   4.034   4.026  14.246  0.0737 -0.9154  0.4781
 4666TIP3   OH235412   6.740   5.866   3.045 -0.7804  0.1186  0.4742
 4666TIP3    H135413   6.692   5.825   3.117 -1.2041 -1.6891 -0.7580
 4666TIP3    H235414   6.790   5.794   3.006  2.4461  1.7642  1.2176
 4667TIP3   OH235415   6.706   2.344   0.428  0.0918 -0.9230  0.3173
 4667TIP3    H135416   6.649   2.416   0.455 -0.9559 -1.2918 -0.8104
 4667TIP3    H235417   6.659   2.303   0.355  0.5621 -2.8313  1.0219
 4668TIP3   OH235418   4.121   2.720  12.531 -0.0742  0.0790  0.5540
 4668TIP3    H135419   4.046   2.780  12.524  0.6255  0.8698 -0.3371
 4668TIP3    H235420   4.176   2.742  12.456  0.6359 -1.0873  0.7203
 4669TIP3   OH235421   1.056   4.481  10.954  0.4556 -0.0111  0.0653
 4669TIP3    H135422   0.985   4.496  10.892  0.1772  0.7344  0.5651
 4669TIP3    H235423   1.050   4.552  11.017  0.4231 -1.0370  1.2588
 4670TIP3   OH235424   3.457   6.440  12.533 -0.4027  0.2752  0.6062
 4670TIP3    H135425   3.465   6.511  12.597  1.1662  1.2655 -0.5852
 4670TIP3    H235426   3.543   6.398  12.534 -0.6325 -0.2254 -0.2304
 4671TIP3   OH235427   2.026   2.953   3.963  0.0659 -0.2118 -0.1157
 4671TIP3    H135428   2.000   2.894   4.034  1.8170 -0.0683  0.6995
 4671TIP3    H235429   2.036   3.039   4.006 -1.8163  0.5846 -1.1599
 4672TIP3   OH235430   3.225   3.661   0.755  0.0667 -0.0097  0.4029
 4672TIP3    H135431   3.173   3.721   0.702  1.3995  0.4022 -0.5043
 4672TIP3    H235432   3.230   3.704   0.841 -0.2726  0.4201  0.2123
 4673TIP3   OH235433   6.037   5.373  11.677  0.3211  0.5831  0.1509
 4673TIP3    H135434   6.055   5.325  11.596  0.0289 -0.6387  0.7873
 4673TIP3    H235435   5.965   5.432  11.654  0.0075  0.0014 -0.3901
 4674TIP3   OH235436   2.804   3.863  14.324  0.0103  0.5693 -0.6561
 4674TIP3    H135437   2.851   3.922  14.265  0.9622  1.0332  0.5082
 4674TIP3    H235438   2.728   3.913  14.353 -0.5443  0.2821 -1.5817
 4675TIP3   OH235439   5.167   6.177   0.147 -0.4286  0.1770  0.0390
 4675TIP3    H135440   5.181   6.255   0.092  1.4430 -0.1806 -0.0520
 4675TIP3    H235441   5.075   6.184   0.174 -0.4905  2.0862 -0.4607
 4676TIP3   OH235442   6.344   5.326   3.114  0.0793  0.1405 -0.3282
 4676TIP3    H135443   6.335   5.415   3.081  0.4022  0.5987  0.7695
 4676TIP3    H235444   6.438   5.310   3.115  0.1301  0.3706  0.8948
 4677TIP3   OH235445   2.159   5.789  11.415  0.5054  0.1557  0.6174
 4677TIP3    H135446   2.235   5.816  11.465 -0.2621 -0.3823  2.1414
 4677TIP3    H235447   2.192   5.722  11.354  1.4556  0.8499  0.3561
 4678TIP3   OH235448   0.109   2.268  10.855  0.4056 -0.7049  0.2700
 4678TIP3    H135449   0.016   2.261  10.837  0.3936 -1.0511  0.4501
 4678TIP3    H235450   0.134   2.354  10.821 -0.1820 -0.1864  1.1240
 4679TIP3   OH235451   5.688   6.222   5.570 -0.1197  0.3417  0.4240
 4679TIP3    H135452   5.704   6.316   5.563 -0.3704  0.4484  1.2052
 4679TIP3    H235453   5.622   6.214   5.639 -1.4767 -0.2760 -0.8738
 4680TIP3   OH235454   6.773   5.446  11.462  0.3981  0.2104  0.2633
 4680TIP3    H135455   6.771   5.372  11.401 -2.0376  1.3139 -1.1493
 4680TIP3    H235456   6.742   5.520  11.411  0.4532  1.7182  2.2830
 4681TIP3   OH235457   1.093   4.355  12.088  0.3135 -0.1576 -0.2310
 4681TIP3    H135458   1.143   4.380  12.166  0.8829  0.2819 -0.7318
 4681TIP3    H235459   1.030   4.425  12.077  0.1068 -0.3139 -0.0670
 4682TIP3   OH235460   6.174   4.791  14.906  0.1876  0.1540  0.6544
 4682TIP3    H135461   6.220   4.709  14.923 -0.7103 -0.0469  2.3457
 4682TIP3    H235462   6.146   4.821  14.993 -2.0149  0.7636 -0.2080
 4683TIP3   OH235463   3.566   6.819   5.807 -0.6234 -0.0139 -0.1034
 4683TIP3    H135464   3.528   6.776   5.884  1.0090 -0.9699  0.2327
 4683TIP3    H235465   3.626   6.884   5.843  1.0180 -1.2439 -0.4933
 4684TIP3   OH235466   5.436   0.248  15.019 -0.0017  0.0212 -0.0853
 4684TIP3    H135467   5.446   0.223  15.111  0.0713 -0.2485 -0.1668
 4684TIP3    H235468   5.391   0.333  15.022  0.6305  0.3518  0.2196
 4685TIP3   OH235469   2.862   2.190   4.152  0.1716 -0.3357 -0.2151
 4685TIP3    H135470   2.929   2.173   4.218  0.7697 -0.7942 -0.9304
 4685TIP3    H235471   2.791   2.233   4.200  0.2577 -1.3710  0.8887
 4686TIP3   OH235472   6.438   6.725   3.865 -0.5310 -0.0532 -0.1232
 4686TIP3    H135473   6.477   6.640   3.884  0.3968  0.2860 -0.4183
 4686TIP3    H235474   6.355   6.725   3.912  0.0378 -0.6279  0.9346
 4687TIP3   OH235475   3.066   0.963   2.905  0.4289 -0.0377 -0.1147
 4687TIP3    H135476   3.073   1.047   2.950 -0.6587  0.1152 -0.2159
 4687TIP3    H235477   2.980   0.930   2.928  0.5848 -0.8241 -0.6119
 4688TIP3   OH235478   5.454   6.104  11.543  0.5261 -0.3411  0.2376
 4688TIP3    H135479   5.489   6.175  11.598  0.9683 -1.2988  1.2507
 4688TIP3    H235480   5.461   6.026  11.599  1.3924 -1.4410 -1.3307
 4689TIP3   OH235481   1.675   2.743  13.987  0.2688 -0.0574 -0.3290
 4689TIP3    H135482   1.701   2.774  14.074 -3.1902  0.5326  0.6730
 4689TIP3    H235483   1.730   2.791  13.926  0.4041  2.2130  1.4623
 4690TIP3   OH235484   0.530   4.894  12.536  0.1455 -0.1320  0.5152
 4690TIP3    H135485   0.523   4.858  12.448 -1.9240  0.8360  0.2185
 4690TIP3    H235486   0.538   4.816  12.592 -1.7321 -0.9845 -0.3015
 4691TIP3   OH235487   5.007   0.672   3.438  0.0654  0.0484 -0.5362
 4691TIP3    H135488   4.921   0.675   3.480  0.0955  1.2580 -0.5270
 4691TIP3    H235489   5.001   0.598   3.377 -1.1309  0.3770 -0.8529
 4692TIP3   OH235490   3.138   1.396   2.828  0.1846  0.1069  0.2939
 4692TIP3    H135491   3.116   1.450   2.904  0.7930  1.7787 -0.6654
 4692TIP3    H235492   3.188   1.323   2.865  0.4806  0.8828  1.5081
 4693TIP3   OH235493   3.641   4.827   4.824 -0.1185  0.1873 -0.6758
 4693TIP3    H135494   3.673   4.737   4.821 -1.3707 -0.2554 -1.5237
 4693TIP3    H235495   3.569   4.826   4.886  0.3469  0.7840 -0.1108
 4694TIP3   OH235496   3.114   4.321   0.197 -0.0103 -0.1059  0.1101
 4694TIP3    H135497   3.042   4.355   0.250  1.4781  0.6198  1.7370
 4694TIP3    H235498   3.193   4.348   0.243  1.3091 -1.9948 -0.9154
 4695TIP3   OH235499   3.030   6.688  15.289  0.3223  0.0823  0.3038
 4695TIP3    H135500   3.079   6.704  15.209  1.4157 -0.4900  0.8451
 4695TIP3    H235501   3.094   6.695  15.359 -0.1501 -1.6044  0.9609
 4696TIP3   OH235502   0.857   3.306  11.143 -0.4282  0.2576 -0.5138
 4696TIP3    H135503   0.835   3.248  11.070 -1.6248 -2.3568  1.7576
 4696TIP3    H235504   0.787   3.294  11.206  1.2325  1.3216  1.6837
 4697TIP3   OH235505   4.627   1.487  11.968 -0.3738  0.3588 -0.1257
 4697TIP3    H135506   4.711   1.444  11.983 -0.3243 -0.2848 -1.9332
 4697TIP3    H235507   4.613   1.542  12.045  0.7278 -1.0577  1.1213
 4698TIP3   OH235508   5.868   2.523   6.265 -0.5357  0.0779 -0.4792
 4698TIP3    H135509   5.799   2.582   6.236 -0.3821  1.3130  1.4799
 4698TIP3    H235510   5.822   2.448   6.301 -0.7403 -0.8749 -2.6204
 4699TIP3   OH235511   2.751   2.672  14.538  0.6335  0.2673 -0.5442
 4699TIP3    H135512   2.835   2.629  14.527  1.2328  1.5970 -1.4365
 4699TIP3    H235513   2.709   2.665  14.451  0.2203  0.4214 -0.3609
 4700TIP3   OH235514   5.497   6.446  11.413 -0.1887  0.3386 -0.3414
 4700TIP3    H135515   5.534   6.411  11.332  0.4887  0.1332  0.0585
 4700TIP3    H235516   5.508   6.377  11.477 -3.1620 -0.5999 -0.6761
 4701TIP3   OH235517   4.176   4.806   3.980  0.6824 -0.0252 -0.6103
 4701TIP3    H135518   4.122   4.841   4.051  1.0949 -0.5848 -0.0197
 4701TIP3    H235519   4.189   4.881   3.921 -1.7795 -0.1508 -1.4438
 4702TIP3   OH235520   1.834   2.717  13.729  0.0433 -0.3104 -0.4404
 4702TIP3    H135521   1.893   2.730  13.803 -0.5713  0.2295 -0.0373
 4702TIP3    H235522   1.856   2.630  13.696 -0.0605 -0.8025  0.7364
 4703TIP3   OH235523   4.454   3.212   0.435 -0.3822 -0.2456  0.6364
 4703TIP3    H135524   4.417   3.174   0.514 -0.4501 -2.5689 -0.4355
 4703TIP3    H235525   4.381   3.259   0.394 -2.0267 -3.7159 -0.8067
 4704TIP3   OH235526   0.452   2.491   0.930 -0.1982  0.2455  0.0577
 4704TIP3    H135527   0.500   2.572   0.912  1.1034 -0.6189 -0.5419
 4704TIP3    H235528   0.364   2.520   0.953  0.2628  1.8325 -0.0221
 4705TIP3   OH235529   2.228   5.992  11.876 -0.2683  0.2843 -0.8080
 4705TIP3    H135530   2.185   6.006  11.791  0.6884  0.2133 -1.3086
 4705TIP3    H235531   2.213   5.900  11.896 -2.8029  0.8456  0.4151
 4706TIP3   OH235532   0.269   6.138   1.763  0.4601 -0.5803 -0.4089
 4706TIP3    H135533   0.222   6.073   1.815  0.5900 -0.6022 -0.3195
 4706TIP3    H235534   0.204   6.169   1.699  0.2992 -0.5529 -0.2340
 4707TIP3   OH235535   4.746   5.778   1.080 -0.5178  0.4649 -0.5921
 4707TIP3    H135536   4.807   5.797   1.152 -1.0349  0.9763 -0.2785
 4707TIP3    H235537   4.803   5.765   1.004  0.0632 -0.5635 -0.0051
 4708TIP3   OH235538   4.233   5.616  13.568  0.0999 -0.3760  0.0172
 4708TIP3    H135539   4.138   5.628  13.577  0.0349 -1.1996  0.4960
 4708TIP3    H235540   4.259   5.682  13.504 -0.6763  0.3754  0.4490
 4709TIP3   OH235541   4.159   0.926   5.410 -0.2724  0.0755  0.2774
 4709TIP3    H135542   4.166   0.830   5.410 -1.0017 -0.0063 -1.1773
 4709TIP3    H235543   4.246   0.956   5.383 -0.4896 -0.2594 -0.8584
 4710TIP3   OH235544   6.530   4.240  15.390 -0.1001 -0.0797 -0.2331
 4710TIP3    H135545   6.595   4.170  15.404  2.5810  2.2241 -0.1880
 4710TIP3    H235546   6.521   4.282  15.475  1.0050  1.7070 -0.9497
 4711TIP3   OH235547   3.175   0.248   1.208  0.2052  0.5110  0.1672
 4711TIP3    H135548   3.161   0.156   1.185 -2.8630  1.3727 -2.1780
 4711TIP3    H235549   3.102   0.270   1.266  0.3335  1.6736 -0.0854
 4712TIP3   OH235550   5.803   5.089  16.221 -0.0195 -0.1400 -0.2702
 4712TIP3    H135551   5.718   5.077  16.178 -1.7483  2.0464  2.1915
 4712TIP3    H235552   5.842   5.165  16.179 -1.5724  1.8153  1.6389
 4713TIP3   OH235553   6.615   3.749   0.701  0.5740 -0.0532 -0.3494
 4713TIP3    H135554   6.651   3.713   0.782 -1.2028 -0.0085  0.4884
 4713TIP3    H235555   6.575   3.675   0.657 -0.2810  0.3005 -0.1741
 4714TIP3   OH235556   4.286   1.296   3.130 -0.3723  0.2809  0.0741
 4714TIP3    H135557   4.260   1.350   3.205 -1.9334 -0.7595  0.3292
 4714TIP3    H235558   4.224   1.320   3.061 -0.8313 -0.8445  0.0632
 4715TIP3   OH235559   5.317   5.939  13.049  0.4520  0.3122 -0.1626
 4715TIP3    H135560   5.342   5.866  13.106  0.7171 -0.1164 -0.8186
 4715TIP3    H235561   5.255   5.900  12.987  0.8526  0.5674 -0.7247
 4716TIP3   OH235562   2.461   1.394   1.763  0.5295 -0.1427 -0.6588
 4716TIP3    H135563   2.492   1.384   1.853  0.1100  0.2005 -0.4741
 4716TIP3    H235564   2.398   1.323   1.750 -0.6306  0.7615 -0.1409
 4717TIP3   OH235565   5.758   6.471  12.796  0.5128 -0.3701  0.3468
 4717TIP3    H135566   5.815   6.545  12.820 -1.0611  0.7233  0.8428
 4717TIP3    H235567   5.730   6.492  12.707  0.0485 -0.3670  0.4947
 4718TIP3   OH235568   3.111   5.923   1.966 -0.1652 -0.1283 -0.2504
 4718TIP3    H135569   3.177   5.942   2.032 -0.4731 -0.9152  0.3075
 4718TIP3    H235570   3.031   5.904   2.016 -0.6456  0.1707 -0.8860
 4719TIP3   OH235571   4.888   3.565  11.173 -0.0741 -0.5827  0.3547
 4719TIP3    H135572   4.924   3.623  11.106  0.2687 -0.8313  0.3234
 4719TIP3    H235573   4.965   3.533  11.221 -0.3676  0.6572  1.7568
 4720TIP3   OH235574   6.004   1.531   6.623 -0.0492 -0.1261  0.2943
 4720TIP3    H135575   5.943   1.462   6.653 -0.6325  0.3908  0.3195
 4720TIP3    H235576   5.954   1.612   6.632  0.4049  0.2311 -0.3672
 4721TIP3   OH235577   4.246   4.016   0.126 -0.3810 -0.0204  0.9704
 4721TIP3    H135578   4.256   3.958   0.050 -0.4182 -0.3863  1.2442
 4721TIP3    H235579   4.173   4.074   0.102 -0.3910 -0.1302  0.7270
 4722TIP3   OH235580   5.762   2.767   2.638  0.1805 -0.4409 -1.0736
 4722TIP3    H135581   5.812   2.734   2.713 -1.5466 -0.5129  0.0935
 4722TIP3    H235582   5.815   2.840   2.605  0.9741 -0.4007  0.2167
 4723TIP3   OH235583   5.019   1.805  15.729 -0.5007 -0.1178  1.0341
 4723TIP3    H135584   5.099   1.785  15.777 -0.5242 -1.5555  0.5355
 4723TIP3    H235585   4.976   1.720  15.718 -0.3838  0.0876 -1.6801
 4724TIP3   OH235586   2.240   1.589   4.274  0.0005  0.3716  0.9343
 4724TIP3    H135587   2.197   1.538   4.343 -2.6060  1.1808  0.0255
 4724TIP3    H235588   2.189   1.572   4.196  0.3437  2.6872  0.1133
 4725TIP3   OH235589   4.194   0.423   4.137 -0.2892  0.5985  0.2453
 4725TIP3    H135590   4.141   0.494   4.173  1.2018  0.8726  2.0363
 4725TIP3    H235591   4.183   0.432   4.042 -0.3716  3.0780  0.4031
 4726TIP3   OH235592   0.758   2.677  15.909 -0.0823  0.5426  0.2923
 4726TIP3    H135593   0.784   2.643  15.995 -1.8790 -0.3388  0.5297
 4726TIP3    H235594   0.828   2.651  15.850 -0.8741 -2.7950  0.6535
 4727TIP3   OH235595   2.231   3.661  10.751 -0.5853  0.0280 -0.4815
 4727TIP3    H135596   2.301   3.726  10.759 -1.3599  0.7806  0.4432
 4727TIP3    H235597   2.162   3.706  10.702 -0.7686 -0.4072 -0.6241
 4728TIP3   OH235598   6.351   5.692  10.752  0.3277 -0.6667 -0.4551
 4728TIP3    H135599   6.444   5.690  10.771  0.1426 -0.5498  0.5083
 4728TIP3    H235600   6.343   5.653  10.664  1.2342 -1.0255 -0.3831
 4729TIP3   OH235601   0.649   5.902  12.381  0.2811  0.2629 -0.0104
 4729TIP3    H135602   0.563   5.923  12.344  0.0492 -0.9974 -0.2457
 4729TIP3    H235603   0.710   5.918  12.309  0.5324  3.0372  0.7268
 4730TIP3   OH235604   6.713   5.670  10.319 -0.3338  0.3754  1.0448
 4730TIP3    H135605   6.684   5.581  10.297 -0.0831  0.3531  0.8161
 4730TIP3    H235606   6.637   5.725  10.300  0.0745  0.4448 -0.4504
 4731TIP3   OH235607   2.393   2.988   0.052  0.1701 -0.1929  0.4537
 4731TIP3    H135608   2.397   2.979  -0.043 -1.8321 -1.4770  0.4611
 4731TIP3    H235609   2.307   2.957   0.076  0.7688 -0.2226  2.7585
 4732TIP3   OH235610   6.128   5.865  14.462 -0.9615  0.2808 -0.1719
 4732TIP3    H135611   6.161   5.853  14.551  2.9739 -1.7824 -1.6418
 4732TIP3    H235612   6.197   5.914  14.417 -1.9562 -0.3070 -2.5151
 4733TIP3   OH235613   1.028   1.485  14.921  0.1467  0.7321  0.4711
 4733TIP3    H135614   1.109   1.495  14.971  0.9650 -1.9255 -0.1416
 4733TIP3    H235615   0.985   1.409  14.960 -1.0456  0.8624 -0.5094
 4734TIP3   OH235616   4.673   1.810  14.078  0.7029 -0.8492 -0.1989
 4734TIP3    H135617   4.608   1.746  14.108 -1.1559  1.0453  0.0061
 4734TIP3    H235618   4.710   1.846  14.158  0.4993 -0.4641 -0.2754
 4735TIP3   OH235619   6.762   3.297  11.537  0.2268 -0.0544  0.0933
 4735TIP3    H135620   6.811   3.282  11.618 -0.0907 -0.9755  0.1191
 4735TIP3    H235621   6.731   3.211  11.511  3.1909 -0.4613 -2.8728
 4736TIP3   OH235622   1.203   4.192  16.580  0.1754  0.1388  0.0475
 4736TIP3    H135623   1.145   4.226  16.512 -0.3682  0.5785  0.7158
 4736TIP3    H235624   1.144   4.159  16.648  0.6296 -2.9523 -0.8977
 4737TIP3   OH235625   6.180   2.202   5.183  0.5736  0.0029 -0.3786
 4737TIP3    H135626   6.157   2.256   5.108  0.5695  0.8454  0.2144
 4737TIP3    H235627   6.264   2.162   5.159  0.1248 -0.4622 -1.1925
 4738TIP3   OH235628   5.039   2.888   1.629 -0.4439 -0.0128 -0.5039
 4738TIP3    H135629   4.991   2.928   1.557 -0.9486 -0.1555 -0.2519
 4738TIP3    H235630   5.027   2.794   1.617  0.2077 -0.0749 -0.7311
 4739TIP3   OH235631   4.626   5.797   4.972  0.0421 -0.2112  0.1527
 4739TIP3    H135632   4.608   5.732   5.040 -0.4703  1.8776  2.1606
 4739TIP3    H235633   4.546   5.851   4.968  1.3225  1.8446  0.4862
 4740TIP3   OH235634   1.153   6.224  15.872  0.5365  0.3079  0.1702
 4740TIP3    H135635   1.105   6.201  15.793  0.5106  1.2511 -0.1091
 4740TIP3    H235636   1.143   6.319  15.879  0.3552  0.2198  1.4252
 4741TIP3   OH235637   6.565   3.541   1.239  0.2252 -0.0731  0.0291
 4741TIP3    H135638   6.618   3.462   1.223  0.2705  0.2713 -1.6251
 4741TIP3    H235639   6.620   3.613   1.210  0.2401  0.6291  1.6694
 4742TIP3   OH235640   3.265   1.378   1.499  0.5380 -0.1149 -0.3076
 4742TIP3    H135641   3.346   1.415   1.533  0.5236 -0.5817  0.2535
 4742TIP3    H235642   3.222   1.341   1.576 -0.3200  0.3305 -0.5588
 4743TIP3   OH235643   5.338   4.575   4.698  0.0210  0.1396 -0.4581
 4743TIP3    H135644   5.410   4.630   4.730 -0.7867  0.1731  1.4269
 4743TIP3    H235645   5.262   4.634   4.696 -0.2470 -0.2254 -1.1408
 4744TIP3   OH235646   1.749   2.342   4.352  0.0954  0.1882  0.7054
 4744TIP3    H135647   1.755   2.307   4.264 -1.1476 -0.4537  0.8575
 4744TIP3    H235648   1.775   2.434   4.343 -0.4981  0.2621 -0.4133
 4745TIP3   OH235649   0.577   4.119  16.414  0.7108  0.3803 -0.1339
 4745TIP3    H135650   0.589   4.030  16.382  1.6681 -0.1642  1.6488
 4745TIP3    H235651   0.638   4.172  16.362 -0.1053  0.0884 -1.4370
 4746TIP3   OH235652   0.022   5.031  14.078 -0.5147 -0.1367  0.5420
 4746TIP3    H135653   0.103   5.052  14.031  0.3756 -1.0662  1.5918
 4746TIP3    H235654  -0.001   5.112  14.124  0.1628 -0.0335  0.7103
 4747TIP3   OH235655   2.594   2.071   4.520 -0.8018  0.4282 -0.0525
 4747TIP3    H135656   2.537   2.148   4.518  0.4764  1.3891 -1.4820
 4747TIP3    H235657   2.602   2.045   4.429 -1.0654 -1.3296  0.3893
 4748TIP3   OH235658   2.918   6.511  12.700  0.0996  0.5252  0.7270
 4748TIP3    H135659   2.876   6.518  12.786 -0.5353 -0.8672  0.5581
 4748TIP3    H235660   3.010   6.492  12.721  0.2517  1.5745  1.0832
 4749TIP3   OH235661   4.857   4.935   4.883 -0.2295  0.0569 -0.2201
 4749TIP3    H135662   4.811   4.914   4.801  0.2904  0.4959 -0.6280
 4749TIP3    H235663   4.920   5.002   4.858 -0.4974  0.6502  0.6721
 4750TIP3   OH235664   1.342   1.924  16.193  0.5163 -0.0276 -0.2119
 4750TIP3    H135665   1.403   1.850  16.207  0.4635 -0.1933 -0.8495
 4750TIP3    H235666   1.257   1.882  16.179  0.3368  0.1899  0.2101
 4751TIP3   OH235667   1.385   4.531  13.040 -0.1329  0.1260  0.1713
 4751TIP3    H135668   1.396   4.438  13.019  2.5153  0.3106  0.4454
 4751TIP3    H235669   1.423   4.540  13.128  0.5189  1.6108 -0.2434
 4752TIP3   OH235670   5.800   5.445   5.229  0.0412  0.0857 -0.2103
 4752TIP3    H135671   5.850   5.402   5.298  0.1131  0.9602  0.3058
 4752TIP3    H235672   5.722   5.479   5.273 -1.1714 -1.4915 -1.0571
 4753TIP3   OH235673   4.604   5.096  15.958  0.3924  0.0971  0.4945
 4753TIP3    H135674   4.593   5.023  15.897  0.3299 -0.5435  1.2530
 4753TIP3    H235675   4.519   5.102  16.004 -0.8182  2.7801 -1.7940
 4754TIP3   OH235676   4.235   4.076  13.095  0.2229  0.2728 -0.0602
 4754TIP3    H135677   4.291   4.100  13.022  0.5429  3.4084  1.0335
 4754TIP3    H235678   4.295   4.051  13.165 -0.0493 -1.8056 -0.4988
 4755TIP3   OH235679   0.210   4.953  15.919 -0.0857 -0.1798  0.1784
 4755TIP3    H135680   0.257   5.028  15.882 -0.5428  0.3140  0.5841
 4755TIP3    H235681   0.159   4.990  15.991 -0.5132 -0.8407  0.2198
 4756TIP3   OH235682   2.717   5.383  16.640 -0.0103  0.1574  1.1328
 4756TIP3    H135683   2.749   5.432  16.716  1.1454 -1.1847  1.5604
 4756TIP3    H235684   2.785   5.317  16.625 -0.8057 -0.3494 -0.3396
 4757TIP3   OH235685   4.600   1.723  12.173  0.0931  0.3955 -0.7328
 4757TIP3    H135686   4.670   1.663  12.200  0.3976 -0.5801 -3.4021
 4757TIP3    H235687   4.619   1.804  12.221  3.1384  0.1897 -1.3430
 4758TIP3   OH235688   6.323   2.267   2.002 -1.0369  0.4543  0.0383
 4758TIP3    H135689   6.320   2.181   2.043  2.0236 -0.3893 -1.1927
 4758TIP3    H235690   6.243   2.273   1.951 -1.2011 -1.8102 -0.0395
 4759TIP3   OH235691   2.200   4.103  14.853  0.6715  0.0837  0.0500
 4759TIP3    H135692   2.255   4.175  14.885 -0.6217 -0.1945  3.2701
 4759TIP3    H235693   2.123   4.146  14.816  1.1445  0.3899 -0.5864
 4760TIP3   OH235694   1.141   5.948  14.058  0.1996 -0.5962  0.0185
 4760TIP3    H135695   1.193   5.879  14.018 -0.7318 -1.1181 -0.3144
 4760TIP3    H235696   1.128   5.919  14.148  1.6674  0.2249  0.5356
 4761TIP3   OH235697   0.510   5.561  15.995 -0.2572 -0.1222  0.2317
 4761TIP3    H135698   0.520   5.471  15.962  2.2181  0.3252 -0.4823
 4761TIP3    H235699   0.444   5.600  15.938  2.2308 -0.0908 -2.9065
 4762TIP3   OH235700   1.022   2.631  14.822  0.3195  0.4999  0.9539
 4762TIP3    H135701   0.944   2.576  14.829 -0.0126  0.2992 -2.5213
 4762TIP3    H235702   0.989   2.719  14.804  0.9241  1.3215  3.3922
 4763TIP3   OH235703   3.253   1.275   6.245  0.1973 -0.0135  0.1392
 4763TIP3    H135704   3.338   1.316   6.260 -0.5812  1.6958  0.0873
 4763TIP3    H235705   3.242   1.214   6.319  1.3827 -0.1669  0.2131
 4764TIP3   OH235706   3.336   5.104  14.616  0.1313 -0.1594 -0.0838
 4764TIP3    H135707   3.308   5.119  14.707 -0.0012  0.7421 -0.2678
 4764TIP3    H235708   3.432   5.105  14.620  0.1587  2.0210 -0.2660
 4765TIP3   OH235709   0.983   3.143  13.277 -0.1586  0.4477  0.3760
 4765TIP3    H135710   0.909   3.199  13.254  0.0146  0.7766  0.6132
 4765TIP3    H235711   1.057   3.179  13.228  0.1111  0.8724  1.0863
 4766TIP3   OH235712   1.359   5.491  13.982  0.1687 -0.1177  0.2306
 4766TIP3    H135713   1.358   5.435  13.905 -1.0627  0.6226 -0.3343
 4766TIP3    H235714   1.420   5.562  13.960  2.7625 -1.8398  1.4637
 4767TIP3   OH235715   6.514   4.499   2.964  0.2019 -0.2833 -0.1093
 4767TIP3    H135716   6.501   4.437   3.035  0.5559 -0.9726 -0.6374
 4767TIP3    H235717   6.430   4.545   2.957 -0.2347 -1.0483 -0.0314
 4768TIP3   OH235718   2.338   0.746   4.142 -0.1348 -0.4039 -0.0007
 4768TIP3    H135719   2.386   0.714   4.219  0.5098 -0.5569 -0.4621
 4768TIP3    H235720   2.368   0.837   4.131 -1.2427  0.0748  0.7300
 4769TIP3   OH235721   1.195   5.676  15.818  0.2773  0.2662  0.2442
 4769TIP3    H135722   1.228   5.742  15.758  1.6652  0.1089  0.7841
 4769TIP3    H235723   1.263   5.608  15.818 -0.9418 -1.0050 -0.0268
 4770TIP3   OH235724   0.338   2.160  12.442 -0.2400 -0.7558  0.8541
 4770TIP3    H135725   0.271   2.148  12.374  1.5504 -0.7192 -1.0396
 4770TIP3    H235726   0.357   2.072  12.474  0.6914 -1.1327 -0.6087
 4771TIP3   OH235727   4.605   2.159  13.740 -0.0314  0.0033 -0.7349
 4771TIP3    H135728   4.645   2.073  13.725  0.3887  0.3410 -1.6281
 4771TIP3    H235729   4.679   2.215  13.764 -0.5582 -0.3121  1.9188
 4772TIP3   OH235730   4.743   5.558   3.023  0.1106 -0.9777  0.2470
 4772TIP3    H135731   4.823   5.608   3.003  0.0211 -0.7120  0.5516
 4772TIP3    H235732   4.748   5.543   3.117  0.6014 -2.3462  0.0282
 4773TIP3   OH235733   6.250   0.446   5.475  0.7690  0.0440  0.6493
 4773TIP3    H135734   6.325   0.388   5.491 -0.2806 -1.5748  0.0669
 4773TIP3    H235735   6.176   0.386   5.470 -0.6071  1.6377  1.4582
 4774TIP3   OH235736   1.233   5.264  14.596 -0.4748  0.6728  0.2566
 4774TIP3    H135737   1.151   5.277  14.547 -1.0590  2.1952  1.5339
 4774TIP3    H235738   1.205   5.245  14.685  0.4988  2.4133  1.0003
 4775TIP3   OH235739   6.174   5.633  13.922  0.0658  0.2223 -0.6218
 4775TIP3    H135740   6.157   5.712  13.870  1.2325  3.6306  3.5498
 4775TIP3    H235741   6.127   5.648  14.004  1.4473 -2.8244  0.8811
 4776TIP3   OH235742   0.385   5.945   0.732 -0.2376 -0.0421  0.2193
 4776TIP3    H135743   0.423   5.973   0.649 -0.4340 -1.8183 -0.5300
 4776TIP3    H235744   0.429   5.997   0.798  0.1963  1.1581 -0.9687
 4777TIP3   OH235745   2.474   2.177  10.439 -0.4081 -0.0857  0.1799
 4777TIP3    H135746   2.564   2.170  10.468 -0.1104  1.3388 -0.3025
 4777TIP3    H235747   2.455   2.093  10.398  0.4765 -0.6327  0.8544
 4778TIP3   OH235748   4.883   5.664  16.164 -0.6596 -0.2171 -0.0855
 4778TIP3    H135749   4.844   5.586  16.124 -0.5231  0.2876 -1.2276
 4778TIP3    H235750   4.973   5.665  16.133 -0.9411  0.9546 -0.9575
 4779TIP3   OH235751   1.150   5.447   4.669  0.1361  0.5200  0.6521
 4779TIP3    H135752   1.242   5.459   4.693  0.0975  0.6183  0.7535
 4779TIP3    H235753   1.118   5.381   4.729  0.4129 -0.2854 -0.0649
 4780TIP3   OH235754   5.358   5.251  12.830 -0.0583 -0.4300 -0.1058
 4780TIP3    H135755   5.305   5.189  12.780 -1.5674 -0.6906  1.7237
 4780TIP3    H235756   5.320   5.336  12.811  0.7527 -0.2520 -1.0470
 4781TIP3   OH235757   2.775   4.397   3.929 -0.3171  0.3652  0.1246
 4781TIP3    H135758   2.818   4.342   3.994  0.6259  0.7364 -0.1698
 4781TIP3    H235759   2.741   4.335   3.864 -0.6770  0.0385  0.6110
 4782TIP3   OH235760   1.733   6.584  13.810  0.1539 -0.4774  0.0857
 4782TIP3    H135761   1.723   6.587  13.905  0.6306  0.4260  0.1187
 4782TIP3    H235762   1.827   6.591  13.795  0.4918 -4.1101 -0.3656
 4783TIP3   OH235763   2.756   6.257   4.802  0.2968 -0.2724 -0.1489
 4783TIP3    H135764   2.709   6.319   4.858 -0.2245 -0.3569 -0.4924
 4783TIP3    H235765   2.816   6.312   4.752  1.9710 -0.3434  1.6383
 4784TIP3   OH235766   6.255   4.920  14.028  0.0170  0.5440  0.1588
 4784TIP3    H135767   6.316   4.909  13.955 -1.5064  1.0945 -1.2582
 4784TIP3    H235768   6.262   5.013  14.051 -0.1273  0.5545  0.1559
 4785TIP3   OH235769   0.998   5.539   6.026  0.2061  0.0302 -0.1498
 4785TIP3    H135770   1.088   5.515   6.047  0.1155  0.6402  1.0365
 4785TIP3    H235771   0.955   5.550   6.111 -1.2067 -0.9761 -0.6831
 4786TIP3   OH235772   1.250   3.015   5.436 -0.6763 -0.2912 -0.4473
 4786TIP3    H135773   1.255   2.961   5.515  1.5025  0.9335  0.3536
 4786TIP3    H235774   1.177   3.074   5.451 -0.2019  0.0167  0.7572
 4787TIP3   OH235775   4.085   5.160  16.586 -0.1923  0.1373  0.5214
 4787TIP3    H135776   4.170   5.176  16.546 -0.7645 -0.0397 -0.8166
 4787TIP3    H235777   4.095   5.191  16.677  1.2874  0.0774  0.4040
 4788TIP3   OH235778   5.383   4.083   0.013  0.4607 -0.1554  0.1508
 4788TIP3    H135779   5.369   4.149   0.081 -0.1271  0.6551 -0.7262
 4788TIP3    H235780   5.299   4.038   0.005  0.3796  0.0758 -0.3555
 4789TIP3   OH235781   0.202   0.550   1.683  0.1651  0.0069 -0.2633
 4789TIP3    H135782   0.108   0.540   1.692  0.4160 -0.2614  3.8516
 4789TIP3    H235783   0.214   0.640   1.652 -1.4682  0.9815  1.7469
 4790TIP3   OH235784   4.354   2.495   5.025 -0.4787 -0.3517  0.1738
 4790TIP3    H135785   4.269   2.529   5.051 -0.3744  0.1464 -0.1286
 4790TIP3    H235786   4.357   2.507   4.930  0.2017  0.2655  0.2635
 4791TIP3   OH235787   0.715   1.425   3.232 -0.2263  0.2978  0.8500
 4791TIP3    H135788   0.637   1.401   3.182  0.7906 -0.9354 -0.2179
 4791TIP3    H235789   0.728   1.351   3.292  1.2640 -0.5406 -0.4287
 4792TIP3   OH235790   1.006   3.173   1.624 -0.6687 -0.2862 -0.2808
 4792TIP3    H135791   0.936   3.233   1.597 -0.9023 -0.7405 -0.6872
 4792TIP3    H235792   0.978   3.142   1.710 -0.2577  0.6319  0.2063
 4793TIP3   OH235793   1.910   3.302   6.430 -0.3166 -0.1120 -0.0947
 4793TIP3    H135794   1.912   3.397   6.422 -1.7431 -0.1045 -0.6853
 4793TIP3    H235795   1.922   3.285   6.524  3.0376  0.4488 -0.2817
 4794TIP3   OH235796   5.340   2.234  13.642  0.4613  0.4396  0.1518
 4794TIP3    H135797   5.268   2.177  13.668  0.6091 -1.0280 -2.3571
 4794TIP3    H235798   5.408   2.174  13.612  2.3548  1.8284  1.4071
 4795TIP3   OH235799   3.111   3.211  10.646 -0.3359  0.3750  0.3061
 4795TIP3    H135800   3.034   3.243  10.694 -0.5662 -3.2155  2.7648
 4795TIP3    H235801   3.076   3.144  10.587  0.7964 -1.3017  1.4509
 4796TIP3   OH235802   0.554   5.737   1.965  0.0401 -0.0898  0.2704
 4796TIP3    H135803   0.606   5.810   1.931  0.2419 -0.1685  0.4092
 4796TIP3    H235804   0.616   5.685   2.016 -0.0997 -0.3660  0.1618
 4797TIP3   OH235805   2.802   0.845   2.934  0.1525 -0.3637  0.1058
 4797TIP3    H135806   2.766   0.868   2.848  0.9790 -1.4046 -0.5569
 4797TIP3    H235807   2.790   0.750   2.940  3.9405 -1.0915 -0.8254
 4798TIP3   OH235808   0.017   1.645  14.045  0.2508 -0.7468 -0.0246
 4798TIP3    H135809   0.076   1.575  14.075  0.2738 -0.1457  1.4149
 4798TIP3    H235810   0.055   1.725  14.080 -0.6064 -0.1841 -0.3570
 4799TIP3   OH235811   0.624   2.198  13.363 -0.3827  0.3717  0.7425
 4799TIP3    H135812   0.617   2.158  13.449 -0.8678  0.1460  0.5996
 4799TIP3    H235813   0.715   2.228  13.358  1.1933 -3.8869 -0.5300
 4800TIP3   OH235814   6.184   0.774   0.659 -0.5591  0.1637  0.2237
 4800TIP3    H135815   6.146   0.853   0.621 -0.3773  0.3775  0.4887
 4800TIP3    H235816   6.182   0.710   0.588 -0.0753  0.6076 -0.1910
 4801TIP3   OH235817   2.762   6.323  13.072  0.8200  0.4275 -0.5589
 4801TIP3    H135818   2.784   6.258  13.140 -3.3386 -0.8142 -0.0612
 4801TIP3    H235819   2.787   6.281  12.990  1.9724  0.0400 -0.0296
 4802TIP3   OH235820   5.977   0.073  13.568  0.2247 -0.0933 -0.3353
 4802TIP3    H135821   5.918   0.091  13.640  2.1864 -0.1653  1.3759
 4802TIP3    H235822   6.005   0.160  13.537 -0.9310 -0.0508 -1.3448
 4803TIP3   OH235823   6.215   5.272  12.315  0.1397  0.1826  0.2998
 4803TIP3    H135824   6.222   5.177  12.300  1.3474  0.2525  0.3315
 4803TIP3    H235825   6.185   5.280  12.405  0.1851 -0.1670  0.3475
 4804TIP3   OH235826   4.589   1.084   3.453  0.1633 -0.3449 -0.0150
 4804TIP3    H135827   4.586   1.086   3.358 -0.7920  1.7429  0.0101
 4804TIP3    H235828   4.582   1.176   3.480  3.5080 -0.5052  2.0361
 4805TIP3   OH235829   1.805   4.704   1.141  0.2820 -0.3523  0.0625
 4805TIP3    H135830   1.725   4.652   1.132 -0.1270  0.4429 -1.3871
 4805TIP3    H235831   1.780   4.777   1.198 -0.5673  0.7568 -1.6090
 4806TIP3   OH235832   5.838   4.045  16.108 -0.3271 -0.1038  0.5368
 4806TIP3    H135833   5.826   4.048  16.203  0.2359 -2.5243  0.7652
 4806TIP3    H235834   5.754   4.016  16.074  0.4222 -2.8552  0.7429
 4807TIP3   OH235835   6.221   1.439   3.067 -0.5238 -0.4245 -0.5722
 4807TIP3    H135836   6.189   1.529   3.073  0.2455 -0.2147  1.0121
 4807TIP3    H235837   6.152   1.387   3.108 -0.9352 -0.5571 -1.4218
 4808TIP3   OH235838   5.526   1.790  11.035 -0.4453 -0.4337 -0.4599
 4808TIP3    H135839   5.577   1.870  11.043 -0.5961 -0.4516  0.9121
 4808TIP3    H235840   5.549   1.755  10.949  0.2254  0.6598 -0.7370
 4809TIP3   OH235841   2.848   0.904  16.969 -0.3270 -0.0112 -0.4071
 4809TIP3    H135842   2.769   0.927  16.920 -0.7869 -1.1579 -0.2299
 4809TIP3    H235843   2.826   0.823  17.015  0.1138  0.9741  1.6675
 4810TIP3   OH235844   2.598   1.085   6.215 -0.1937  0.9402 -0.0477
 4810TIP3    H135845   2.642   1.087   6.130 -1.7604  2.2002 -0.9018
 4810TIP3    H235846   2.578   0.993   6.229 -0.5861  0.7728 -1.4693
 4811TIP3   OH235847   1.403   3.751  12.730 -0.0709  0.5656 -0.0189
 4811TIP3    H135848   1.441   3.669  12.697 -1.6888 -0.2851  0.1554
 4811TIP3    H235849   1.381   3.800  12.651  0.7647  0.7911 -0.1255
 4812TIP3   OH235850   5.167   3.539   1.492 -0.0584  0.4166 -0.2647
 4812TIP3    H135851   5.176   3.604   1.422 -1.6069  0.1622 -0.7404
 4812TIP3    H235852   5.122   3.466   1.451  0.8849 -0.6200  0.4913
 4813TIP3   OH235853   3.923   5.485   3.334 -0.2401 -0.6822 -0.3387
 4813TIP3    H135854   3.848   5.534   3.301  0.1195  0.5233  0.5791
 4813TIP3    H235855   3.886   5.429   3.403 -0.7744 -2.2989 -1.8566
 4814TIP3   OH235856   6.755   0.280   4.466  0.6928  0.0226 -0.4703
 4814TIP3    H135857   6.665   0.313   4.467  0.9988  1.1488 -3.1940
 4814TIP3    H235858   6.766   0.241   4.553 -2.3931 -0.1543 -0.0320
 4815TIP3   OH235859   1.706   3.641  13.052 -0.5189 -0.0810  0.1971
 4815TIP3    H135860   1.740   3.583  12.984  1.1755  1.2321 -0.1081
 4815TIP3    H235861   1.631   3.685  13.012 -0.1054 -0.0118 -0.5011
 4816TIP3   OH235862   1.817   0.332   2.186  0.5644 -0.2192 -0.1504
 4816TIP3    H135863   1.779   0.385   2.116  1.7991  0.4976 -0.3116
 4816TIP3    H235864   1.751   0.333   2.256  0.0396  0.4821 -0.6444
 4817TIP3   OH235865   3.973   4.992   6.145 -0.1350 -0.7171 -0.5837
 4817TIP3    H135866   3.985   4.932   6.219  0.3018 -0.9689 -0.8550
 4817TIP3    H235867   4.060   5.003   6.109  0.5553  2.9934  1.6770
 4818TIP3   OH235868   2.370   3.756  16.284  0.5318  0.5394  0.1172
 4818TIP3    H135869   2.276   3.757  16.303  0.4741 -0.7453  0.0059
 4818TIP3    H235870   2.376   3.726  16.194  1.0281  1.5287 -0.1964
 4819TIP3   OH235871   1.538   0.504   5.531  0.0751  0.2630  0.4059
 4819TIP3    H135872   1.494   0.581   5.497  1.1656 -0.4218 -2.9547
 4819TIP3    H235873   1.471   0.436   5.532 -0.8801  1.0914  3.3446
 4820TIP3   OH235874   0.334   2.645   1.603 -0.2568 -0.3821  0.0911
 4820TIP3    H135875   0.336   2.658   1.698  2.8734 -1.2939  0.2743
 4820TIP3    H235876   0.309   2.554   1.591  1.2337 -0.8452  0.2280
 4821TIP3   OH235877   1.745   4.091   2.906 -0.1949 -0.3200  1.1409
 4821TIP3    H135878   1.772   4.022   2.845 -0.6815 -0.3382  0.9409
 4821TIP3    H235879   1.768   4.056   2.992 -2.2833 -1.6639  1.2234
 4822TIP3   OH235880   3.989   1.073   1.950 -0.0056 -0.6154  0.2808
 4822TIP3    H135881   4.056   1.081   1.882 -1.1322 -0.4920 -0.8510
 4822TIP3    H235882   3.944   0.992   1.929 -0.9908 -0.0830  0.2860
 4823TIP3   OH235883   1.052   2.558   5.623  0.3783  0.0478 -0.1747
 4823TIP3    H135884   1.016   2.605   5.698 -0.7389  2.9335 -2.3067
 4823TIP3    H235885   1.146   2.573   5.628  0.2386  0.8288  0.2721
 4824TIP3   OH235886   1.161   1.340  11.298  0.6078  0.3216  0.1118
 4824TIP3    H135887   1.139   1.258  11.344  2.4240  0.1140  0.6817
 4824TIP3    H235888   1.128   1.409  11.356  1.1225  0.0249  0.7669
 4825TIP3   OH235889   6.073   3.656   1.353  0.1744  0.1711 -0.4469
 4825TIP3    H135890   6.119   3.740   1.363  0.2817  0.0361  0.2519
 4825TIP3    H235891   6.139   3.596   1.318  0.3489  0.1530 -0.0942
 4826TIP3   OH235892   2.344   1.760  11.620  0.0514  0.0311 -0.5694
 4826TIP3    H135893   2.312   1.818  11.689  0.1146 -1.9752  1.2734
 4826TIP3    H235894   2.375   1.819  11.551 -0.7700  2.1259  0.7565
 4827TIP3   OH235895   3.637   0.136  15.797 -0.0274 -0.2301  0.8618
 4827TIP3    H135896   3.690   0.059  15.819  2.6216  1.7535  1.9171
 4827TIP3    H235897   3.582   0.149  15.874 -1.0894 -1.4559  0.3561
 4828TIP3   OH235898   0.339   1.829   3.804 -0.1582  0.1286 -0.3384
 4828TIP3    H135899   0.368   1.841   3.714  1.0308 -1.2657 -0.1787
 4828TIP3    H235900   0.245   1.843   3.801 -0.6872 -2.8965 -2.4441
 4829TIP3   OH235901   2.577   0.711  12.794  0.1136 -0.3906 -0.1327
 4829TIP3    H135902   2.589   0.643  12.728 -0.9486 -2.4047  1.6151
 4829TIP3    H235903   2.498   0.758  12.768  0.3517 -0.4076 -0.8881
 4830TIP3   OH235904   2.645   4.657  16.203 -0.2701 -0.3277 -0.0958
 4830TIP3    H135905   2.677   4.713  16.274 -2.1775  0.4188  0.2246
 4830TIP3    H235906   2.550   4.654  16.215 -0.6030 -0.5206 -2.3884
 4831TIP3   OH235907   4.692   5.502  10.201 -1.0827  0.2531  0.3745
 4831TIP3    H135908   4.779   5.506  10.162 -1.1574 -0.0626  0.1806
 4831TIP3    H235909   4.704   5.540  10.289 -0.6319 -0.3159  0.5648
 4832TIP3   OH235910   1.532   3.963  11.706  0.3063 -0.2374 -0.0429
 4832TIP3    H135911   1.495   3.893  11.653  0.9758  0.8263 -2.0360
 4832TIP3    H235912   1.484   3.960  11.788 -0.7787 -1.9748 -0.6987
 4833TIP3   OH235913   5.781   4.699   0.988  0.3620  0.2082  0.4867
 4833TIP3    H135914   5.699   4.719   1.034  0.0778  1.0754 -0.3723
 4833TIP3    H235915   5.843   4.680   1.059 -0.3031  0.6176  1.2022
 4834TIP3   OH235916   3.989   3.072  11.570  0.1429 -0.4707  0.4787
 4834TIP3    H135917   3.947   2.986  11.572  1.1034 -0.9532  0.3379
 4834TIP3    H235918   3.945   3.118  11.499  1.8182 -2.0328 -1.7280
 4835TIP3   OH235919   0.348   1.110   5.022  0.1391 -0.5543  0.4482
 4835TIP3    H135920   0.370   1.062   5.102  0.9435 -0.4513  0.3008
 4835TIP3    H235921   0.257   1.088   5.005 -0.2756  0.0012  1.8043
 4836TIP3   OH235922   3.658   3.563  14.537 -0.4159  0.1258 -0.5457
 4836TIP3    H135923   3.588   3.498  14.535 -2.7833  2.5349 -0.5467
 4836TIP3    H235924   3.737   3.512  14.557 -2.4587 -2.4664  1.7763
 4837TIP3   OH235925   2.959   3.605  16.766  0.7667 -0.4323 -0.3019
 4837TIP3    H135926   3.001   3.691  16.762  4.2935 -1.9402 -0.1720
 4837TIP3    H235927   2.959   3.574  16.676 -0.3616 -0.3603 -0.3294
 4838TIP3   OH235928   4.692   1.801  13.510 -0.5877  0.2280 -0.5713
 4838TIP3    H135929   4.719   1.826  13.598  1.2282 -0.6013 -0.8514
 4838TIP3    H235930   4.601   1.774  13.520 -0.3086 -0.2156  1.1432
 4839TIP3   OH235931   1.352   2.852  16.906 -0.4413 -0.0202 -0.3301
 4839TIP3    H135932   1.267   2.825  16.872 -0.6015  0.3490 -0.2191
 4839TIP3    H235933   1.339   2.941  16.937  0.3331  0.5551 -1.5714
 4840TIP3   OH235934   1.793   6.450  14.802 -0.0407  0.4858  0.8848
 4840TIP3    H135935   1.821   6.542  14.809  0.3468  0.6561 -1.9804
 4840TIP3    H235936   1.701   6.452  14.828 -0.3611  1.9199 -0.2393
 4841TIP3   OH235937   2.551   0.277  16.985  0.1673 -0.5572  0.3693
 4841TIP3    H135938   2.475   0.255  17.039 -1.0963  1.6304 -0.4184
 4841TIP3    H235939   2.516   0.328  16.912  2.1815 -1.0517 -1.0444
 4842TIP3   OH235940   2.139   1.445  10.988 -0.6586 -0.5355  0.0645
 4842TIP3    H135941   2.106   1.418  10.902 -0.8779 -0.2870  0.0692
 4842TIP3    H235942   2.072   1.503  11.022 -0.0130  0.3455 -0.1236
 4843TIP3   OH235943   6.705   2.358   2.012  0.7377 -0.0552  0.4220
 4843TIP3    H135944   6.783   2.337   1.961  1.2838  0.2714  1.1034
 4843TIP3    H235945   6.655   2.276   2.015  0.8929 -0.1816 -0.2813
 4844TIP3   OH235946   1.005   5.078  16.998  0.2492 -0.5788  0.0863
 4844TIP3    H135947   1.037   5.013  17.060  2.2381 -0.2776 -0.5512
 4844TIP3    H235948   1.013   5.036  16.912  2.1368  0.6504 -0.3974
 4845TIP3   OH235949   4.394   1.932  14.614 -0.1517 -0.3662 -0.3343
 4845TIP3    H135950   4.352   1.847  14.627 -0.5949 -0.1664 -0.4259
 4845TIP3    H235951   4.457   1.939  14.685  2.4756 -2.3239 -2.2791
 4846TIP3   OH235952   1.642   0.386   0.952  0.0678  0.4693  0.3246
 4846TIP3    H135953   1.561   0.353   0.991 -0.2433 -0.9689 -1.4124
 4846TIP3    H235954   1.619   0.471   0.915 -0.8053 -0.1094 -0.5215
 4847TIP3   OH235955   5.955   0.204   2.309  0.1793  1.3174 -0.0716
 4847TIP3    H135956   5.993   0.284   2.346  2.7480  0.2134 -0.1330
 4847TIP3    H235957   6.027   0.164   2.260 -1.0922 -0.9345 -0.2127
 4848TIP3   OH235958   3.097   5.933   5.577 -0.9901 -0.0908 -0.3952
 4848TIP3    H135959   3.035   5.861   5.584  0.5498 -1.4738 -0.4593
 4848TIP3    H235960   3.181   5.895   5.603 -0.3468  2.0188  0.8858
 4849TIP3   OH235961   0.820   5.407  13.148  0.3269 -0.1965 -0.0139
 4849TIP3    H135962   0.807   5.498  13.124  1.8912  0.0798  0.0592
 4849TIP3    H235963   0.784   5.399  13.236 -0.5677  0.1335 -0.3482
 4850TIP3   OH235964   5.387   1.272  16.330 -0.6330 -0.0977  0.2111
 4850TIP3    H135965   5.445   1.346  16.345 -1.9807  1.1293 -0.4083
 4850TIP3    H235966   5.321   1.278  16.399 -0.7169 -0.7581  0.1953
 4851TIP3   OH235967   4.608   2.558   4.319  0.3462  0.2902 -0.4141
 4851TIP3    H135968   4.546   2.550   4.392  1.5144 -0.1071  0.5895
 4851TIP3    H235969   4.570   2.624   4.262  0.2004  1.9058  1.4295
 4852TIP3   OH235970   3.609   2.131  16.261  0.0173  0.3503 -0.7621
 4852TIP3    H135971   3.704   2.120  16.259  0.2080  1.5336  0.5640
 4852TIP3    H235972   3.574   2.043  16.247  1.3605 -0.5326  1.0593
 4853TIP3   OH235973   2.597   2.541   4.126  0.0389  0.8338 -0.4875
 4853TIP3    H135974   2.528   2.542   4.060  1.1942 -0.7564 -1.8147
 4853TIP3    H235975   2.607   2.449   4.149  1.3568  1.0805  0.0253
 4854TIP3   OH235976   3.836   2.187   3.866 -0.1043 -0.0609  0.2857
 4854TIP3    H135977   3.877   2.273   3.878  1.0281 -0.5822  0.2235
 4854TIP3    H235978   3.880   2.150   3.789 -0.0854 -0.9878  0.7354
 4855TIP3   OH235979   0.391   2.569   4.342 -0.2891 -0.1304  0.3733
 4855TIP3    H135980   0.352   2.563   4.430 -0.9371 -1.6756  0.0113
 4855TIP3    H235981   0.370   2.485   4.301  1.7071 -0.2200 -0.5707
 4856TIP3   OH235982   6.197   6.615  16.597 -0.2955  0.2893  0.5688
 4856TIP3    H135983   6.259   6.629  16.669  0.6433  1.0468 -0.3520
 4856TIP3    H235984   6.212   6.524  16.570  0.3454  0.4331  0.4271
 4857TIP3   OH235985   6.742   5.345  16.636  0.2150  0.0203  0.1103
 4857TIP3    H135986   6.678   5.306  16.696 -0.3280 -0.6313 -0.8542
 4857TIP3    H235987   6.690   5.399  16.577  0.2664 -1.8720 -1.7852
 4858TIP3   OH235988   2.973   5.465   5.116 -0.0737 -0.0475 -0.1973
 4858TIP3    H135989   2.957   5.441   5.025 -1.1950  0.7050 -0.2186
 4858TIP3    H235990   3.037   5.400   5.147 -1.0488 -1.4284 -0.9848
 4859TIP3   OH235991   4.505   1.696  10.929  0.1336  0.2442 -1.0405
 4859TIP3    H135992   4.437   1.628  10.931  0.6234 -0.3096 -2.3460
 4859TIP3    H235993   4.470   1.766  10.985 -1.0212 -0.4782 -0.8181
 4860TIP3   OH235994   3.242   2.027  14.103  0.3642 -0.5184 -0.3083
 4860TIP3    H135995   3.231   1.932  14.097 -1.3195 -0.3268 -0.7495
 4860TIP3    H235996   3.244   2.044  14.198  0.3663 -0.9696 -0.2218
 4861TIP3   OH235997   0.680   2.658  11.522 -0.2038 -0.1831  0.3826
 4861TIP3    H135998   0.600   2.630  11.480  0.5520 -2.6873  0.4763
 4861TIP3    H235999   0.710   2.733  11.470 -1.9867  0.1079 -0.2881
 4862TIP3   OH236000   2.488   3.879   1.170 -0.0933  0.1296  0.3372
 4862TIP3    H136001   2.521   3.967   1.154 -0.8283  0.6001  1.3177
 4862TIP3    H236002   2.401   3.892   1.207 -0.9000 -1.0624 -1.0634
 4863TIP3   OH236003   1.667   5.571   2.731 -0.3547  0.3219 -0.2058
 4863TIP3    H136004   1.583   5.531   2.706  0.0162 -1.4197  1.1777
 4863TIP3    H236005   1.642   5.651   2.777 -1.2059  0.3624 -0.7049
 4864TIP3   OH236006   4.148   3.184   0.957 -0.1378  0.2684 -0.1495
 4864TIP3    H136007   4.089   3.200   1.030 -0.9960 -0.5491 -0.6458
 4864TIP3    H236008   4.226   3.236   0.977 -0.2032 -0.2268  1.5269
 4865TIP3   OH236009   0.864   1.592   2.461 -0.1696 -0.3081 -0.2504
 4865TIP3    H136010   0.870   1.545   2.377  1.1575  0.6940 -0.7545
 4865TIP3    H236011   0.909   1.675   2.445  1.2411 -0.5962  1.8047
 4866TIP3   OH236012   3.632   1.756  14.062  0.2963  0.0024 -0.0923
 4866TIP3    H136013   3.592   1.841  14.084 -0.9415  0.0869 -2.3619
 4866TIP3    H236014   3.558   1.699  14.042  1.1808 -1.1306 -0.2565
 4867TIP3   OH236015   3.107   0.165   1.509  0.2892  0.3575 -0.2154
 4867TIP3    H136016   3.162   0.140   1.584 -0.0917  1.2683  0.3692
 4867TIP3    H236017   3.031   0.208   1.547 -0.2591  0.1991 -1.0958
 4868TIP3   OH236018   5.544   5.217   5.855  0.1425 -0.7138  0.0974
 4868TIP3    H136019   5.544   5.126   5.884 -0.4287 -0.1627  1.9922
 4868TIP3    H236020   5.599   5.263   5.919  0.6902  0.2396 -1.0098
 4869TIP3   OH236021   2.367   0.146  12.491  0.2059 -0.1822  0.2649
 4869TIP3    H136022   2.405   0.064  12.462  2.7482  1.7968 -2.5998
 4869TIP3    H236023   2.322   0.181  12.414 -1.4254  0.8807  1.5961
 4870TIP3   OH236024   1.761   6.034   2.984  0.0185  0.1396  0.1809
 4870TIP3    H136025   1.841   6.084   2.967  1.0908 -1.2903  0.7504
 4870TIP3    H236026   1.776   5.994   3.070 -0.6501 -1.3733 -0.3728
 4871TIP3   OH236027   3.409   3.661  14.640  0.0272 -0.0411  0.1885
 4871TIP3    H136028   3.384   3.745  14.602  0.4309 -0.1733 -0.3722
 4871TIP3    H236029   3.486   3.633  14.591 -1.5310 -1.9168 -1.3420
 4872TIP3   OH236030   4.256   2.885  15.810 -0.5114 -0.1060  0.0688
 4872TIP3    H136031   4.337   2.934  15.830 -0.8357 -0.2771  2.0954
 4872TIP3    H236032   4.264   2.805  15.863 -2.4110  0.3312  1.0910
 4873TIP3   OH236033   6.470   5.984   5.377  0.4950 -0.3253 -0.4468
 4873TIP3    H136034   6.494   6.076   5.385  0.0791 -0.1460 -1.1172
 4873TIP3    H236035   6.532   5.949   5.313 -0.0621 -0.2219 -1.0588
 4874TIP3   OH236036   0.309   3.282   6.123  0.2066 -0.1839 -0.1548
 4874TIP3    H136037   0.319   3.190   6.151  0.7593  0.0540  0.4569
 4874TIP3    H236038   0.225   3.284   6.076 -0.0594 -0.8942  0.2756
 4875TIP3   OH236039   4.574   2.764   3.082 -0.5613 -0.4484 -0.8093
 4875TIP3    H136040   4.601   2.804   3.000  1.3399  3.1233  1.2899
 4875TIP3    H236041   4.645   2.785   3.143 -3.0549 -0.4695  2.3765
 4876TIP3   OH236042   1.095   5.723   3.154 -0.6590  0.2778  0.5942
 4876TIP3    H136043   1.040   5.646   3.140  1.4430 -1.6123  1.9657
 4876TIP3    H236044   1.179   5.688   3.184  0.7776  3.0818  0.2414
 4877TIP3   OH236045   4.449   4.601  12.022  0.6094  0.1682  0.4430
 4877TIP3    H136046   4.473   4.688  12.055  1.0368  0.0905  0.3499
 4877TIP3    H236047   4.532   4.563  11.994  0.4625 -0.3801  0.7391
 4878TIP3   OH236048   1.217   1.713   4.839 -0.2779  0.3643  0.1355
 4878TIP3    H136049   1.245   1.801   4.815  0.2470  0.5249  1.2717
 4878TIP3    H236050   1.246   1.702   4.930 -1.1867 -0.6196  0.3346
 4879TIP3   OH236051   3.172   0.519   6.315 -0.3261 -0.1624  0.9680
 4879TIP3    H136052   3.266   0.503   6.308 -0.7764 -2.6038 -0.5823
 4879TIP3    H236053   3.142   0.457   6.380 -0.8224  1.1457  2.0435
 4880TIP3   OH236054   1.627   5.816   2.848  0.9799  0.2031  0.1227
 4880TIP3    H136055   1.531   5.819   2.854  1.0124 -0.7115  1.6556
 4880TIP3    H236056   1.658   5.874   2.917  1.4474 -2.9263  2.8324
 4881TIP3   OH236057   0.431   4.049  12.549  0.1723 -0.4340  0.2814
 4881TIP3    H136058   0.424   3.956  12.527  0.6056  0.1381 -2.7460
 4881TIP3    H236059   0.497   4.052  12.618  1.0002 -2.2934 -0.3605
 4882TIP3   OH236060   6.415   2.871   0.263 -0.6835 -0.3875  0.3373
 4882TIP3    H136061   6.399   2.807   0.333  0.6228 -0.8069  0.2775
 4882TIP3    H236062   6.378   2.830   0.185  1.0420 -1.5808  0.0931
 4883TIP3   OH236063   5.620   4.099   2.297 -0.2317 -0.4464 -0.3753
 4883TIP3    H136064   5.681   4.049   2.351  1.6303  0.5983 -1.4068
 4883TIP3    H236065   5.543   4.042   2.288  0.9898 -2.2536  0.1190
 4884TIP3   OH236066   0.558   2.469  15.159  0.3194 -0.1976 -0.1586
 4884TIP3    H136067   0.546   2.376  15.140 -0.1445 -0.1625 -0.0476
 4884TIP3    H236068   0.651   2.478  15.178  0.3218 -0.6840  0.0723
 4885TIP3   OH236069   1.953   6.515  13.420  0.5999  0.2603  0.0830
 4885TIP3    H136070   2.037   6.471  13.431  0.9830  1.0514  0.3731
 4885TIP3    H236071   1.942   6.523  13.326 -0.0297 -1.4909 -0.0223
 4886TIP3   OH236072   6.422   3.217   3.024  0.6607  0.0639 -0.3385
 4886TIP3    H136073   6.345   3.211   3.081  0.0852 -0.3982 -1.1500
 4886TIP3    H236074   6.441   3.311   3.021  1.7554 -0.0085  1.9650
 4887TIP3   OH236075   6.168   1.002   1.272  0.2995  0.1598  0.0899
 4887TIP3    H136076   6.217   1.059   1.331 -0.0680 -0.3554  0.9144
 4887TIP3    H236077   6.233   0.968   1.211  0.6636  0.7976  0.1230
 4888TIP3   OH236078   4.165   4.485   5.389  0.3410 -0.3557 -0.2601
 4888TIP3    H136079   4.144   4.578   5.381 -0.0068 -0.3765  0.3992
 4888TIP3    H236080   4.083   4.443   5.415  0.6262 -0.7750 -0.0173
 4889TIP3   OH236081   1.262   1.244   3.724 -0.1513 -0.3219  0.2243
 4889TIP3    H136082   1.335   1.248   3.785 -0.6295  1.2623  0.7249
 4889TIP3    H236083   1.285   1.305   3.654 -0.5339 -0.5938 -0.1477
 4890TIP3   OH236084   2.398   6.577  11.770 -0.2221  0.3583  0.3653
 4890TIP3    H136085   2.363   6.646  11.712 -0.1064  0.2488  0.1641
 4890TIP3    H236086   2.336   6.504  11.760  0.6836 -0.2730 -0.8988
 4891TIP3   OH236087   5.960   2.199   6.563 -0.1845 -0.1744  0.4608
 4891TIP3    H136088   5.978   2.271   6.623 -0.1739  1.3525 -1.2980
 4891TIP3    H236089   6.009   2.125   6.599 -1.9997 -0.0281  3.5912
 4892TIP3   OH236090   0.073   3.760   3.195 -0.0208  0.2913  0.2123
 4892TIP3    H136091  -0.005   3.791   3.149 -0.3584  0.6928  1.0304
 4892TIP3    H236092   0.066   3.799   3.282 -0.3586 -1.9225  1.2302
 4893TIP3   OH236093   1.783   0.162  17.025 -0.2468 -0.0334 -0.2723
 4893TIP3    H136094   1.732   0.176  17.105 -0.4471 -0.5124 -0.3170
 4893TIP3    H236095   1.748   0.226  16.963  1.3626  1.8768  0.6732
 4894TIP3   OH236096   2.347   3.310   5.576  0.2061 -0.0321  0.3040
 4894TIP3    H136097   2.424   3.312   5.633 -1.8157  1.3194  3.2515
 4894TIP3    H236098   2.317   3.219   5.580  0.1111  0.0322  1.4488
 4895TIP3   OH236099   0.257   3.943   4.404 -0.2860  0.0499  0.1068
 4895TIP3    H136100   0.263   3.920   4.311 -0.5155  0.4941 -0.0207
 4895TIP3    H236101   0.321   3.886   4.447  0.0968  0.1106 -0.3749
 4896TIP3   OH236102   4.309   0.040   1.867 -0.0584 -0.1346  0.1896
 4896TIP3    H136103   4.383   0.077   1.915 -0.9287  0.4626  1.1294
 4896TIP3    H236104   4.285   0.107   1.803 -0.2695  0.0220  0.4265
 4897TIP3   OH236105   3.052   4.225  15.462  0.5226  0.0604 -1.4319
 4897TIP3    H136106   3.124   4.285  15.442  1.3526 -0.3450  0.1315
 4897TIP3    H236107   2.999   4.271  15.526 -0.0875 -0.0260 -1.8641
 4898TIP3   OH236108   5.552   3.712  11.788 -0.0552  0.1725  0.0045
 4898TIP3    H136109   5.531   3.632  11.740 -0.5575  1.0712 -1.3148
 4898TIP3    H236110   5.467   3.753  11.806  0.2176  0.5917  0.3729
 4899TIP3   OH236111   2.741   6.073  16.047  0.2496 -0.0716  0.3182
 4899TIP3    H136112   2.813   6.106  16.100 -0.9071  0.8557  1.3693
 4899TIP3    H236113   2.723   6.143  15.985 -0.2680  0.0356  0.5867
 4900TIP3   OH236114   5.602   2.735   0.988  0.3150  0.3101  0.5471
 4900TIP3    H136115   5.566   2.719   1.075  0.2327  0.4584  0.5419
 4900TIP3    H236116   5.557   2.673   0.931  1.7965 -1.1931  0.9221
 4901TIP3   OH236117   2.348   3.602   5.802 -0.1965  0.6381 -0.6337
 4901TIP3    H136118   2.360   3.695   5.786 -0.6801  0.8098 -0.0570
 4901TIP3    H236119   2.362   3.560   5.717  0.1744  1.2218 -0.8594
 4902TIP3   OH236120   1.189   1.247  11.038  0.6640  0.2666  0.4188
 4902TIP3    H136121   1.103   1.223  11.005  1.1711  0.6751 -1.2650
 4902TIP3    H236122   1.173   1.278  11.127 -0.5784 -2.1301  1.1258
 4903TIP3   OH236123   6.284   0.622  14.943 -0.0497 -0.0542 -0.4583
 4903TIP3    H136124   6.246   0.607  15.030  2.7342  0.1429  0.9134
 4903TIP3    H236125   6.350   0.553  14.934  2.0046  1.8313 -0.9129
 4904TIP3   OH236126   5.045   1.400   0.667  0.2313 -0.2192 -0.0374
 4904TIP3    H136127   5.070   1.462   0.735 -2.0348 -0.7328  1.3684
 4904TIP3    H236128   5.117   1.337   0.664  3.6508  3.2912 -2.9141
 4905TIP3   OH236129   1.893   3.654  15.846  0.3554  0.2755  0.1210
 4905TIP3    H136130   1.928   3.739  15.819 -0.2575  0.6839  0.5603
 4905TIP3    H236131   1.950   3.627  15.918  1.4689 -0.4124 -0.9818
 4906TIP3   OH236132   2.665   3.506   1.567  0.2356 -0.7486  0.0069
 4906TIP3    H136133   2.687   3.580   1.624 -0.2839 -0.2747 -0.3860
 4906TIP3    H236134   2.749   3.475   1.534  0.3955  0.3906 -0.7043
 4907TIP3   OH236135   1.150   0.865   4.947  0.1323  0.0192  0.1914
 4907TIP3    H136136   1.229   0.919   4.944 -0.0226  0.2115 -0.4083
 4907TIP3    H236137   1.119   0.861   4.857  0.4088 -1.4604  0.1233
 4908TIP3   OH236138   1.518   5.616  16.584 -0.0631  0.5366  0.2880
 4908TIP3    H136139   1.432   5.600  16.623  0.2827 -0.4869  0.6827
 4908TIP3    H236140   1.538   5.707  16.605 -1.1853  0.8832 -0.0913
 4909TIP3   OH236141   0.856   1.394  11.185 -0.0323  0.3061  0.3772
 4909TIP3    H136142   0.818   1.390  11.273  1.4417  1.2776  1.1001
 4909TIP3    H236143   0.931   1.335  11.189 -0.7824 -0.7648 -0.7034
 4910TIP3   OH236144   2.755   6.146   3.284 -0.8068  0.1527 -0.0010
 4910TIP3    H136145   2.735   6.205   3.357 -1.6905  0.6429 -0.6219
 4910TIP3    H236146   2.763   6.204   3.208  1.5238 -0.1906 -0.0748
 4911TIP3   OH236147   4.332   0.820   3.296 -0.2604 -0.9191  0.3757
 4911TIP3    H136148   4.259   0.781   3.248  0.1653 -2.6486  1.0636
 4911TIP3    H236149   4.404   0.823   3.233 -0.3588 -1.0456  0.2575
 4912TIP3   OH236150   6.501   3.563   3.373 -0.3807  0.2612  0.2795
 4912TIP3    H136151   6.498   3.468   3.385 -0.4089  0.3131  0.7324
 4912TIP3    H236152   6.416   3.586   3.337 -0.8590  0.2550  1.3473
 4913TIP3   OH236153   3.999   1.822   0.318  0.2078  0.8014 -0.2472
 4913TIP3    H136154   4.078   1.779   0.350 -0.0548 -0.0706 -0.7595
 4913TIP3    H236155   3.932   1.753   0.318 -0.2720  1.2576 -0.8775
 4914TIP3   OH236156   1.773   5.249   2.995  0.3086  0.1747  0.8396
 4914TIP3    H136157   1.857   5.295   2.997  1.4430 -1.4854 -1.9409
 4914TIP3    H236158   1.786   5.172   3.051  0.6655 -0.0870  0.4006
 4915TIP3   OH236159   5.563   3.269  13.555 -0.1942 -0.3043 -0.3693
 4915TIP3    H136160   5.611   3.330  13.611  3.1811 -3.1480  0.0907
 4915TIP3    H236161   5.528   3.203  13.615  0.8877 -1.7517 -1.2877
 4916TIP3   OH236162   5.816   3.718  15.556  0.2196  0.3493 -0.0999
 4916TIP3    H136163   5.753   3.677  15.497  0.6902  1.8925 -1.7585
 4916TIP3    H236164   5.778   3.706  15.643 -0.6806 -1.6878 -0.7112
 4917TIP3   OH236165   3.604   2.080  15.878  0.4555 -0.2823  0.4611
 4917TIP3    H136166   3.555   2.132  15.942  0.4603  0.4554 -0.1142
 4917TIP3    H236167   3.625   1.999  15.924  1.6603  0.7830  1.8726
 4918TIP3   OH236168   6.318   1.801   4.876  0.3727 -0.3671 -0.6431
 4918TIP3    H136169   6.224   1.808   4.895  0.1659  0.6178 -1.8760
 4918TIP3    H236170   6.339   1.710   4.895 -1.1615 -0.9723 -1.6145
 4919TIP3   OH236171   0.569   1.029  14.153  0.4868  0.2880  0.0981
 4919TIP3    H136172   0.500   1.066  14.207  1.4591  1.7589  0.3761
 4919TIP3    H236173   0.538   1.043  14.063 -0.4491 -0.8388  0.2150
 4920TIP3   OH236174   2.194   3.384  10.697  0.7692  1.0103 -0.0140
 4920TIP3    H136175   2.231   3.469  10.678 -0.0465  1.0859 -1.4608
 4920TIP3    H236176   2.182   3.382  10.792 -2.2140  3.8549 -0.1570
 4921TIP3   OH236177   0.524   1.899   5.721 -0.1448 -0.2006 -0.2017
 4921TIP3    H136178   0.488   1.863   5.640 -2.4584  3.7970 -1.2436
 4921TIP3    H236179   0.480   1.851   5.791 -2.1493 -0.2671 -1.4412
 4922TIP3   OH236180   0.939   1.004   3.414  0.1043  0.2564 -0.1973
 4922TIP3    H136181   0.988   1.049   3.346 -0.8748  2.4475  0.4488
 4922TIP3    H236182   0.996   1.009   3.492  0.7540 -1.2835 -0.5294
 4923TIP3   OH236183   6.358   4.549   3.718  0.2703 -0.1595 -0.0524
 4923TIP3    H136184   6.320   4.634   3.740 -1.2201 -0.4168 -1.4481
 4923TIP3    H236185   6.428   4.569   3.656 -0.2168  0.0443 -0.5397
 4924TIP3   OH236186   6.735   0.024   5.854 -0.2065  0.6271 -0.3941
 4924TIP3    H136187   6.701  -0.049   5.905 -1.3994 -0.2078 -2.2499
 4924TIP3    H236188   6.830   0.014   5.857 -0.3171 -0.3172  0.3270
 4925TIP3   OH236189   5.743   0.356   1.531 -0.0123 -0.0116  0.1468
 4925TIP3    H136190   5.786   0.410   1.464  1.1483 -1.5286 -0.3918
 4925TIP3    H236191   5.814   0.304   1.570 -0.9907 -0.7187  1.0509
 4926TIP3   OH236192   1.439   1.164   2.854  0.1146  0.2490 -0.2290
 4926TIP3    H136193   1.425   1.105   2.779  0.6548 -0.9380  0.5672
 4926TIP3    H236194   1.354   1.167   2.898 -0.0458  0.4703 -0.5460
 4927TIP3   OH236195   2.912   2.251   0.980  0.2537  0.2715 -0.0249
 4927TIP3    H136196   2.864   2.238   1.062 -0.2408  1.5999 -0.0816
 4927TIP3    H236197   2.920   2.346   0.971  1.8670  0.1015 -0.6336
 4928TIP3   OH236198   4.871   2.051  15.717  0.0916 -0.3196  0.0236
 4928TIP3    H136199   4.797   2.071  15.774  1.4418  0.9509  1.4048
 4928TIP3    H236200   4.901   1.964  15.746 -0.0887 -0.2847  0.3153
 4929TIP3   OH236201   4.140   4.351   1.463 -0.6532  0.1411 -0.0385
 4929TIP3    H136202   4.148   4.409   1.387  1.3947 -0.9424 -0.7350
 4929TIP3    H236203   4.205   4.282   1.448 -1.7590 -1.3613  1.6290
 4930TIP3   OH236204   1.189   2.549   0.319  0.5242  0.0354 -0.3229
 4930TIP3    H136205   1.190   2.551   0.223 -0.8205 -0.7611 -0.3639
 4930TIP3    H236206   1.174   2.641   0.344 -0.6707  0.0246 -0.9225
 4931TIP3   OH236207   2.445   5.795  11.567 -0.1664 -0.3103 -0.1088
 4931TIP3    H136208   2.532   5.761  11.548 -0.4590 -1.0304 -0.1610
 4931TIP3    H236209   2.423   5.758  11.653  0.6100  1.8682  1.1341
 4932TIP3   OH236210   5.062   5.384   0.951  0.0628  0.1648 -0.7370
 4932TIP3    H136211   4.993   5.380   1.016  0.1868  0.5328 -0.5809
 4932TIP3    H236212   5.100   5.472   0.961  0.6797 -0.0984 -0.6797
 4933TIP3   OH236213   5.462   2.123  11.725 -0.4656 -0.0239  0.1230
 4933TIP3    H136214   5.458   2.054  11.790 -1.6124 -1.4747 -1.4070
 4933TIP3    H236215   5.549   2.114  11.686 -0.2504  0.0410  0.5826
 4934TIP3   OH236216   0.126   3.139   0.043  0.0103  0.0737 -0.3778
 4934TIP3    H136217   0.125   3.211  -0.020 -0.5147  0.2637 -0.1591
 4934TIP3    H236218   0.104   3.180   0.127 -3.0047 -0.7153 -0.6723
 4935TIP3   OH236219   3.297   5.354   4.224 -0.2749  0.2765  0.2111
 4935TIP3    H136220   3.287   5.448   4.238 -2.1124  0.3165 -1.0176
 4935TIP3    H236221   3.240   5.314   4.289 -1.4892  0.1477 -0.8837
 4936TIP3   OH236222   3.948   1.103   3.212 -0.5690 -0.7156 -0.7921
 4936TIP3    H136223   3.985   1.189   3.232  0.7722 -1.0811 -1.5731
 4936TIP3    H236224   3.867   1.099   3.264 -1.0746  1.3039 -1.3492
 4937TIP3   OH236225   6.143   3.892   2.755  0.0818 -0.0939 -0.0105
 4937TIP3    H136226   6.146   3.879   2.850  0.4219 -1.3925 -0.1870
 4937TIP3    H236227   6.235   3.895   2.728 -0.0146  0.2185 -0.3131
 4938TIP3   OH236228   2.213   0.192   0.253 -0.3813 -0.2660 -0.0603
 4938TIP3    H136229   2.307   0.177   0.250 -0.2726 -0.2472  1.9977
 4938TIP3    H236230   2.196   0.224   0.342 -2.3682 -0.6024 -0.2638
 4939TIP3   OH236231   2.544   5.919   2.739 -0.3703 -0.8275  0.0483
 4939TIP3    H136232   2.576   5.963   2.660 -1.6351  0.6245  0.2952
 4939TIP3    H236233   2.605   5.947   2.807  0.5292 -1.8177 -0.3246
 4940TIP3   OH236234   0.058   5.044  15.416  0.2728 -0.5568  0.1719
 4940TIP3    H136235   0.017   5.055  15.502 -0.8933  0.4274 -0.4741
 4940TIP3    H236236   0.118   4.971  15.427  0.5065 -0.1500  1.9540
 4941TIP3   OH236237   3.798   5.613   5.755  0.0975  0.0115  0.2151
 4941TIP3    H136238   3.862   5.610   5.826  1.3950  1.5150 -0.8300
 4941TIP3    H236239   3.733   5.546   5.779  0.0056  1.0034  3.2136
 4942TIP3   OH236240   5.853   3.166  14.568  0.3241 -0.1072 -0.0151
 4942TIP3    H136241   5.892   3.230  14.508 -0.1413  0.2034  0.0103
 4942TIP3    H236242   5.887   3.190  14.654  1.0526 -0.5988 -0.1508
 4943TIP3   OH236243   5.443   5.788   5.003  0.3904 -0.6922 -0.1727
 4943TIP3    H136244   5.467   5.776   4.911 -2.1885  1.2544 -1.2213
 4943TIP3    H236245   5.415   5.879   5.009  0.2152 -0.8399  2.5164
 4944TIP3   OH236246   0.112   3.392  13.320 -0.1509  0.4914  0.0513
 4944TIP3    H136247   0.176   3.350  13.378 -0.9079  1.2583  1.4807
 4944TIP3    H236248   0.056   3.320  13.290  0.1258  0.1160  0.4240
 4945TIP3   OH236249   0.242   0.737   5.043 -0.3331 -0.0179  0.2004
 4945TIP3    H136250   0.178   0.735   4.972  0.8748 -0.6548 -0.9113
 4945TIP3    H236251   0.319   0.779   5.004  0.9619 -1.9195  0.5688
 4946TIP3   OH236252   4.190   0.557  16.458 -0.3936  0.2333 -0.3186
 4946TIP3    H136253   4.219   0.644  16.433 -2.8086  0.5016 -2.7068
 4946TIP3    H236254   4.119   0.537  16.397 -1.1033 -2.7098  1.2605
 4947TIP3   OH236255   2.019   3.885   3.552 -0.3761 -0.1628 -0.2731
 4947TIP3    H136256   2.033   3.894   3.646 -0.4982  1.0566 -0.3581
 4947TIP3    H236257   2.104   3.904   3.513 -0.7207  0.9967 -0.4830
 4948TIP3   OH236258   0.006   4.011  11.920 -0.2490 -0.3730  0.3164
 4948TIP3    H136259   0.006   3.919  11.893 -0.0285 -0.4376  0.5317
 4948TIP3    H236260   0.082   4.019  11.977 -0.3296 -0.0813  0.3840
 4949TIP3   OH236261   2.334   4.804   0.008 -0.1222 -0.5404  0.0777
 4949TIP3    H136262   2.347   4.899   0.002 -1.0636 -0.2267  2.0683
 4949TIP3    H236263   2.418   4.771   0.039  0.2137 -0.3673 -0.6283
 4950TIP3   OH236264   0.359   3.823   3.222  0.1117  0.0834 -0.0369
 4950TIP3    H136265   0.333   3.903   3.268 -0.8690 -1.2207  1.8326
 4950TIP3    H236266   0.317   3.830   3.136  1.7404  2.4603 -0.7284
 4951TIP3   OH236267   4.662   5.431   0.231 -0.0098  0.1917  0.0166
 4951TIP3    H136268   4.666   5.520   0.264 -1.1043  0.2386  0.0755
 4951TIP3    H236269   4.582   5.394   0.269 -0.5028 -0.2389 -1.3520
 4952TIP3   OH236270   3.857   3.695   1.837  0.5976  0.2455  0.4133
 4952TIP3    H136271   3.876   3.780   1.877 -1.5737  1.0083 -0.0445
 4952TIP3    H236272   3.885   3.704   1.746 -0.3915  0.7891  0.1510
 4953TIP3   OH236273   0.583   0.969   5.461 -0.1850  0.2273  0.0181
 4953TIP3    H136274   0.541   1.052   5.479  0.3196  0.1207  1.8121
 4953TIP3    H236275   0.576   0.919   5.542  0.6390 -0.9915 -0.6160
 4954TIP3   OH236276   6.343   3.398  13.585  0.3058  0.1074 -0.7069
 4954TIP3    H136277   6.421   3.444  13.553  1.9516 -1.4148  0.8354
 4954TIP3    H236278   6.360   3.386  13.678 -2.7803  1.5026  0.1419
 4955TIP3   OH236279   1.186   4.974  12.096  0.0491 -0.3058 -0.2017
 4955TIP3    H136280   1.158   4.959  12.187 -0.5153  0.9201 -0.1517
 4955TIP3    H236281   1.105   4.971  12.045  0.0336  1.2832 -0.3315
 4956TIP3   OH236282   0.208   3.831  12.234  0.5376 -0.3453  0.7480
 4956TIP3    H136283   0.231   3.891  12.163 -0.4942  0.9422  1.4407
 4956TIP3    H236284   0.148   3.769  12.195  0.4987 -0.0531  0.3368
 4957TIP3   OH236285   3.050   6.778   2.655  0.2221  0.0557 -0.1426
 4957TIP3    H136286   2.956   6.772   2.672  0.1517 -0.1016 -0.5753
 4957TIP3    H236287   3.081   6.687   2.659  0.2241  0.0281 -0.7213
 4958TIP3   OH236288   4.903   3.935  15.413 -0.1774 -0.2245 -0.2734
 4958TIP3    H136289   4.983   3.910  15.366  0.2554 -0.2747  0.4762
 4958TIP3    H236290   4.843   3.963  15.344  1.4187  2.5188 -0.7032
 4959TIP3   OH236291   2.314   4.316  11.728  0.2842  0.2336  0.0446
 4959TIP3    H136292   2.404   4.286  11.718 -0.2291 -2.0577  1.5701
 4959TIP3    H236293   2.318   4.410  11.710  3.2488  0.5247  1.5725
 4960TIP3   OH236294   6.386   0.479  13.936 -0.1771 -0.6246  0.0438
 4960TIP3    H136295   6.357   0.522  14.016 -3.1716 -4.0009  1.0510
 4960TIP3    H236296   6.340   0.526  13.866  0.2124  0.5737  0.5673
 4961TIP3   OH236297   0.495   6.778   6.505  0.4773  0.6108 -0.1071
 4961TIP3    H136298   0.566   6.796   6.443 -1.0056  1.5375 -1.6164
 4961TIP3    H236299   0.426   6.840   6.482 -0.8424 -0.2336  1.3322
 4962TIP3   OH236300   0.714   5.347   2.753  0.2419 -0.3598  0.0986
 4962TIP3    H136301   0.761   5.324   2.833  0.4739  0.6043  0.2427
 4962TIP3    H236302   0.783   5.354   2.687  0.1542 -0.1869  0.0274
 4963TIP3   OH236303   2.271   3.528  16.602 -0.0182  0.1508  0.4375
 4963TIP3    H136304   2.180   3.548  16.625 -0.3598 -2.2852  1.5591
 4963TIP3    H236305   2.320   3.607  16.625 -1.7702  1.3405  0.2300
 4964TIP3   OH236306   0.787   4.656  11.018  0.4792  0.0944  0.4375
 4964TIP3    H136307   0.780   4.713  11.095  2.9455 -1.5284  2.0275
 4964TIP3    H236308   0.732   4.580  11.039  0.3341  0.1140  0.1316
 4965TIP3   OH236309   1.828   6.389  16.431  0.7314  0.2976 -0.3843
 4965TIP3    H136310   1.866   6.369  16.516  2.4495 -0.1253 -1.2005
 4965TIP3    H236311   1.861   6.320  16.373 -0.4713  0.5176 -1.3830
 4966TIP3   OH236312   4.759   5.919  12.883 -0.0699  0.4042 -0.2715
 4966TIP3    H136313   4.753   5.915  12.978 -1.7892  0.1086 -0.3526
 4966TIP3    H236314   4.712   5.842  12.852 -2.7487  2.3139 -1.3580
 4967TIP3   OH236315   3.117   0.940  16.921 -0.4184  0.0983  0.1999
 4967TIP3    H136316   3.139   0.963  17.011 -0.2435  1.7051 -0.2096
 4967TIP3    H236317   3.023   0.926  16.921 -0.4650  0.3983  0.5865
 4968TIP3   OH236318   0.841   4.484  15.474  0.7309 -0.3312 -0.0553
 4968TIP3    H136319   0.881   4.523  15.396 -0.7819 -0.4795 -0.9520
 4968TIP3    H236320   0.857   4.547  15.544  0.1796  0.8942 -0.9938
 4969TIP3   OH236321   1.163   6.552   2.439  0.6237  0.5947  0.3444
 4969TIP3    H136322   1.144   6.627   2.383  1.6663 -0.0323 -0.9278
 4969TIP3    H236323   1.258   6.552   2.448  0.8843 -1.6579 -1.4017
 4970TIP3   OH236324   4.703   4.762  13.761 -0.2635 -0.1315 -0.0643
 4970TIP3    H136325   4.674   4.820  13.832 -0.8509  0.5929 -0.8764
 4970TIP3    H236326   4.740   4.822  13.696  0.1159 -0.7779 -0.4471
 4971TIP3   OH236327   5.080   6.254  13.564 -0.0806  0.0956  0.0435
 4971TIP3    H136328   5.046   6.176  13.521 -0.2407  0.2747 -0.1574
 4971TIP3    H236329   5.044   6.250  13.652 -0.0674 -0.0685  0.0424
 4972TIP3   OH236330   6.117   1.366   5.306  0.7221  0.1317  0.0925
 4972TIP3    H136331   6.189   1.302   5.308 -0.0344 -0.7927 -0.9237
 4972TIP3    H236332   6.056   1.331   5.241 -0.3833  1.1884  0.5260
 4973TIP3   OH236333   2.716   0.372  13.585 -0.1531 -0.3119  0.0528
 4973TIP3    H136334   2.681   0.453  13.549 -0.9216  0.2699  1.9798
 4973TIP3    H236335   2.799   0.397  13.626 -0.8718 -0.2572  1.5295
 4974TIP3   OH236336   4.727   0.628  12.504 -0.0313  0.3262  0.0610
 4974TIP3    H136337   4.700   0.537  12.489  2.3414 -0.7441  1.5583
 4974TIP3    H236338   4.764   0.657  12.420 -0.4816 -0.2120 -0.3285
 4975TIP3   OH236339   5.283   4.408  16.191 -0.4202  0.5110  0.2956
 4975TIP3    H136340   5.199   4.450  16.176 -2.2603 -3.1179 -0.6272
 4975TIP3    H236341   5.329   4.416  16.107 -0.8653  0.3690  0.0393
 4976TIP3   OH236342   5.633   4.733  10.477 -0.3680 -0.4010  0.4676
 4976TIP3    H136343   5.728   4.736  10.461 -0.5544  0.7402 -0.5768
 4976TIP3    H236344   5.594   4.760  10.394 -1.5811  0.2976  1.2444
 4977TIP3   OH236345   5.696   3.083  15.490  0.9107  0.1158  0.4415
 4977TIP3    H136346   5.611   3.044  15.511  0.9628  0.0000  0.4400
 4977TIP3    H236347   5.753   3.057  15.563  0.4308  1.9330  1.5156
 4978TIP3   OH236348   5.100   4.985  16.541  0.8423  0.5274  0.1231
 4978TIP3    H136349   5.006   4.973  16.551  0.8793 -0.0212 -0.1889
 4978TIP3    H236350   5.138   4.938  16.616  0.8958  0.2618 -0.0706
 4979TIP3   OH236351   5.554   4.520   1.796  0.0294  0.2671 -0.2942
 4979TIP3    H136352   5.518   4.574   1.867 -0.3958 -0.3211 -0.0475
 4979TIP3    H236353   5.476   4.485   1.752  0.2665 -1.3919  0.5245
 4980TIP3   OH236354   0.702   2.045   0.472  0.6568  0.1753 -0.5850
 4980TIP3    H136355   0.632   1.998   0.518 -1.0504  3.1664  0.1446
 4980TIP3    H236356   0.746   2.096   0.540  0.0990  2.3106 -1.7252
 4981TIP3   OH236357   5.435   3.081  12.278  0.8115 -0.1750 -0.1232
 4981TIP3    H136358   5.398   3.009  12.226 -0.3512  1.1523 -1.2392
 4981TIP3    H236359   5.528   3.082  12.254  0.3039  0.4376 -2.3544
 4982TIP3   OH236360   6.213   3.038   2.401  0.1961 -0.4323  0.6810
 4982TIP3    H136361   6.286   3.016   2.344  0.4614  0.8918  0.4850
 4982TIP3    H236362   6.224   3.131   2.421 -1.9734  0.0618 -0.1679
 4983TIP3   OH236363   4.413   3.318  16.535  0.1019  0.1670 -0.2620
 4983TIP3    H136364   4.353   3.279  16.472  0.4950 -1.2284  0.1759
 4983TIP3    H236365   4.454   3.391  16.489 -1.7522  1.0171 -0.6284
 4984TIP3   OH236366   3.940   2.431  13.868  0.5322 -1.4210  0.5074
 4984TIP3    H136367   4.024   2.462  13.835  0.4877  1.0258  2.3729
 4984TIP3    H236368   3.879   2.503  13.850 -0.6370 -2.2183  1.1342
 4985TIP3   OH236369   4.926   5.630  15.272 -0.4360  0.6839  0.4461
 4985TIP3    H136370   4.960   5.711  15.234 -0.2466  0.5962  0.4309
 4985TIP3    H236371   4.969   5.560  15.223 -0.9903  0.5710  0.1039
 4986TIP3   OH236372   2.498   0.084   3.794  0.0248  0.5979 -0.7252
 4986TIP3    H136373   2.438   0.150   3.829 -0.6420 -0.6740  0.6158
 4986TIP3    H236374   2.508   0.108   3.702 -3.0346  0.5389 -1.1846
 4987TIP3   OH236375   4.569   3.034   5.954 -0.6160 -0.1350 -0.2714
 4987TIP3    H136376   4.529   3.118   5.974 -1.0674 -0.3560 -0.2320
 4987TIP3    H236377   4.587   2.995   6.040 -0.4241 -0.0890 -0.2898
 4988TIP3   OH236378   5.662   4.838  15.867 -0.0324 -0.0793  0.2004
 4988TIP3    H136379   5.757   4.830  15.872  0.1602  1.4143 -0.6306
 4988TIP3    H236380   5.630   4.753  15.896  1.5404 -0.5267  0.7507
 4989TIP3   OH236381   0.712   2.646  12.685  0.2036  0.0326 -0.1401
 4989TIP3    H136382   0.722   2.633  12.779  0.9032  0.8368 -0.0962
 4989TIP3    H236383   0.735   2.738  12.671 -1.4648  0.3851 -0.8727
 4990TIP3   OH236384   3.305   3.876   2.986  0.0054 -0.0862  0.5920
 4990TIP3    H136385   3.215   3.891   2.958 -0.3754 -1.4912  0.9504
 4990TIP3    H236386   3.338   3.962   3.010 -0.4494  0.8192 -1.7817
 4991TIP3   OH236387   0.003   1.008  12.743 -0.3798  0.2130 -0.6708
 4991TIP3    H136388   0.010   1.072  12.672 -0.4229 -0.0054 -0.8717
 4991TIP3    H236389   0.042   0.928  12.708  0.7080  0.4421 -0.0209
 4992TIP3   OH236390   0.916   4.599  13.670 -0.6238  0.2521  0.0791
 4992TIP3    H136391   0.980   4.527  13.675 -0.2607  0.6109  0.7307
 4992TIP3    H236392   0.907   4.616  13.576  1.7588  1.4959 -0.0267
 4993TIP3   OH236393   0.440   5.729   2.991  0.0159 -0.0389  0.7386
 4993TIP3    H136394   0.472   5.672   3.061 -0.1472 -1.2496 -0.1323
 4993TIP3    H236395   0.499   5.712   2.917 -0.5363  0.3050  0.2094
 4994TIP3   OH236396   4.215   2.930  16.790  0.3725  0.5478  0.5665
 4994TIP3    H136397   4.216   2.987  16.713 -0.8183 -0.6690 -0.4000
 4994TIP3    H236398   4.296   2.950  16.835  1.4488  0.8301 -1.3758
 4995TIP3   OH236399   0.637   5.676  11.369 -0.3570  0.1418  0.1507
 4995TIP3    H136400   0.582   5.615  11.321 -0.1383 -0.3824  0.5530
 4995TIP3    H236401   0.633   5.645  11.460  1.6545 -0.7397 -0.0030
 4996TIP3   OH236402   3.267   0.414  14.400  0.3942 -0.5072  0.3521
 4996TIP3    H136403   3.254   0.394  14.493  0.6230 -0.2877  0.4301
 4996TIP3    H236404   3.254   0.330  14.356  1.9841 -0.9896  0.7420
 4997TIP3   OH236405   3.690   5.108  14.601  0.0148  0.4337  0.1973
 4997TIP3    H136406   3.769   5.153  14.630  0.0422  0.1983  0.4912
 4997TIP3    H236407   3.709   5.015  14.616  0.4053  0.2141 -1.4380
 4998TIP3   OH236408   3.394   5.001   4.569 -0.0035 -0.5251  0.3712
 4998TIP3    H136409   3.394   5.050   4.652  0.3970 -1.3306  0.8619
 4998TIP3    H236410   3.452   5.051   4.512  1.2885 -0.9789  1.2323
 4999TIP3   OH236411   1.975   0.414   5.899 -0.4650  0.2033  0.1166
 4999TIP3    H136412   2.028   0.492   5.914 -0.9054  0.5967 -0.3720
 4999TIP3    H236413   1.916   0.410   5.973 -0.3269  0.2392  0.2287
 5000TIP3   OH236414   6.719   5.033  14.839  0.0840  0.2586  0.2689
 5000TIP3    H136415   6.663   5.110  14.849 -0.0594  0.3837 -1.2476
 5000TIP3    H236416   6.705   5.004  14.749  0.8871 -0.9604  0.5035
 5001TIP3   OH236417   2.975   5.751  12.859  0.2231  0.4441 -0.3674
 5001TIP3    H136418   3.038   5.682  12.837  0.3042  1.5120 -4.1634
 5001TIP3    H236419   3.017   5.832  12.831 -2.0710  1.3944 -1.2926
 5002TIP3   OH236420   2.370   0.974   6.528 -0.7658  0.4866 -0.0504
 5002TIP3    H136421   2.461   1.004   6.537 -1.2330  1.3666  2.7400
 5002TIP3    H236422   2.377   0.880   6.516  0.5487  0.2842  1.8399
 5003TIP3   OH236423   1.050   3.127  15.002  0.3593  0.5450 -0.0700
 5003TIP3    H136424   1.090   3.110  14.916 -1.5953  1.5809 -1.2463
 5003TIP3    H236425   1.104   3.198  15.039  3.2381 -2.0149  1.1239
 5004TIP3   OH236426   4.103   3.741   3.552  0.0832 -0.6006  0.3957
 5004TIP3    H136427   4.038   3.690   3.601 -2.1907  1.6360 -0.1191
 5004TIP3    H236428   4.122   3.817   3.608 -0.3054  0.4761 -0.8862
 5005TIP3   OH236429   3.407   5.515  14.248 -0.1471 -0.1883  0.4853
 5005TIP3    H136430   3.498   5.536  14.265 -0.2737  0.1995  0.7019
 5005TIP3    H236431   3.395   5.530  14.155 -0.1423  0.3712  0.5699
 5006TIP3   OH236432   3.971   5.970  11.987 -0.3908  0.1875  0.3336
 5006TIP3    H136433   3.900   5.954  11.926 -1.0718 -0.9155  1.3781
 5006TIP3    H236434   4.030   5.896  11.977  0.0945  0.5862  0.1933
 5007TIP3   OH236435   2.863   2.680   2.536  0.2339  0.8764  0.1866
 5007TIP3    H136436   2.787   2.632   2.502  0.7346  0.4070 -0.2888
 5007TIP3    H236437   2.921   2.691   2.460  1.1564  0.2305  0.7759
 5008TIP3   OH236438   2.382   2.486   0.753  0.0048  0.5886 -0.0789
 5008TIP3    H136439   2.377   2.390   0.760 -0.8195  0.6730  0.7692
 5008TIP3    H236440   2.381   2.503   0.659  1.9265 -0.2941 -0.3022
 5009TIP3   OH236441   3.250   4.397   4.778  0.0911 -0.1622 -0.0909
 5009TIP3    H136442   3.155   4.390   4.786  0.1239  0.3776  0.8885
 5009TIP3    H236443   3.277   4.316   4.735 -0.9023  0.0842 -1.2425
 5010TIP3   OH236444   3.713   4.996  14.194 -0.7051  0.2564 -0.3106
 5010TIP3    H136445   3.625   4.959  14.189 -0.9415  0.7808  0.0167
 5010TIP3    H236446   3.700   5.089  14.211 -0.0795  0.2712  0.1237
 5011TIP3   OH236447   2.498   3.158   1.131 -0.5741  0.2960  0.4979
 5011TIP3    H136448   2.486   3.179   1.039  0.3463 -0.0921  0.2787
 5011TIP3    H236449   2.416   3.115   1.157 -0.8189  0.3692 -0.1464
 5012TIP3   OH236450   2.539   0.738   5.619  0.2756  0.6979 -0.3277
 5012TIP3    H136451   2.628   0.705   5.613 -0.0117 -0.6844  1.9013
 5012TIP3    H236452   2.510   0.715   5.707 -2.5596  0.3942 -1.2177
 5013TIP3   OH236453   5.695   4.419  11.862  0.5875  0.5600 -0.0247
 5013TIP3    H136454   5.704   4.515  11.862 -0.1376  0.6416 -0.8358
 5013TIP3    H236455   5.602   4.404  11.846  0.3708 -0.2875  1.7582
 5014TIP3   OH236456   5.881   0.894  12.492 -0.4652 -0.0426 -0.4649
 5014TIP3    H136457   5.952   0.836  12.464 -1.0388 -0.8671 -0.2411
 5014TIP3    H236458   5.897   0.976  12.446  0.9676 -0.0179  0.0101
 5015TIP3   OH236459   5.234   0.314   4.681 -0.1616  0.0850 -0.7227
 5015TIP3    H136460   5.173   0.387   4.694 -0.2016  0.2195 -1.6525
 5015TIP3    H236461   5.183   0.237   4.706  0.0550  0.3929  0.8141
 5016TIP3   OH236462   0.734   5.174  13.477 -0.0577 -0.0451 -0.3308
 5016TIP3    H136463   0.641   5.190  13.493 -0.7029 -0.3371 -3.1821
 5016TIP3    H236464   0.755   5.100  13.534 -2.0167 -0.9750 -0.7036
 5017TIP3   OH236465   0.148   1.345  11.311 -0.1028 -0.0382 -0.8346
 5017TIP3    H136466   0.157   1.408  11.382 -1.1969 -1.6286  0.8151
 5017TIP3    H236467   0.111   1.395  11.239 -1.0575  1.2014  0.4600
 5018TIP3   OH236468   2.597   1.943   4.277  0.1509 -0.3910 -0.1104
 5018TIP3    H136469   2.562   1.855   4.288 -0.2677 -0.4026 -1.4200
 5018TIP3    H236470   2.552   1.978   4.200 -1.3889  1.8325  1.6621
 5019TIP3   OH236471   1.450   4.386  16.623  0.2328 -0.5807  0.1108
 5019TIP3    H136472   1.399   4.465  16.608 -0.0694 -0.4076  1.9034
 5019TIP3    H236473   1.385   4.315  16.619  0.5808 -0.8665 -2.0474
 5020TIP3   OH236474   1.701   1.281   1.090  0.2355  0.3632  0.1658
 5020TIP3    H136475   1.694   1.210   1.027 -0.7032 -1.3650  2.0933
 5020TIP3    H236476   1.638   1.346   1.061 -2.6418 -1.8446  0.9961
 5021TIP3   OH236477   4.969   6.336  14.804 -0.7353 -0.2446  0.6059
 5021TIP3    H136478   4.988   6.424  14.834 -1.6158 -0.4389  1.8232
 5021TIP3    H236479   4.899   6.347  14.739  1.1640  0.1777 -1.4673
 5022TIP3   OH236480   4.859   6.077   5.593  0.2689  0.2807 -0.3035
 5022TIP3    H136481   4.766   6.057   5.580  0.6597 -2.5168  0.5566
 5022TIP3    H236482   4.880   6.141   5.524 -1.5856 -1.2708 -2.4423
 5023TIP3   OH236483   0.433   5.938  16.106 -0.4825  0.0834  0.6346
 5023TIP3    H136484   0.438   5.949  16.201  1.5169 -0.4335  0.6379
 5023TIP3    H236485   0.520   5.907  16.081  0.1521  3.2548 -1.7604
 5024TIP3   OH236486   3.280   1.697  13.036 -0.1958 -0.6050 -0.0684
 5024TIP3    H136487   3.350   1.720  12.975 -0.7697  0.8836 -0.1919
 5024TIP3    H236488   3.280   1.766  13.101 -1.3466 -0.7418  0.1079
 5025TIP3   OH236489   2.790   2.918  11.859  0.5344 -0.5691 -0.1598
 5025TIP3    H136490   2.716   2.891  11.913 -0.3257 -0.1774 -1.1084
 5025TIP3    H236491   2.840   2.837  11.845 -1.1282 -1.4002 -1.6279
 5026TIP3   OH236492   2.921   1.020   4.633 -0.6105 -0.6056 -0.1503
 5026TIP3    H136493   2.968   0.962   4.693  0.5800 -1.6514 -2.0132
 5026TIP3    H236494   2.968   1.103   4.638 -2.1608  0.2418  2.3272
 5027TIP3   OH236495   6.337   4.962   2.303 -0.6346 -0.0826 -0.0565
 5027TIP3    H136496   6.428   4.946   2.276 -0.8708 -1.2827 -0.1881
 5027TIP3    H236497   6.337   4.940   2.397 -0.5075  1.1688  0.2549
 5028TIP3   OH236498   5.524   2.913   2.645 -0.0729 -0.4437  0.0145
 5028TIP3    H136499   5.587   2.844   2.667  0.9069  0.2815 -0.4219
 5028TIP3    H236500   5.569   2.994   2.668 -0.8118  0.0949 -0.4000
 5029TIP3   OH236501   3.995   3.687   4.963 -0.3929  0.5168  0.6924
 5029TIP3    H136502   4.047   3.627   5.017 -0.3308 -0.2845 -0.2248
 5029TIP3    H236503   4.015   3.661   4.873  0.7990  2.8818  0.1881
 5030TIP3   OH236504   1.708   2.564   1.240 -0.1562 -0.6648 -0.7334
 5030TIP3    H136505   1.758   2.573   1.321  0.8536 -0.9101 -1.3014
 5030TIP3    H236506   1.625   2.607   1.257  0.5265  0.3937  0.0211
 5031TIP3   OH236507   2.519   3.225   4.165 -0.3040  0.2032 -0.3714
 5031TIP3    H136508   2.476   3.293   4.217  0.1727  0.2451 -0.0317
 5031TIP3    H236509   2.481   3.234   4.078 -0.4029  0.7601 -0.2726
 5032TIP3   OH236510   1.876   2.099  12.331 -0.0768 -0.1795 -0.3038
 5032TIP3    H136511   1.940   2.152  12.378  1.1859 -2.3066  0.5609
 5032TIP3    H236512   1.867   2.020  12.384 -2.7991 -0.3650 -0.8792
 5033TIP3   OH236513   4.448   1.190  12.395  0.3855  0.3711  0.8805
 5033TIP3    H136514   4.544   1.186  12.385  0.4215  1.2531  0.7998
 5033TIP3    H236515   4.435   1.207  12.488  0.2473 -1.2751  1.1898
 5034TIP3   OH236516   2.457   3.783  13.888 -1.2172  0.3465 -0.1783
 5034TIP3    H136517   2.411   3.796  13.971 -1.2814  1.0005 -0.3116
 5034TIP3    H236518   2.487   3.870  13.863 -2.5913  0.4608 -1.6408
 5035TIP3   OH236519   6.060   1.132   1.916 -0.5557 -0.1026 -0.6932
 5035TIP3    H136520   5.974   1.156   1.881 -0.9342  0.2367  0.4250
 5035TIP3    H236521   6.063   1.037   1.908 -0.7761 -0.0630 -1.3097
 5036TIP3   OH236522   0.475   5.337  15.867 -0.7045  0.1663  0.1718
 5036TIP3    H136523   0.541   5.375  15.809  0.1472 -1.8802 -0.3186
 5036TIP3    H236524   0.408   5.302  15.808 -1.5269  0.9781  0.6050
 5037TIP3   OH236525   2.953   1.088   5.393  0.0261 -0.3448 -0.3030
 5037TIP3    H136526   2.972   1.113   5.303  1.0942  2.4112  0.6005
 5037TIP3    H236527   2.974   0.994   5.396  0.5997 -0.3686 -2.7374
 5038TIP3   OH236528   0.724   3.444   2.632  0.0202  0.4912 -0.2869
 5038TIP3    H136529   0.716   3.477   2.542  0.2010  0.1879 -0.4163
 5038TIP3    H236530   0.644   3.394   2.646 -0.7893  1.8745  0.2977
 5039TIP3   OH236531   2.652   4.341   5.134  0.0034  0.8502 -0.1124
 5039TIP3    H136532   2.604   4.317   5.213 -0.2124  0.6989 -0.2895
 5039TIP3    H236533   2.713   4.410   5.163  0.3941  0.3282  0.3217
 5040TIP3   OH236534   0.535   5.440   0.678  0.0382  0.0654 -0.1592
 5040TIP3    H136535   0.528   5.478   0.590 -1.9444 -0.0141 -0.0817
 5040TIP3    H236536   0.468   5.487   0.729  0.6461 -0.4185  1.1166
 5041TIP3   OH236537   6.584   4.950  14.047 -0.0180 -1.1965 -0.5161
 5041TIP3    H136538   6.676   4.970  14.064 -0.6739  0.1208  1.9895
 5041TIP3    H236539   6.553   5.020  13.991 -0.2488  0.3252  1.4100
 5042TIP3   OH236540   3.868   2.593  12.003 -0.0185  0.1494 -0.4213
 5042TIP3    H136541   3.902   2.582  12.091 -3.3219  2.3371  1.3206
 5042TIP3    H236542   3.835   2.507  11.978  0.3364 -0.3319  0.7391
 5043TIP3   OH236543   1.087   1.518  11.484  0.2373  0.1927  0.0737
 5043TIP3    H136544   1.078   1.586  11.552  2.0066 -0.2519  0.7966
 5043TIP3    H236545   1.084   1.436  11.532 -0.5212 -0.2223 -0.6513
 5044TIP3   OH236546   5.137   5.666  16.091 -0.3796 -0.2702 -0.2019
 5044TIP3    H136547   5.167   5.733  16.029 -0.6531 -1.4446 -1.6457
 5044TIP3    H236548   5.215   5.641  16.140  0.7187 -1.9389 -2.6218
 5045TIP3   OH236549   2.985   0.424   2.521 -0.0847 -0.0866  0.2906
 5045TIP3    H136550   2.963   0.350   2.577  0.6126 -1.2654 -0.9639
 5045TIP3    H236551   3.038   0.481   2.577  0.0684 -0.9303  1.0262
 5046TIP3   OH236552   2.271   0.768  16.050  0.1925 -0.4141  0.1462
 5046TIP3    H136553   2.277   0.682  16.091  1.2080 -1.1194 -1.3639
 5046TIP3    H236554   2.362   0.790  16.028  0.0036  1.2422  0.8255
 5047TIP3   OH236555   6.365   2.460   3.347 -0.5435 -0.2225 -0.0358
 5047TIP3    H136556   6.460   2.472   3.356 -0.8578  2.0376  0.7261
 5047TIP3    H236557   6.356   2.368   3.323  1.8475 -0.4802 -0.2527
 5048TIP3   OH236558   1.237   1.708  14.104 -0.0711  0.1691 -0.8162
 5048TIP3    H136559   1.151   1.673  14.127  0.2059  0.4238  0.6848
 5048TIP3    H236560   1.224   1.803  14.101 -0.4679  0.1299 -3.4137
 5049TIP3   OH236561   4.938   1.581  12.158 -0.0511 -0.0235 -0.2265
 5049TIP3    H136562   4.965   1.635  12.232  0.8390 -0.6811 -0.0597
 5049TIP3    H236563   4.982   1.497  12.172 -1.2611 -0.7344 -0.5828
 5050TIP3   OH236564   6.532   1.562   4.714  0.0153  0.1964  0.0307
 5050TIP3    H136565   6.492   1.490   4.665  0.2175  1.5249 -2.2017
 5050TIP3    H236566   6.626   1.542   4.712  0.1244  0.7485 -1.0444
 5051TIP3   OH236567   1.202   4.219   2.722  0.2642 -0.1197 -0.5506
 5051TIP3    H136568   1.287   4.214   2.677  1.4463  0.5683  1.4850
 5051TIP3    H236569   1.219   4.274   2.798 -1.7397 -0.9640  0.5682
 5052TIP3   OH236570   0.754   0.762   4.659 -0.4224  0.0053  0.0608
 5052TIP3    H136571   0.793   0.845   4.634  0.0278 -0.9025 -2.5724
 5052TIP3    H236572   0.760   0.760   4.754  0.7494  2.3825  0.1033
 5053TIP3   OH236573   3.387   3.417   3.180 -0.4403  0.1092  1.0008
 5053TIP3    H136574   3.460   3.379   3.133  0.0581  1.3938  0.6999
 5053TIP3    H236575   3.310   3.391   3.130 -0.0851 -0.2071  0.6120
 5054TIP3   OH236576   4.900   0.346  16.828  0.2164  0.0278 -0.1691
 5054TIP3    H136577   4.880   0.423  16.882  0.2571 -1.0850  1.5119
 5054TIP3    H236578   4.903   0.274  16.890 -0.1961 -1.4174 -1.7547
 5055TIP3   OH236579   5.755   4.680  10.202 -0.1183  0.8938 -0.4039
 5055TIP3    H136580   5.845   4.712  10.208  0.8292 -1.4570 -1.1458
 5055TIP3    H236581   5.763   4.585  10.200 -2.5208  0.6311 -2.0326
 5056TIP3   OH236582   1.403   0.310   4.698 -0.2502  0.1806  0.1910
 5056TIP3    H136583   1.310   0.309   4.718 -0.1578  0.4463  0.6555
 5056TIP3    H236584   1.423   0.221   4.671 -0.4622 -0.1102  0.9555
 5057TIP3   OH236585   5.722   5.605   1.461  0.2774 -0.6008  0.1871
 5057TIP3    H136586   5.767   5.614   1.376  1.5728 -1.3806  0.7500
 5057TIP3    H236587   5.631   5.588   1.438 -0.0197  2.0725 -1.0012
 5058TIP3   OH236588   2.593   3.724  16.898  0.0262  0.4560  0.7899
 5058TIP3    H136589   2.553   3.811  16.899  0.3473  0.6660 -1.0342
 5058TIP3    H236590   2.520   3.664  16.913 -0.1585  0.9977  2.3654
 5059TIP3   OH236591   6.023   2.476  13.063 -0.3063  0.8043  0.0749
 5059TIP3    H136592   6.016   2.467  13.158 -1.9816  1.6077  0.0728
 5059TIP3    H236593   5.932   2.479  13.033  0.1644 -1.0401 -1.7332
 5060TIP3   OH236594   1.773   4.848   4.412  0.1213  0.2166  0.0272
 5060TIP3    H136595   1.721   4.815   4.338  0.4780 -0.1633 -0.0551
 5060TIP3    H236596   1.863   4.831   4.387  0.9343  5.7313 -2.4513
 5061TIP3   OH236597   2.604   1.927   6.449  0.1736 -0.1008  0.6227
 5061TIP3    H136598   2.563   1.866   6.388  0.0572  1.6456 -1.1074
 5061TIP3    H236599   2.540   1.997   6.460  0.6602  0.1777  1.9002
 5062TIP3   OH236600   2.757   1.744  11.578 -0.1701  0.1490  0.0092
 5062TIP3    H136601   2.707   1.824  11.563  0.0780 -0.0797 -2.2891
 5062TIP3    H236602   2.699   1.690  11.632 -0.5199  1.6363  1.2047
 5063TIP3   OH236603   2.400   1.407  16.386 -0.0186  0.0160 -0.5940
 5063TIP3    H136604   2.413   1.357  16.467  0.4573 -0.9575 -1.2536
 5063TIP3    H236605   2.427   1.496  16.409  2.0661 -0.6545 -0.2132
 5064TIP3   OH236606   4.628   3.825  16.331 -0.0199  0.3762 -0.2236
 5064TIP3    H136607   4.620   3.787  16.418  0.0813  0.9974  0.0577
 5064TIP3    H236608   4.720   3.812  16.308 -0.0145  0.3408 -0.1818
 5065TIP3   OH236609   0.887   2.801   3.229 -0.0218  0.0557 -0.1921
 5065TIP3    H136610   0.802   2.760   3.212 -0.2589  1.4254 -2.8093
 5065TIP3    H236611   0.865   2.892   3.250  0.7497  0.0847  0.5316
 5066TIP3   OH236612   6.804   4.197  15.204 -0.8220  0.0179 -0.3654
 5066TIP3    H136613   6.712   4.222  15.212 -0.4111  1.3753  0.5223
 5066TIP3    H236614   6.851   4.280  15.198  0.3139 -0.6647 -1.3558
 5067TIP3   OH236615   5.935   6.465   4.255 -0.1157 -0.0510  0.5886
 5067TIP3    H136616   5.987   6.530   4.303 -1.0911  1.3288 -0.1454
 5067TIP3    H236617   5.847   6.474   4.292 -0.4318 -0.3924 -0.0714
 5068TIP3   OH236618   1.313   4.831   4.455 -0.5252  0.3319 -0.1245
 5068TIP3    H136619   1.242   4.825   4.391  0.4156 -1.2924 -1.0434
 5068TIP3    H236620   1.384   4.876   4.409 -0.4101  0.6129  0.3160
 5069TIP3   OH236621   4.902   3.768  16.304  0.3555 -0.0312  0.1108
 5069TIP3    H136622   4.956   3.704  16.258  2.1501 -0.0630  2.0968
 5069TIP3    H236623   4.916   3.749  16.397 -1.2877  1.4731  0.7323
 5070TIP3   OH236624   5.843   2.797  15.496  0.7138 -0.3900  0.1423
 5070TIP3    H136625   5.750   2.774  15.505  0.2003  1.4603  0.0304
 5070TIP3    H236626   5.862   2.848  15.574  1.2619  0.3675 -0.4766
 5071TIP3   OH236627   2.490   1.373  16.124  0.1697 -0.5177  0.1029
 5071TIP3    H136628   2.449   1.382  16.210  0.6164 -1.1890  0.3973
 5071TIP3    H236629   2.563   1.313  16.139  0.2360 -0.6603 -0.7521
 5072TIP3   OH236630   2.380   3.084   6.419  0.7994 -0.6341  0.0703
 5072TIP3    H136631   2.430   3.004   6.405 -0.5202 -1.1279 -2.3798
 5072TIP3    H236632   2.290   3.054   6.433  0.8574  0.2934  3.0184
 5073TIP3   OH236633   5.444   1.506   3.834  0.0063 -0.2969 -0.4648
 5073TIP3    H136634   5.471   1.589   3.795  1.4729 -1.0903 -1.2015
 5073TIP3    H236635   5.391   1.464   3.766  0.3831 -0.5419 -0.6093
 5074TIP3   OH236636   2.630   2.085   5.085 -0.0450  0.1638 -0.6151
 5074TIP3    H136637   2.625   2.142   5.008  1.1664  1.7966  0.4510
 5074TIP3    H236638   2.667   2.141   5.153 -1.0327 -1.2565  1.1576
 5075TIP3   OH236639   5.718   1.585   0.569  0.2186  0.4172 -0.2812
 5075TIP3    H136640   5.668   1.540   0.501  1.2242 -0.9269 -0.1759
 5075TIP3    H236641   5.653   1.633   0.620 -0.8786 -0.7665 -0.5352
 5076TIP3   OH236642   1.748   4.302   4.792 -0.4407  0.5932 -0.3754
 5076TIP3    H136643   1.731   4.211   4.767  0.0827 -0.2901  2.2044
 5076TIP3    H236644   1.676   4.324   4.851  1.3927  0.4937  2.0366
 5077TIP3   OH236645   5.536   2.657  16.720 -0.0538  0.3397  0.4272
 5077TIP3    H136646   5.561   2.565  16.727 -0.7952  0.0563 -0.3262
 5077TIP3    H236647   5.443   2.658  16.744 -0.2393  0.7657 -0.2859
 5078TIP3   OH236648   6.494   5.455  10.576  0.1670  0.0406  0.7330
 5078TIP3    H136649   6.441   5.509  10.518 -1.3211 -0.7639  1.2748
 5078TIP3    H236650   6.531   5.388  10.519 -0.4245 -0.1144  0.5183
 5079TIP3   OH236651   5.703   2.732  15.973  0.6812  0.2906  0.0807
 5079TIP3    H136652   5.647   2.689  15.909  1.3069 -1.6267  0.7348
 5079TIP3    H236653   5.646   2.748  16.048  0.5594  0.1352  0.0216
 5080TIP3   OH236654   1.301   4.032  14.577 -0.0570 -0.2035  0.3472
 5080TIP3    H136655   1.337   3.993  14.656  1.4981 -0.7043 -0.5709
 5080TIP3    H236656   1.260   3.959  14.530  1.6269 -0.5271 -0.6967
 5081TIP3   OH236657   2.149   5.549  14.423  0.2484 -0.7329  0.0999
 5081TIP3    H136658   2.133   5.565  14.330  0.6856 -3.1764 -0.4883
 5081TIP3    H236659   2.130   5.632  14.466  1.4211  0.9037 -2.3124
 5082TIP3   OH236660   4.557   2.824   4.237 -0.5553 -0.2933 -0.4575
 5082TIP3    H136661   4.536   2.814   4.330 -1.6787 -1.2059 -0.7924
 5082TIP3    H236662   4.480   2.866   4.199  0.5770  1.7095 -0.7100
 5083TIP3   OH236663   6.401   5.084   1.123 -0.1771  0.0438  0.1516
 5083TIP3    H136664   6.404   5.058   1.215  2.3318  0.8361  0.3691
 5083TIP3    H236665   6.491   5.075   1.092 -1.0749 -0.8211 -2.4499
 5084TIP3   OH236666   3.808   6.774  15.124 -0.0025 -0.0074  0.2641
 5084TIP3    H136667   3.803   6.764  15.029 -0.2225 -3.7990  0.5119
 5084TIP3    H236668   3.720   6.750  15.155  0.7221 -1.2520  1.4886
 5085TIP3   OH236669   5.378   2.019  10.443 -0.0121 -0.4523 -0.8260
 5085TIP3    H136670   5.416   2.085  10.385 -3.0430  1.6881 -0.6198
 5085TIP3    H236671   5.357   1.945  10.385  1.4372 -0.3946 -1.4733
 5086TIP3   OH236672   5.555   4.153   3.572 -0.0856 -0.2696  0.1247
 5086TIP3    H136673   5.586   4.063   3.568  1.3164  0.2304 -2.2533
 5086TIP3    H236674   5.483   4.156   3.510 -1.3005 -0.1198  1.5041
 5087TIP3   OH236675   4.025   0.003   5.270  0.8246  0.3320 -0.3448
 5087TIP3    H136676   3.943   0.035   5.309 -0.2877 -1.6897 -0.9055
 5087TIP3    H236677   4.090   0.014   5.340 -0.6528 -1.1824  1.3708
 5088TIP3   OH236678   5.693   1.738  16.420 -0.1036 -0.2510 -0.3510
 5088TIP3    H136679   5.723   1.717  16.508  2.5907  1.2818 -0.8002
 5088TIP3    H236680   5.684   1.653  16.377  0.6388 -0.9237  0.7794
 5089TIP3   OH236681   3.148   3.134   2.416 -1.1158 -0.5267 -0.1937
 5089TIP3    H136682   3.152   3.089   2.331 -0.7431  2.5642 -1.9882
 5089TIP3    H236683   3.057   3.126   2.444 -1.4002 -1.0715 -1.2346
 5090TIP3   OH236684   0.420   6.382  12.991 -0.3899 -0.9275 -0.2459
 5090TIP3    H136685   0.479   6.456  12.977 -1.4162 -0.3465 -1.7007
 5090TIP3    H236686   0.460   6.332  13.063  0.4937  0.8547  0.5514
 5091TIP3   OH236687   6.685   4.427   4.188  0.0385 -0.2015  0.3477
 5091TIP3    H136688   6.778   4.406   4.181  0.0758 -0.7013  1.8768
 5091TIP3    H236689   6.683   4.523   4.197  0.2736 -0.0362 -1.0833
 5092TIP3   OH236690   0.378   5.100  12.063 -0.1873 -0.4263 -0.0409
 5092TIP3    H136691   0.471   5.115  12.081 -0.8560  1.5542  2.2305
 5092TIP3    H236692   0.358   5.162  11.992 -0.2634  0.9587  1.1434
 5093TIP3   OH236693   6.710   0.675   2.702  0.0306  0.2827  0.5169
 5093TIP3    H136694   6.785   0.714   2.749  0.1064  0.0060  0.6261
 5093TIP3    H236695   6.638   0.679   2.766  0.3988 -1.0685  1.0552
 5094TIP3   OH236696   5.710   5.464   0.254 -0.4368  0.0346  0.0085
 5094TIP3    H136697   5.795   5.434   0.286 -0.0541  1.5952  0.5577
 5094TIP3    H236698   5.656   5.385   0.249  1.4730 -1.2334 -1.8177
 5095TIP3   OH236699   4.655   1.460  14.425 -0.1647 -0.3222  0.2432
 5095TIP3    H136700   4.579   1.493  14.474 -0.9033 -0.7002 -0.6247
 5095TIP3    H236701   4.664   1.369  14.453 -1.2798 -0.8771 -1.1152
 5096TIP3   OH236702   1.373   2.258   0.669 -0.1496 -0.6838 -0.3091
 5096TIP3    H136703   1.376   2.166   0.642 -0.7907 -1.8548  3.1452
 5096TIP3    H236704   1.459   2.293   0.645  0.8420 -2.7576  0.0241
 5097TIP3   OH236705   4.830   2.844   0.396 -0.1331  0.8495  0.3346
 5097TIP3    H136706   4.871   2.759   0.377 -0.7203  0.9492 -1.6197
 5097TIP3    H236707   4.765   2.825   0.463 -0.2097 -0.2502 -0.0260
 5098TIP3   OH236708   6.225   3.935  15.672 -0.2179 -1.5603  0.4705
 5098TIP3    H136709   6.131   3.937  15.689 -0.2166 -1.1839  0.4305
 5098TIP3    H236710   6.264   3.915  15.757 -0.3757 -2.5600  0.3245
 5099TIP3   OH236711   2.736   4.350  13.510  0.4326  0.4179  0.1450
 5099TIP3    H136712   2.729   4.441  13.539 -0.0038  0.3995  0.0963
 5099TIP3    H236713   2.731   4.298  13.591 -0.4774  0.3814  0.0678
 5100TIP3   OH236714   0.057   3.596  13.500 -0.1887  0.3942 -0.5638
 5100TIP3    H136715   0.128   3.627  13.443  1.4610 -1.9830  0.0525
 5100TIP3    H236716   0.018   3.522  13.453  0.0196 -0.4695  0.5678
 5101TIP3   OH236717   1.931   5.509   5.494  0.1413 -0.1746  0.3013
 5101TIP3    H136718   1.939   5.433   5.552  1.4321 -1.0582 -0.9937
 5101TIP3    H236719   1.953   5.476   5.407  1.2763  1.7872 -0.2073
 5102TIP3   OH236720   2.561   3.558  14.751 -0.1475 -0.2521 -0.2347
 5102TIP3    H136721   2.494   3.515  14.696 -0.4630  1.8226 -1.5807
 5102TIP3    H236722   2.513   3.628  14.796  0.9413  0.7425 -0.5859
 5103TIP3   OH236723   0.981   1.926  10.714 -0.0896 -0.2516 -0.2612
 5103TIP3    H136724   0.887   1.908  10.722 -0.6447  2.3481 -0.2707
 5103TIP3    H236725   1.011   1.866  10.646 -2.1521  0.2262 -1.6684
 5104TIP3   OH236726   3.957   1.883   4.049 -0.5640 -0.3594  0.3369
 5104TIP3    H136727   3.896   1.812   4.067 -1.1053 -0.2760 -1.0182
 5104TIP3    H236728   3.924   1.957   4.101 -0.5599 -0.8252  1.0033
 5105TIP3   OH236729   5.646   0.252  11.947  0.5582 -0.3481  0.1492
 5105TIP3    H136730   5.730   0.259  11.901  0.0632 -1.5152 -1.0017
 5105TIP3    H236731   5.651   0.168  11.993  0.0847 -0.3438  0.2081
 5106TIP3   OH236732   4.403   6.555  12.897 -0.4196 -0.1278  0.6612
 5106TIP3    H136733   4.475   6.493  12.914 -1.1200 -0.7561  1.4534
 5106TIP3    H236734   4.418   6.627  12.958 -0.3831 -0.1929  0.7285
 5107TIP3   OH236735   0.077   6.798   6.251  0.0501 -0.5290 -0.3130
 5107TIP3    H136736   0.046   6.879   6.291  0.1208  0.2190 -1.7101
 5107TIP3    H236737   0.008   6.734   6.269 -0.6357  0.1859 -0.3480
 5108TIP3   OH236738   5.576   6.008  11.061  0.6088  0.0500  0.3108
 5108TIP3    H136739   5.500   5.961  11.027 -0.3653  0.9774  1.1392
 5108TIP3    H236740   5.556   6.021  11.154  0.9975  1.8162  0.1733
 5109TIP3   OH236741   6.385   1.845  14.133 -0.1528 -0.2468 -0.5365
 5109TIP3    H136742   6.341   1.791  14.067 -0.6884  1.6542 -1.8025
 5109TIP3    H236743   6.359   1.806  14.216  0.2092 -2.4612 -1.3963
 5110TIP3   OH236744   2.549   6.087   2.515  0.0043  0.5595 -0.1102
 5110TIP3    H136745   2.458   6.115   2.527 -1.2404 -1.7946 -2.7376
 5110TIP3    H236746   2.571   6.113   2.426  2.0742  1.3160  0.5600
 5111TIP3   OH236747   2.647   4.080   3.749  0.0672 -0.9180  0.2652
 5111TIP3    H136748   2.555   4.091   3.775  0.2847  0.4135  0.5153
 5111TIP3    H236749   2.697   4.098   3.828  0.6140  0.4077 -0.3470
 5112TIP3   OH236750   5.152   5.689   1.099  0.0249 -0.2222  0.3052
 5112TIP3    H136751   5.093   5.754   1.061  0.7258  0.2120 -0.0752
 5112TIP3    H236752   5.095   5.618   1.127 -0.8923  1.0154  1.7273
 5113TIP3   OH236753   0.905   4.142   4.993  0.3555 -0.1618 -0.3563
 5113TIP3    H136754   0.923   4.234   4.973  0.0942 -0.0345 -0.0346
 5113TIP3    H236755   0.955   4.092   4.929  0.8716  0.1987 -0.2341
 5114TIP3   OH236756   6.460   5.841   2.893 -0.4241  0.3001 -0.4406
 5114TIP3    H136757   6.544   5.824   2.934 -0.8061 -0.9260 -0.1060
 5114TIP3    H236758   6.472   5.923   2.845  0.5456  0.8499  0.6931
 5115TIP3   OH236759   6.435   0.945  11.146 -0.2134 -0.8899 -0.2704
 5115TIP3    H136760   6.462   1.011  11.083  0.7777 -1.0615 -0.0459
 5115TIP3    H236761   6.459   0.981  11.231  0.3942 -1.5532 -0.1478
 5116TIP3   OH236762   6.730   6.575  15.768  0.6511 -1.1277  0.8297
 5116TIP3    H136763   6.666   6.508  15.745  0.1445 -0.6164  0.7348
 5116TIP3    H236764   6.757   6.613  15.684  1.3232 -1.5535  0.8421
 5117TIP3   OH236765   3.969   4.986   1.652  0.0416  0.0638 -0.3288
 5117TIP3    H136766   4.051   5.035   1.656  0.5112 -0.7498  0.4760
 5117TIP3    H236767   3.908   5.046   1.610  1.1890  0.4818 -1.4784
 5118TIP3   OH236768   6.625   6.549   3.987 -0.3847 -0.0062  0.9215
 5118TIP3    H136769   6.576   6.497   4.051  1.0021 -0.7209  1.4268
 5118TIP3    H236770   6.697   6.492   3.959  0.2310  1.0590  0.2690
 5119TIP3   OH236771   0.927   1.456  16.061 -0.1093  0.5295 -0.1892
 5119TIP3    H136772   1.005   1.446  16.116  0.5243 -1.4688 -1.3519
 5119TIP3    H236773   0.945   1.532  16.006  0.9795  0.1511 -0.3628
 5120TIP3   OH236774   2.008   1.425  15.430 -0.0315  0.4313  0.0119
 5120TIP3    H136775   2.024   1.512  15.468  0.2414  0.9596 -1.2424
 5120TIP3    H236776   1.922   1.400  15.462  0.5222  0.4873  1.6093
 5121TIP3   OH236777   1.859   5.275   4.294 -0.4985 -0.1669 -0.4905
 5121TIP3    H136778   1.920   5.243   4.361 -0.0569 -0.5481 -1.0729
 5121TIP3    H236779   1.910   5.276   4.213 -0.9702  0.4976 -0.7848
 5122TIP3   OH236780   6.574   4.162   1.542 -0.0117 -0.5793  0.0525
 5122TIP3    H136781   6.669   4.167   1.528  0.3150 -0.6358  1.9669
 5122TIP3    H236782   6.558   4.225   1.612 -1.4887 -0.1779 -0.6212
 5123TIP3   OH236783   2.749   1.270  14.179  0.1356 -0.1801  0.2688
 5123TIP3    H136784   2.735   1.338  14.245 -0.1236 -0.4498  0.4910
 5123TIP3    H236785   2.834   1.291  14.141  0.1400  0.1635  0.4638
 5124TIP3   OH236786   3.157   0.971   0.158  0.4830 -0.2603 -0.2403
 5124TIP3    H136787   3.064   0.992   0.156  0.1337 -1.6196  0.5504
 5124TIP3    H236788   3.200   1.055   0.171 -0.6475  0.3490 -0.3305
 5125TIP3   OH236789   1.658   5.446   4.981  0.3131 -0.9952  0.4813
 5125TIP3    H136790   1.567   5.476   4.982  0.4600 -0.4538 -0.7583
 5125TIP3    H236791   1.657   5.367   4.927  0.5487 -1.1288  0.6659
 5126TIP3   OH236792   2.100   1.720  15.571  0.1380  0.0636  0.4585
 5126TIP3    H136793   2.096   1.765  15.487 -2.4244  0.4906  0.7300
 5126TIP3    H236794   2.101   1.791  15.636  2.4486 -0.2526  0.8510
 5127TIP3   OH236795   3.841   6.357  13.927 -0.3079 -1.0399 -0.1322
 5127TIP3    H136796   3.830   6.373  13.833 -2.3564 -0.5644  0.1485
 5127TIP3    H236797   3.804   6.435  13.969  2.9052 -0.0215  1.0999
 5128TIP3   OH236798   2.745   1.255  12.471  0.2085  0.0908 -0.0845
 5128TIP3    H136799   2.656   1.285  12.488 -1.2497 -2.2135 -2.8605
 5128TIP3    H236800   2.755   1.177  12.526  0.1246 -0.2101 -0.4916
 5129TIP3   OH236801   2.093   3.376  16.766 -0.5345 -0.3516 -0.4111
 5129TIP3    H136802   2.000   3.355  16.758 -0.1227 -2.8653  0.3941
 5129TIP3    H236803   2.100   3.423  16.848 -1.1157  0.0713 -0.5950
 5130TIP3   OH236804   5.219   0.151  16.733 -0.4281 -0.0346  0.0992
 5130TIP3    H136805   5.161   0.127  16.661 -1.0893  0.4703  0.4539
 5130TIP3    H236806   5.302   0.106  16.713 -0.6522 -0.0381 -0.8750
 5131TIP3   OH236807   3.804   4.542  12.522  0.4091 -0.3210 -0.3054
 5131TIP3    H136808   3.739   4.611  12.536 -0.3570 -0.7225 -1.7628
 5131TIP3    H236809   3.878   4.587  12.483 -0.0067 -0.2805 -1.0555
 5132TIP3   OH236810   4.841   1.555   0.607  0.1514  0.5746 -0.4407
 5132TIP3    H136811   4.915   1.504   0.641  0.4288  0.7365 -0.7906
 5132TIP3    H236812   4.766   1.496   0.611  0.6607 -0.2041 -1.7452
 5133TIP3   OH236813   4.125   1.349  15.540  0.1274 -0.1192 -0.0461
 5133TIP3    H136814   4.203   1.332  15.487 -0.6519 -2.0923 -0.6587
 5133TIP3    H236815   4.122   1.444  15.549  2.6854  0.0038  0.1661
 5134TIP3   OH236816   5.546   0.710   1.087 -0.2277 -0.0788 -0.0184
 5134TIP3    H136817   5.490   0.677   1.158 -0.8877  2.0670  0.5228
 5134TIP3    H236818   5.485   0.742   1.021  0.3964 -0.7106 -0.9285
 5135TIP3   OH236819   2.299   4.290  14.010  0.2611  0.2084 -0.3772
 5135TIP3    H136820   2.364   4.360  14.017 -0.3333  0.7016  0.2894
 5135TIP3    H236821   2.295   4.271  13.916 -0.1447  1.6203 -0.6638
 5136TIP3   OH236822   2.709   5.637  14.920  0.1733  0.3182  0.4715
 5136TIP3    H136823   2.775   5.632  14.850  0.4031 -1.9716  0.7752
 5136TIP3    H236824   2.751   5.687  14.989  0.2735  1.8520 -0.6475
 5137TIP3   OH236825   1.171   1.102   3.959 -0.3344 -0.5643 -0.1552
 5137TIP3    H136826   1.203   1.147   3.881  0.2724  0.1240  0.4667
 5137TIP3    H236827   1.122   1.169   4.006  1.6206 -0.1146  1.4070
 5138TIP3   OH236828   0.930   0.195   4.638 -0.2142  0.2015  0.4411
 5138TIP3    H136829   0.948   0.107   4.670 -1.2561 -1.5538 -3.2862
 5138TIP3    H236830   0.834   0.203   4.641 -0.1971  0.7825 -0.2011
 5139TIP3   OH236831   0.090   5.219  14.610  0.7925  0.2251  0.3320
 5139TIP3    H136832   0.054   5.263  14.687 -0.9690  0.5740 -0.6359
 5139TIP3    H236833   0.031   5.145  14.595 -0.4622  1.5801 -2.1036
 5140TIP3   OH236834   2.008   2.492   1.920 -0.0940  0.2001 -0.3931
 5140TIP3    H136835   2.022   2.397   1.913 -1.5375 -0.0666 -0.0009
 5140TIP3    H236836   1.917   2.504   1.894  0.0715  1.4919 -0.4236
 5141TIP3   OH236837   5.082   3.440  14.920 -0.3808  0.4317 -0.2626
 5141TIP3    H136838   5.092   3.356  14.965 -1.7050 -0.9549 -2.3207
 5141TIP3    H236839   5.148   3.437  14.850 -0.0329  1.3869  0.0166
 5142TIP3   OH236840   0.158   4.701  16.358  0.9351  0.0856  0.0034
 5142TIP3    H136841   0.097   4.766  16.323 -0.1956 -1.0255 -0.1900
 5142TIP3    H236842   0.146   4.705  16.453 -1.7356 -2.1333 -0.1066
 5143TIP3   OH236843   2.192   5.009   3.846  0.3349  0.2572  0.2558
 5143TIP3    H136844   2.131   5.041   3.779  0.0316 -1.1761 -0.1695
 5143TIP3    H236845   2.140   5.003   3.925 -0.2525 -1.5175 -0.2407
 5144TIP3   OH236846   5.925   3.892  12.163 -0.2575 -0.1180  0.3780
 5144TIP3    H136847   6.019   3.886  12.143 -0.2134 -0.9346  0.7588
 5144TIP3    H236848   5.886   3.928  12.084  0.0683 -2.1061 -0.7683
 5145TIP3   OH236849   6.081   1.122   5.606  0.5399  0.1012 -0.6966
 5145TIP3    H136850   6.159   1.145   5.557  1.5327 -1.8349 -0.1180
 5145TIP3    H236851   6.070   1.028   5.591  0.4632 -0.4218  2.1336
 5146TIP3   OH236852   2.048   0.944   6.509 -0.2921  0.3928 -0.0209
 5146TIP3    H136853   1.953   0.951   6.504 -0.2151  1.2985 -0.4438
 5146TIP3    H236854   2.080   1.015   6.453  0.6323  0.2654  0.3316
 5147TIP3   OH236855   5.544   0.451   5.510 -0.0511  0.2499  0.1677
 5147TIP3    H136856   5.572   0.389   5.577 -1.7479  1.3030  1.9415
 5147TIP3    H236857   5.483   0.401   5.456 -0.6024  0.0597  0.9461
 5148TIP3   OH236858   5.173   3.640   5.329  0.6425  0.5147 -0.0075
 5148TIP3    H136859   5.137   3.609   5.413 -0.3789  1.3522 -0.1176
 5148TIP3    H236860   5.105   3.696   5.293  0.9010 -0.1476 -1.6084
 5149TIP3   OH236861   5.249   1.656   0.110 -0.6045  0.2880 -0.3215
 5149TIP3    H136862   5.263   1.750   0.121 -0.4965  0.3532 -0.9523
 5149TIP3    H236863   5.315   1.615   0.165 -0.0801  0.5913 -0.7158
 5150TIP3   OH236864   4.270   0.812  14.112 -0.0441 -0.4875 -0.0087
 5150TIP3    H136865   4.310   0.748  14.053  1.2469 -0.1476  0.4563
 5150TIP3    H236866   4.333   0.884  14.114 -0.5354 -0.0686  1.0313
 5151TIP3   OH236867   2.613   2.698   1.424  0.0956 -0.0867  0.1946
 5151TIP3    H136868   2.557   2.623   1.403 -0.8666  0.8266 -0.5354
 5151TIP3    H236869   2.642   2.731   1.339  0.5117  0.3908  0.5182
 5152TIP3   OH236870   4.049   0.794  11.653  0.2527 -0.0895 -0.0317
 5152TIP3    H136871   4.123   0.768  11.707  0.1288  0.1043  0.2348
 5152TIP3    H236872   3.973   0.754  11.695  0.0328  0.8833  0.5148
 5153TIP3   OH236873   4.204   3.826  10.861  0.3582  0.0573 -0.3261
 5153TIP3    H136874   4.197   3.903  10.804  0.0512 -0.2255 -0.6785
 5153TIP3    H236875   4.248   3.761  10.806  2.0467  0.4635  0.4817
 5154TIP3   OH236876   5.265   5.591  11.426  0.4110 -0.2097  0.1492
 5154TIP3    H136877   5.236   5.501  11.418  1.6041 -0.5441 -0.7841
 5154TIP3    H236878   5.325   5.591  11.500  0.7943 -0.2999 -0.1574
 5155TIP3   OH236879   6.063   0.185   4.706  0.3857  0.2281 -0.1399
 5155TIP3    H136880   6.057   0.090   4.705  0.3271  0.2146  0.8649
 5155TIP3    H236881   5.996   0.213   4.769  1.5254  0.8382  0.8344
 5156TIP3   OH236882   0.574   1.218  13.685  0.5929 -0.0616 -0.2952
 5156TIP3    H136883   0.538   1.167  13.758  0.9310  0.8346  0.5162
 5156TIP3    H236884   0.546   1.171  13.607 -1.4972  0.0580  0.3303
 5157TIP3   OH236885   4.851   1.522   4.243 -0.5729 -0.0360 -0.3866
 5157TIP3    H136886   4.853   1.618   4.242 -1.7150 -0.0029 -1.3398
 5157TIP3    H236887   4.766   1.499   4.206 -0.4701 -1.4227  0.1725
 5158TIP3   OH236888   6.686   0.734   1.779 -0.4306  0.5094  0.3030
 5158TIP3    H136889   6.725   0.814   1.743 -0.1955  1.2021  2.0383
 5158TIP3    H236890   6.700   0.740   1.873  2.3283 -3.0523  0.3027
 5159TIP3   OH236891   0.307   0.357  10.465 -0.0016  0.2658 -0.1619
 5159TIP3    H136892   0.366   0.427  10.436  1.9996 -2.1174 -2.3696
 5159TIP3    H236893   0.222   0.381  10.428  0.1366  2.4376  0.7763
 5160TIP3   OH236894   4.046   4.468  14.525 -0.2976 -0.8488  0.0492
 5160TIP3    H136895   4.032   4.401  14.593 -1.3473 -1.0339 -0.3283
 5160TIP3    H236896   3.960   4.479  14.484 -0.3557  1.2697  0.5878
 5161TIP3   OH236897   6.327   4.187   2.545  0.1092 -0.1337 -0.0457
 5161TIP3    H136898   6.379   4.109   2.521 -0.7499 -1.1180  1.1988
 5161TIP3    H236899   6.380   4.231   2.611  0.9979  0.8463 -1.3652
 5162TIP3   OH236900   4.002   1.585   5.254 -0.1587  0.7231  0.8362
 5162TIP3    H136901   4.097   1.594   5.257 -0.1520  0.7904  0.3313
 5162TIP3    H236902   3.969   1.662   5.300  0.0224  0.7871  0.8601
 5163TIP3   OH236903   1.725   4.129  16.642  0.1374  0.4731  0.3512
 5163TIP3    H136904   1.760   4.088  16.720 -0.2820  2.0756  1.4440
 5163TIP3    H236905   1.750   4.071  16.570  2.6934  0.2134  1.3652
 5164TIP3   OH236906   2.825   3.336   0.789 -0.4334  0.3716  0.7186
 5164TIP3    H136907   2.910   3.345   0.746 -0.6920  1.0773  0.3261
 5164TIP3    H236908   2.810   3.241   0.794  1.4769  0.1060  3.0695
 5165TIP3   OH236909   0.964   3.497  11.923  0.3725 -0.3261 -0.2502
 5165TIP3    H136910   0.958   3.416  11.872  1.5621  0.6143 -2.0407
 5165TIP3    H236911   1.022   3.553  11.870 -0.3019  1.6335  0.9897
 5166TIP3   OH236912   2.241   3.072  16.790 -0.1067 -0.4735  0.2598
 5166TIP3    H136913   2.303   3.005  16.763  1.3782  1.6448 -2.0263
 5166TIP3    H236914   2.194   3.095  16.710  0.3015  1.9964  0.6462
 5167TIP3   OH236915   2.871   2.642   4.980  0.0293  0.3340 -0.1785
 5167TIP3    H136916   2.917   2.725   4.969  1.1245 -0.1474  0.5255
 5167TIP3    H236917   2.937   2.575   4.963 -0.7864 -0.4036 -0.5606
 5168TIP3   OH236918   4.818   5.384  10.561  0.3983 -0.0979 -0.1142
 5168TIP3    H136919   4.890   5.368  10.499 -1.0665  0.9232 -2.1917
 5168TIP3    H236920   4.781   5.468  10.534 -2.6048 -1.3359 -0.2163
 5169TIP3   OH236921   5.010   2.325  14.704 -0.4674  0.2128  0.1461
 5169TIP3    H136922   4.981   2.344  14.614  0.0133  1.2984  0.1959
 5169TIP3    H236923   5.036   2.233  14.702 -0.9053  0.0938 -0.7117
 5170TIP3   OH236924   0.354   2.858  12.388  0.1348  0.2952 -0.4939
 5170TIP3    H136925   0.392   2.821  12.468  0.4662 -0.1603 -0.8608
 5170TIP3    H236926   0.265   2.884  12.414  0.2975  0.3102  0.0672
 5171TIP3   OH236927   5.462   5.562  13.972 -0.5875 -0.0152  0.2931
 5171TIP3    H136928   5.422   5.598  13.893 -0.8255 -1.1540 -0.1169
 5171TIP3    H236929   5.487   5.473  13.949 -1.2678 -0.6069  1.6944
 5172TIP3   OH236930   3.549   2.968   5.025 -0.3576  1.0181 -0.6374
 5172TIP3    H136931   3.545   3.048   5.078 -1.5570  0.4626  0.1447
 5172TIP3    H236932   3.562   2.898   5.089 -2.9974  0.1989 -0.8961
 5173TIP3   OH236933   0.658   4.843   5.243  0.5441  0.1074  0.1452
 5173TIP3    H136934   0.746   4.846   5.205 -0.6003 -2.8884 -3.4894
 5173TIP3    H236935   0.651   4.755   5.280 -0.6757  0.5783  1.1004
 5174TIP3   OH236936   3.320   0.321   2.922  0.7952  0.4371  0.0365
 5174TIP3    H136937   3.297   0.400   2.971  2.1456  1.9543 -1.6430
 5174TIP3    H236938   3.412   0.305   2.945  0.8609  0.0175 -0.5037
 5175TIP3   OH236939   5.404   2.558   4.403  0.6692 -0.3200 -0.2098
 5175TIP3    H136940   5.435   2.468   4.409  0.3696 -0.3909  0.3712
 5175TIP3    H236941   5.308   2.550   4.408  0.6237  0.0044 -0.5126
 5176TIP3   OH236942   3.134   3.516   0.030 -0.5412  0.2203  0.4035
 5176TIP3    H136943   3.197   3.579   0.066  2.4237 -1.0184 -2.1529
 5176TIP3    H236944   3.090   3.564  -0.040 -0.9217  0.4367  0.7814
 5177TIP3   OH236945   2.788   5.662   4.313  0.2256  0.0923  0.1095
 5177TIP3    H136946   2.715   5.619   4.269  1.7837 -1.9537 -0.6554
 5177TIP3    H236947   2.747   5.728   4.369 -2.0761  0.0533 -1.3975
 5178TIP3   OH236948   6.774   0.420  12.708  0.3761  0.1040 -0.2255
 5178TIP3    H136949   6.788   0.373  12.626 -1.2767  0.9493 -1.0530
 5178TIP3    H236950   6.747   0.507  12.681 -0.8185  0.2122  1.2001
 5179TIP3   OH236951   0.902   3.943   4.420  0.6361  0.1047  0.2664
 5179TIP3    H136952   0.813   3.974   4.403 -0.1290 -1.3408  1.4265
 5179TIP3    H236953   0.901   3.852   4.391  1.8810  0.2006 -0.1088
 5180TIP3   OH236954   4.250   2.539   5.684 -0.1380  1.2451 -0.1114
 5180TIP3    H136955   4.313   2.489   5.736 -0.7059  2.2485  1.6529
 5180TIP3    H236956   4.186   2.474   5.654 -0.5118  0.7665  1.5920
 5181TIP3   OH236957   0.120   5.158  10.922  0.0973  0.2701 -0.1240
 5181TIP3    H136958   0.067   5.236  10.943 -0.9271 -0.5235  0.3419
 5181TIP3    H236959   0.167   5.139  11.003  0.7397  0.6939 -0.3927
 5182TIP3   OH236960   4.945   6.259  15.579  0.2164 -0.0349 -0.3859
 5182TIP3    H136961   4.959   6.354  15.583 -1.9681  0.4673 -2.6389
 5182TIP3    H236962   5.021   6.226  15.531  1.6432  0.3200  1.5032
 5183TIP3   OH236963   0.125   2.333   0.565  0.1762  0.2678  0.1760
 5183TIP3    H136964   0.053   2.339   0.502 -0.1035 -0.8482  0.3613
 5183TIP3    H236965   0.091   2.372   0.645 -0.2507 -0.2964  0.2745
 5184TIP3   OH236966   4.996   0.023   2.870  0.5379 -0.0385  0.7032
 5184TIP3    H136967   4.949  -0.011   2.794  2.2947 -1.2147  0.0520
 5184TIP3    H236968   4.969   0.114   2.877 -0.4549 -0.1966 -0.6914
 5185TIP3   OH236969   3.579   6.502   2.733  0.4996  0.0678  0.1206
 5185TIP3    H136970   3.493   6.544   2.728  0.8141  0.7019 -0.1051
 5185TIP3    H236971   3.586   6.452   2.651 -0.6616 -2.0212  1.2226
 5186TIP3   OH236972   6.111   1.812  10.607  0.1083  0.3099 -0.0268
 5186TIP3    H136973   6.177   1.818  10.538 -0.4331 -2.1885 -0.8852
 5186TIP3    H236974   6.160   1.825  10.688  1.4303 -0.2042 -0.7127
 5187TIP3   OH236975   5.232   4.572   0.430 -0.0004  0.2298 -0.1345
 5187TIP3    H136976   5.316   4.563   0.475  0.7995 -0.7014 -1.7415
 5187TIP3    H236977   5.239   4.654   0.382 -0.4521  0.6907  0.5591
 5188TIP3   OH236978   5.461   5.323   2.356  0.4399  0.1515 -0.3616
 5188TIP3    H136979   5.422   5.241   2.323  2.0551 -0.3606 -1.0831
 5188TIP3    H236980   5.507   5.296   2.436  0.0098  0.6003  0.0431
 5189TIP3   OH236981   1.377   5.954  15.230  0.3928 -0.0134  0.1198
 5189TIP3    H136982   1.310   6.022  15.225  1.0146  0.7717  1.8120
 5189TIP3    H236983   1.329   5.876  15.258 -0.3824 -0.4304 -2.1731
 5190TIP3   OH236984   3.424   0.432  13.854  0.1412  0.1798 -0.2165
 5190TIP3    H136985   3.493   0.480  13.901  0.2328  0.4408 -0.6085
 5190TIP3    H236986   3.399   0.491  13.782  0.2447 -0.3516 -0.6967
 5191TIP3   OH236987   2.475   6.700  10.955 -0.0380  0.4230  0.1675
 5191TIP3    H136988   2.494   6.723  10.864 -0.7665  0.0505 -0.0879
 5191TIP3    H236989   2.550   6.733  11.004  0.5570  0.2779 -0.6194
 5192TIP3   OH236990   2.080   1.743   1.520  0.1440 -0.0062 -0.1330
 5192TIP3    H136991   2.037   1.741   1.434  0.0008 -0.6535 -0.0476
 5192TIP3    H236992   2.171   1.718   1.501  0.0221 -0.5271 -0.0474
 5193TIP3   OH236993   5.553   1.841  15.029 -0.5534  0.2888 -0.5243
 5193TIP3    H136994   5.494   1.916  15.024 -1.8009 -0.7359 -3.8091
 5193TIP3    H236995   5.505   1.777  15.081  0.7105  1.7767  2.6967
 5194TIP3   OH236996   5.090   4.280  14.252 -0.4518 -0.1773  0.1560
 5194TIP3    H136997   5.010   4.283  14.200  0.4081  0.9109 -1.1768
 5194TIP3    H236998   5.074   4.339  14.325 -0.5179  0.8046 -0.6414
 5195TIP3   OH236999   3.401   6.653   1.785  0.0088  0.6765 -0.0517
 5195TIP3    H137000   3.366   6.648   1.696 -0.4132  1.6745  0.0475
 5195TIP3    H237001   3.438   6.566   1.801 -1.1632  0.0322 -0.6921
 5196TIP3   OH237002   2.033   4.442  13.310 -0.1328 -0.6808  0.0087
 5196TIP3    H137003   2.022   4.451  13.216 -3.2278 -3.2756 -0.0220
 5196TIP3    H237004   1.968   4.501  13.348  0.0968 -0.7495  0.5199
 5197TIP3   OH237005   1.443   6.491   2.451  0.6023 -0.0294 -0.4825
 5197TIP3    H137006   1.516   6.453   2.404  2.6927  0.7795  1.8579
 5197TIP3    H237007   1.386   6.417   2.473  1.1168 -0.7899 -1.6616
 5198TIP3   OH237008   3.817   1.816  11.744 -0.1179  0.4075 -0.2053
 5198TIP3    H137009   3.889   1.795  11.804 -0.1959 -0.8973 -0.5473
 5198TIP3    H237010   3.739   1.815  11.799  0.0790  1.5325  0.1104
 5199TIP3   OH237011   4.514   4.550  15.429  0.0212 -0.6893 -0.0894
 5199TIP3    H137012   4.591   4.544  15.485 -0.1167 -0.1713  0.1587
 5199TIP3    H237013   4.453   4.606  15.477  0.0575  0.1072 -0.9383
 5200TIP3   OH237014   1.220   3.256  13.185 -0.0541 -0.6469 -0.1690
 5200TIP3    H137015   1.267   3.177  13.213 -2.1128 -1.7761  0.2827
 5200TIP3    H237016   1.256   3.325  13.241  1.4777 -1.3275 -0.2624
 5201TIP3   OH237017   3.434   1.116  13.466 -0.0814 -0.4270  0.3375
 5201TIP3    H137018   3.426   1.155  13.378  0.9558 -0.5021  0.1909
 5201TIP3    H237019   3.356   1.145  13.512  0.4959  1.6506  0.1409
 5202TIP3   OH237020   6.814   2.677   0.421 -0.1163 -0.7368 -0.0970
 5202TIP3    H137021   6.910   2.681   0.417 -0.1673  1.1782 -0.4966
 5202TIP3    H237022   6.795   2.660   0.513  0.6052 -1.6905 -0.1116
 5203TIP3   OH237023   3.138   3.712  10.834 -0.4295 -0.4934 -0.5419
 5203TIP3    H137024   3.170   3.628  10.868 -0.1296 -0.6833 -1.2654
 5203TIP3    H237025   3.161   3.710  10.741 -0.5938  0.3145 -0.6043
 5204TIP3   OH237026   0.149   3.724  12.781 -0.8508 -0.2747  0.2965
 5204TIP3    H137027   0.177   3.653  12.838 -0.5557  0.5747  1.2481
 5204TIP3    H237028   0.107   3.681  12.707  0.7157 -1.4881  0.0729
 5205TIP3   OH237029   0.152   3.722  15.476 -0.1717  0.1251 -0.3942
 5205TIP3    H137030   0.086   3.740  15.543 -1.4060 -1.1474 -1.2050
 5205TIP3    H237031   0.122   3.771  15.399 -0.9387 -1.4874 -1.1627
 5206TIP3   OH237032   1.897   0.104   4.195 -0.2048  0.0963  0.9435
 5206TIP3    H137033   1.811   0.062   4.195 -0.3652  0.4105  2.0193
 5206TIP3    H237034   1.930   0.089   4.106 -2.2378  1.7350 -0.1891
 5207TIP3   OH237035   6.530   4.301   1.772 -0.6847  0.1278 -0.6325
 5207TIP3    H137036   6.437   4.280   1.763 -0.2712 -3.1245  1.2762
 5207TIP3    H237037   6.532   4.380   1.826 -2.2869  1.0120 -1.7785
 5208TIP3   OH237038   0.594   1.197   5.000 -0.1377  0.4319  0.4009
 5208TIP3    H137039   0.636   1.136   4.939 -0.3137  0.5206  0.1897
 5208TIP3    H237040   0.502   1.172   5.000 -0.1068  0.3094  0.7798
 5209TIP3   OH237041   2.953   2.975  10.759 -0.3359  0.4097  0.4472
 5209TIP3    H137042   2.955   2.988  10.665 -0.9211 -0.0360  0.3651
 5209TIP3    H237043   2.948   3.063  10.796  0.5644  0.6235  0.0970
 5210TIP3   OH237044   4.504   2.843  10.504 -0.1318 -0.4127  0.6155
 5210TIP3    H137045   4.526   2.930  10.536 -0.3502 -0.6584  1.4602
 5210TIP3    H237046   4.571   2.823  10.439 -1.2090  1.2006 -1.1149
 5211TIP3   OH237047   2.629   4.805   4.683  0.4005 -0.2660  0.1327
 5211TIP3    H137048   2.653   4.795   4.591 -0.8902 -1.2480 -0.1224
 5211TIP3    H237049   2.555   4.865   4.682  1.6683  1.3802  0.7524
 5212TIP3   OH237050   4.107   3.527  10.506  0.1235  0.4472  0.0688
 5212TIP3    H137051   4.118   3.445  10.554 -2.1333  0.4613  0.6956
 5212TIP3    H237052   4.083   3.591  10.573 -0.0765  1.1703 -0.6828
 5213TIP3   OH237053   3.064   3.849  11.336  0.3803  0.2465 -0.0342
 5213TIP3    H137054   3.123   3.842  11.261  1.5834  0.8064  0.8274
 5213TIP3    H237055   3.003   3.918  11.312  1.4829  1.2437 -0.0447
 5214TIP3   OH237056   5.617   2.845   1.311  0.2202 -0.1461 -0.3240
 5214TIP3    H137057   5.627   2.931   1.271  0.9163 -0.3753 -0.6639
 5214TIP3    H237058   5.556   2.798   1.254  0.0203  0.0400 -0.2638
 5215TIP3   OH237059   0.855   6.126  14.165  0.0389  0.7085 -0.0364
 5215TIP3    H137060   0.820   6.038  14.167 -0.0994  0.7683  1.4138
 5215TIP3    H237061   0.829   6.161  14.080 -1.5361  0.0137  0.1340
 5216TIP3   OH237062   6.212   6.758   4.045  0.9428  0.2695 -0.4961
 5216TIP3    H137063   6.145   6.689   4.039  1.5454 -0.5724  1.5541
 5216TIP3    H237064   6.178   6.819   4.111  2.0162 -0.0256  0.3680
 5217TIP3   OH237065   5.645   1.983   1.583 -0.0170  0.7233 -0.3396
 5217TIP3    H137066   5.727   2.011   1.542  1.4889 -1.0914  1.2196
 5217TIP3    H237067   5.625   1.899   1.543 -0.8971  0.9279 -0.3582
 5218TIP3   OH237068   5.887   5.817  13.498 -0.4896 -0.5106 -0.0229
 5218TIP3    H137069   5.937   5.820  13.416 -2.4197 -0.8760 -1.2911
 5218TIP3    H237070   5.930   5.750  13.550  0.3029 -0.8449 -1.0660
 5219TIP3   OH237071   1.872   1.029   2.358  0.1036  0.2358 -0.0230
 5219TIP3    H137072   1.942   0.980   2.315  2.2198  0.9911  2.3439
 5219TIP3    H237073   1.902   1.041   2.448 -1.8403  2.9493  0.4028
 5220TIP3   OH237074   4.597   4.788   3.800  0.2706 -0.0601 -0.0865
 5220TIP3    H137075   4.678   4.737   3.798  0.3514  0.0773 -1.0899
 5220TIP3    H237076   4.579   4.801   3.893  1.4990  0.0657  0.1554
 5221TIP3   OH237077   1.893   0.784  11.139  0.7244 -0.3511 -0.3370
 5221TIP3    H137078   1.966   0.844  11.130 -0.1385  1.0397  1.3728
 5221TIP3    H237079   1.842   0.796  11.058  0.3845  1.5048  0.1160
 5222TIP3   OH237080   4.042   1.705  11.888 -0.0921  0.3303  0.3579
 5222TIP3    H137081   4.098   1.636  11.853 -0.1402  0.5831 -0.2222
 5222TIP3    H237082   4.076   1.720  11.977  2.2764  2.0455 -0.7156
 5223TIP3   OH237083   3.565   1.141  14.953  0.3758 -0.3278 -0.1229
 5223TIP3    H137084   3.521   1.107  14.875  0.9348 -1.2389 -0.0424
 5223TIP3    H237085   3.599   1.064  14.998  2.2306  0.3627 -0.2741
 5224TIP3   OH237086   3.553   0.444  12.163 -0.1523 -0.1836 -0.5515
 5224TIP3    H137087   3.530   0.458  12.071 -0.4282 -0.8101 -0.5845
 5224TIP3    H237088   3.612   0.369  12.162  1.3849  0.9646 -0.3953
 5225TIP3   OH237089   1.833   3.322  11.025  0.3195 -0.0525  0.4179
 5225TIP3    H137090   1.789   3.247  11.064  1.0283 -1.2487 -0.9746
 5225TIP3    H237091   1.791   3.332  10.939  1.8672 -0.4565 -0.4294
 5226TIP3   OH237092   2.859   2.096  16.506  0.0723 -0.0014  0.6147
 5226TIP3    H137093   2.875   2.011  16.547 -1.9503 -0.4660  0.5354
 5226TIP3    H237094   2.889   2.160  16.570  0.1007 -0.7563  1.3695
 5227TIP3   OH237095   0.852   2.242   0.638 -0.4389  0.0714  0.5541
 5227TIP3    H137096   0.888   2.324   0.605 -2.6949  0.3955 -1.3732
 5227TIP3    H237097   0.781   2.268   0.697  0.6376 -0.5292  2.1585
 5228TIP3   OH237098   3.394   2.462   0.124 -0.0449  0.4709  0.2675
 5228TIP3    H137099   3.476   2.460   0.075 -0.7155  0.2055 -0.8718
 5228TIP3    H237100   3.421   2.460   0.216  1.2083 -0.9050 -0.0904
 5229TIP3   OH237101   5.450   3.165   4.766 -0.6295  0.6866 -0.5451
 5229TIP3    H137102   5.495   3.176   4.683 -1.4859 -0.4145 -1.1717
 5229TIP3    H237103   5.501   3.218   4.828  1.2306 -0.1189 -1.3090
 5230TIP3   OH237104   3.738   5.709   0.755 -0.3397 -0.1851  0.5358
 5230TIP3    H137105   3.683   5.708   0.834 -1.8412 -0.9719 -0.4799
 5230TIP3    H237106   3.722   5.795   0.716 -0.9491 -0.4556  0.1833
 5231TIP3   OH237107   0.754   0.362  15.528 -0.0999 -1.1728 -0.6783
 5231TIP3    H137108   0.678   0.403  15.487  0.6872 -1.4279 -2.4976
 5231TIP3    H237109   0.734   0.268  15.528 -0.1727 -1.1580 -0.3043
 5232TIP3   OH237110   4.721   6.339  14.105 -0.1044  0.1444  0.2515
 5232TIP3    H137111   4.690   6.285  14.178  0.0367 -0.4847 -0.1475
 5232TIP3    H237112   4.799   6.293  14.073  0.9484  1.4198  0.9045
 5233TIP3   OH237113   0.899   5.093  14.896  1.0986  0.0615 -0.0114
 5233TIP3    H137114   0.970   5.136  14.847  0.2148  1.7272  0.0912
 5233TIP3    H237115   0.896   5.140  14.979  0.6403 -0.7932  0.4682
 5234TIP3   OH237116   6.000   3.801  16.305  0.0579  0.7832 -0.0809
 5234TIP3    H137117   5.925   3.774  16.252  0.1750  1.6635 -0.7362
 5234TIP3    H237118   5.968   3.877  16.355  0.2838  0.6734  0.2333
 5235TIP3   OH237119   3.438   5.533  13.971 -0.0098 -0.3665  0.6382
 5235TIP3    H137120   3.387   5.517  13.892  0.0570  1.4892  0.1657
 5235TIP3    H237121   3.528   5.512  13.946 -0.1439 -0.8563  0.5661
 5236TIP3   OH237122   4.975   3.563  17.024  0.2313 -0.0620 -0.1236
 5236TIP3    H137123   4.996   3.470  17.027  0.2585 -0.0475  0.2240
 5236TIP3    H237124   5.022   3.597  16.948 -0.0699 -0.4036 -0.4630
 5237TIP3   OH237125   2.738   0.624   2.594  0.5061  0.3679  0.4909
 5237TIP3    H137126   2.717   0.533   2.617  0.4517  0.2701  0.0715
 5237TIP3    H237127   2.654   0.665   2.579  0.5479  0.3808  0.2895
 5238TIP3   OH237128   1.893   5.928  16.182 -0.2982  0.1989  0.3936
 5238TIP3    H137129   1.952   5.866  16.140  1.1109  1.3661  0.5824
 5238TIP3    H237130   1.836   5.874  16.237  2.5605 -0.8165  2.6232
 5239TIP3   OH237131   0.191   6.710  13.638 -0.0099 -0.1020  0.4724
 5239TIP3    H137132   0.122   6.761  13.595  0.7028  0.6329  0.1802
 5239TIP3    H237133   0.144   6.644  13.688 -0.9682  0.9075  0.9391
 5240TIP3   OH237134   2.517   2.064  12.065  0.2223  0.4599 -0.1271
 5240TIP3    H137135   2.531   1.969  12.055 -0.7966  0.1706  0.9901
 5240TIP3    H237136   2.422   2.074  12.063  0.2511  1.2447  1.5224
 5241TIP3   OH237137   0.184   4.361   3.831  0.5325  0.0231  0.4037
 5241TIP3    H137138   0.246   4.342   3.901  1.2312  0.0900 -0.1883
 5241TIP3    H237139   0.169   4.455   3.837  1.4909  0.2292 -0.2560
 5242TIP3   OH237140   0.026   4.385   1.267  0.3108  0.3547  0.3952
 5242TIP3    H137141  -0.020   4.390   1.183  1.4066 -0.6798 -0.3055
 5242TIP3    H237142   0.035   4.476   1.295  0.9243  0.8165 -1.1931
 5243TIP3   OH237143   6.473   5.855  13.644  0.1307  0.4624 -0.1423
 5243TIP3    H137144   6.429   5.878  13.726 -0.4984  0.2376 -0.4108
 5243TIP3    H237145   6.516   5.936  13.616  0.8558  0.3982  0.7073
 5244TIP3   OH237146   0.080   3.607  12.094  0.0813  0.1164 -0.2886
 5244TIP3    H137147   0.080   3.519  12.132  1.3776  0.8688  1.6388
 5244TIP3    H237148   0.120   3.596  12.008  2.3967 -0.9206  0.8181
 5245TIP3   OH237149   2.941   2.573  15.906 -0.6560 -0.2853 -0.4868
 5245TIP3    H137150   3.016   2.576  15.966 -0.4362 -0.3679 -0.7548
 5245TIP3    H237151   2.955   2.493  15.855 -1.3359 -0.7099 -0.0058
 5246TIP3   OH237152   4.778   5.495  11.352 -0.6131  0.3756  0.0666
 5246TIP3    H137153   4.707   5.509  11.415  0.8198  0.2068  1.7782
 5246TIP3    H237154   4.751   5.545  11.275 -2.6254  0.2378  0.6195
 5247TIP3   OH237155   5.889   1.280   5.168 -0.1071 -0.3403  0.1692
 5247TIP3    H137156   5.809   1.318   5.132  0.5830  0.5178 -0.5340
 5247TIP3    H237157   5.864   1.247   5.254 -1.2665 -0.3225 -0.1487
 5248TIP3   OH237158   4.559   4.173   1.731 -0.2246  0.3423 -0.2818
 5248TIP3    H137159   4.653   4.164   1.712 -0.2954  0.0514 -0.4876
 5248TIP3    H237160   4.516   4.128   1.659 -0.5380  1.0102 -0.5188
 5249TIP3   OH237161   5.623   4.108  14.732  0.0440 -0.1996  0.4721
 5249TIP3    H137162   5.539   4.064  14.744 -0.3529  0.3071 -0.3398
 5249TIP3    H237163   5.624   4.132  14.639 -0.2333  2.4191  1.0575
 5250TIP3   OH237164   2.687   0.542   3.419 -0.1159  0.1948  0.1338
 5250TIP3    H137165   2.642   0.605   3.363  0.5730 -0.1250 -0.8160
 5250TIP3    H237166   2.706   0.468   3.362  1.8005  0.4143  0.4122
 5251TIP3   OH237167   5.975   2.119   0.919  0.4628  0.0977  0.0250
 5251TIP3    H137168   5.967   2.210   0.947 -1.3315  0.1195 -0.4192
 5251TIP3    H237169   6.069   2.104   0.913  0.8053  1.7280  0.7081
 5252TIP3   OH237170   4.915   4.494   0.289 -0.7711 -0.5629 -0.1102
 5252TIP3    H137171   4.842   4.490   0.350  0.1771 -2.5321  0.9899
 5252TIP3    H237172   4.968   4.418   0.310 -0.0971 -1.0306 -3.0665
 5253TIP3   OH237173   5.527   4.432  13.724 -0.2286 -0.3657 -0.1597
 5253TIP3    H137174   5.513   4.442  13.630 -0.0665 -0.3930 -0.1865
 5253TIP3    H237175   5.622   4.422  13.734 -0.2124 -0.0085  0.0418
 5254TIP3   OH237176   5.580   4.847   5.235  0.5411 -0.1977 -0.2501
 5254TIP3    H137177   5.653   4.900   5.204  1.4791 -1.7936 -0.8323
 5254TIP3    H237178   5.519   4.911   5.273  1.1944  1.3816 -1.7530
 5255TIP3   OH237179   5.847   4.884   2.424  0.5405  0.5588  0.4369
 5255TIP3    H137180   5.766   4.900   2.474 -0.1171  0.9655 -0.7072
 5255TIP3    H237181   5.833   4.799   2.383  0.0517  1.2392 -0.8904
 5256TIP3   OH237182   5.789   4.600   2.973  0.5325  0.7671  0.0418
 5256TIP3    H137183   5.837   4.617   2.891 -0.1989  0.5536 -0.4410
 5256TIP3    H237184   5.779   4.687   3.013  0.3249  0.9593 -0.4207
 5257TIP3   OH237185   5.761   3.232  16.645 -0.3316 -0.5173  0.3470
 5257TIP3    H137186   5.773   3.217  16.739  0.2327  0.8127  0.4978
 5257TIP3    H237187   5.719   3.317  16.639 -0.9629 -0.8817 -0.5971
 5258TIP3   OH237188   5.008   6.587   3.815  0.0339 -0.1028 -0.2024
 5258TIP3    H137189   5.032   6.639   3.892 -0.9254 -0.0358  0.0653
 5258TIP3    H237190   5.010   6.496   3.845  2.5525 -0.3447 -0.8922
 5259TIP3   OH237191   0.592   2.888  14.877  0.2550  0.4794  0.1227
 5259TIP3    H137192   0.586   2.847  14.790  1.4871  1.2377 -0.3573
 5259TIP3    H237193   0.583   2.815  14.938 -0.0579 -0.1565 -0.6551
 5260TIP3   OH237194   2.604   1.066  14.315  0.1763 -0.4148  0.2868
 5260TIP3    H137195   2.589   1.111  14.398 -0.4359 -0.5422  0.2500
 5260TIP3    H237196   2.635   1.135  14.256 -0.2624 -0.1326  0.3750
 5261TIP3   OH237197   0.707   5.185  11.504  0.0475  0.1764 -0.4777
 5261TIP3    H137198   0.674   5.141  11.426  2.2253 -0.5832 -1.0387
 5261TIP3    H237199   0.693   5.121  11.575 -3.8381  1.6346  0.3127
 5262TIP3   OH237200   1.079   3.173   2.885 -0.0301  0.6684  0.2163
 5262TIP3    H137201   1.021   3.105   2.918  1.5769  0.2619  2.4429
 5262TIP3    H237202   1.022   3.248   2.868 -1.3704 -0.1234  1.0262
 5263TIP3   OH237203   0.282   0.155  15.382  0.0635  0.4656 -0.6410
 5263TIP3    H137204   0.188   0.170  15.374  0.0913  0.7166 -0.4794
 5263TIP3    H237205   0.290   0.086  15.448  0.0354  1.0144 -0.0619
 5264TIP3   OH237206   4.218   4.083   1.129  0.4198 -0.1603 -0.4231
 5264TIP3    H137207   4.166   4.053   1.054  0.3141  0.7180 -0.7168
 5264TIP3    H237208   4.292   4.023   1.133 -1.0240 -1.9810  0.5271
 5265TIP3   OH237209   2.364   1.940  16.159  0.0346  0.2269 -0.6357
 5265TIP3    H137210   2.319   1.989  16.091 -0.7203  1.2473  0.5567
 5265TIP3    H237211   2.298   1.924  16.226  0.3195 -2.2438 -0.8481
 5266TIP3   OH237212   2.068   5.709   6.117 -0.3180  0.7767 -0.9964
 5266TIP3    H137213   2.022   5.724   6.035  0.5436  0.9426 -1.4611
 5266TIP3    H237214   2.007   5.656   6.170 -1.0776  1.0941 -1.5366
 5267TIP3   OH237215   0.425   6.086  15.829  0.5075 -0.1311 -0.2688
 5267TIP3    H137216   0.407   6.054  15.917  0.3223 -0.9962 -0.6089
 5267TIP3    H237217   0.370   6.164  15.820  1.6714  0.8655  0.9128
 5268TIP3   OH237218   3.301   3.657  11.927  0.0028 -0.5507 -0.6870
 5268TIP3    H137219   3.279   3.569  11.957 -0.4083  0.4036  2.1331
 5268TIP3    H237220   3.216   3.700  11.915  0.2065  0.2165  0.5239
 5269TIP3   OH237221   5.995   1.653  13.174  0.1827 -0.1082 -0.6994
 5269TIP3    H137222   5.904   1.640  13.146 -0.6217  1.5098  0.8862
 5269TIP3    H237223   6.039   1.689  13.097 -0.1400 -2.0910 -1.8805
 5270TIP3   OH237224   4.311   0.005   1.183 -0.3383 -0.2983 -0.4882
 5270TIP3    H137225   4.222  -0.002   1.217  0.3796  0.6688  1.7858
 5270TIP3    H237226   4.333   0.097   1.192  1.0041 -0.5828 -0.6805
 5271TIP3   OH237227   0.595   2.674  14.685 -0.2770 -0.0373  0.3277
 5271TIP3    H137228   0.558   2.633  14.607  0.1871  0.9378 -0.4290
 5271TIP3    H237229   0.535   2.650  14.756 -2.0472  1.0086 -0.7518
 5272TIP3   OH237230   1.139   0.087   0.613  0.0351 -0.0531 -0.1582
 5272TIP3    H137231   1.120   0.105   0.521 -0.3681  0.6062  0.0412
 5272TIP3    H237232   1.057   0.052   0.648 -0.0832  0.5063  0.1426
 5273TIP3   OH237233   3.677   3.147  14.268 -0.3079  0.6029 -0.4893
 5273TIP3    H137234   3.659   3.063  14.310 -0.2854  0.5815 -0.5221
 5273TIP3    H237235   3.746   3.187  14.321 -0.9680  1.0169  0.0708
 5274TIP3   OH237236   0.879   0.122  12.098  0.3823 -0.1443 -0.6911
 5274TIP3    H137237   0.920   0.176  12.030  1.0458  0.2378  0.0011
 5274TIP3    H237238   0.922   0.149  12.179 -0.2067 -0.7929 -0.1544
 5275TIP3   OH237239   3.871   0.260  11.860 -0.0966  0.3550 -0.1613
 5275TIP3    H137240   3.865   0.303  11.775  3.2342  0.2898 -0.5606
 5275TIP3    H237241   3.862   0.167  11.840 -0.3814  0.4072 -0.2835
 5276TIP3   OH237242   6.381   1.305   2.570 -0.0879  0.0351 -0.7416
 5276TIP3    H137243   6.366   1.318   2.664  0.5863  0.3713 -0.6774
 5276TIP3    H237244   6.402   1.392   2.536 -2.3056  0.3152 -1.6099
 5277TIP3   OH237245   0.754   1.209   2.383 -0.1100 -0.2339 -0.2521
 5277TIP3    H137246   0.758   1.304   2.395 -2.0483  0.0626 -1.5424
 5277TIP3    H237247   0.728   1.197   2.292 -1.0638 -1.9864  0.2074
 5278TIP3   OH237248   5.604   6.611   1.144 -0.1675  0.4239 -0.2402
 5278TIP3    H137249   5.637   6.700   1.150 -1.1945  0.7935  0.0496
 5278TIP3    H237250   5.623   6.572   1.229 -1.0455  0.8425  0.1562
 5279TIP3   OH237251   2.517   0.163  13.297  0.4348  0.1799 -0.1189
 5279TIP3    H137252   2.580   0.232  13.275 -0.0860  0.6901 -0.0690
 5279TIP3    H237253   2.513   0.164  13.392  1.2868 -0.7255 -0.0693
 5280TIP3   OH237254   3.859   5.879   5.637  0.0607  0.3139 -0.1634
 5280TIP3    H137255   3.896   5.853   5.553  1.8559  1.6348  0.1569
 5280TIP3    H237256   3.836   5.797   5.680 -0.3211 -0.3995 -1.6757
 5281TIP3   OH237257   3.841   5.215  16.459  0.1997  0.3134  0.1340
 5281TIP3    H137258   3.771   5.162  16.499 -0.8727 -0.1208 -2.1381
 5281TIP3    H237259   3.921   5.187  16.503 -0.7953 -0.6844  1.3881
 5282TIP3   OH237260   3.138   0.154   3.957  0.4075 -0.6082 -0.8197
 5282TIP3    H137261   3.197   0.143   4.031 -1.1920  0.6302  0.7347
 5282TIP3    H237262   3.097   0.069   3.946  0.1764 -0.6433  0.1961
 5283TIP3   OH237263   3.433   0.938  13.077 -0.2699  0.1278 -0.0944
 5283TIP3    H137264   3.348   0.940  13.120  0.1800  0.9284  0.7983
 5283TIP3    H237265   3.428   1.005  13.009  0.0036  0.9492  0.6828
 5284TIP3   OH237266   0.939   6.387  12.132 -0.3423 -0.0704  0.0007
 5284TIP3    H137267   1.033   6.404  12.131 -0.4764  0.8245  0.7785
 5284TIP3    H237268   0.902   6.452  12.072 -0.3800 -1.1395 -1.1720
 5285TIP3   OH237269   1.091   4.427   2.081 -0.2124 -0.0243  0.3497
 5285TIP3    H137270   1.071   4.486   2.008 -1.0800 -1.7522 -0.8802
 5285TIP3    H237271   1.156   4.367   2.044 -0.6816 -0.9366  0.9977
 5286TIP3   OH237272   6.291   3.226  14.547  0.5316  0.5415  0.6782
 5286TIP3    H137273   6.339   3.160  14.596 -1.3871 -1.1934  0.3655
 5286TIP3    H237274   6.212   3.243  14.599 -2.1304 -2.1752 -2.0401
 5287TIP3   OH237275   0.662   0.194  13.644 -0.2145 -0.4863  0.1916
 5287TIP3    H137276   0.646   0.193  13.738  0.9806 -0.8023  0.4047
 5287TIP3    H237277   0.757   0.189  13.636 -0.3169 -0.7053 -1.0383
 5288TIP3   OH237278   1.142   3.896  12.104 -0.6140  0.4074  0.0705
 5288TIP3    H137279   1.101   3.925  12.023  2.9382  1.4711 -1.5360
 5288TIP3    H237280   1.183   3.812  12.081  2.1652  1.6726 -0.0098
 5289TIP3   OH237281   5.493   6.806  14.906  0.1072  0.1592 -0.2592
 5289TIP3    H137282   5.455   6.886  14.943  0.2153  0.2494 -0.3433
 5289TIP3    H237283   5.510   6.751  14.983 -1.1617 -0.3128 -0.2915
 5290TIP3   OH237284   0.862   5.308   3.856 -0.0644  0.4144 -0.0031
 5290TIP3    H137285   0.793   5.242   3.859  0.0359  0.3424  2.1113
 5290TIP3    H237286   0.815   5.391   3.860 -0.1696  0.5453 -2.3173
 5291TIP3   OH237287   4.323   5.207   0.891 -0.2531  0.6467 -0.4779
 5291TIP3    H137288   4.384   5.141   0.858 -2.0282 -0.9291 -0.7443
 5291TIP3    H237289   4.248   5.158   0.923 -1.7250  2.5268 -0.8221
 5292TIP3   OH237290   2.687   0.054  15.626  0.2806 -0.1736  0.4886
 5292TIP3    H137291   2.746  -0.005  15.579 -0.2251 -0.6296  0.4141
 5292TIP3    H237292   2.660   0.119  15.560  0.4737 -0.1330  0.4491
 5293TIP3   OH237293   6.246   1.257   0.229  0.2596  0.0474  0.4258
 5293TIP3    H137294   6.197   1.240   0.148  0.4774 -0.1622  0.3380
 5293TIP3    H237295   6.219   1.345   0.255 -2.0225 -0.9216  1.6777
 5294TIP3   OH237296   3.682   1.624  16.018 -0.0617 -0.1378 -0.3527
 5294TIP3    H137297   3.602   1.607  16.068  1.1795  1.2673  2.2743
 5294TIP3    H237298   3.650   1.646  15.930 -2.3947 -1.8843 -0.0585
 5295TIP3   OH237299   4.956   1.149  16.975  0.1333 -0.5156 -0.7525
 5295TIP3    H137300   4.993   1.192  17.052  1.5708 -0.8171 -1.2599
 5295TIP3    H237301   5.026   1.149  16.910 -0.7253 -1.1756 -1.7292
 5296TIP3   OH237302   1.314   6.546  15.425  0.0801  0.4532  0.2306
 5296TIP3    H137303   1.293   6.537  15.518 -1.6654 -1.5322 -0.2684
 5296TIP3    H237304   1.313   6.456  15.392 -0.1854  1.1843 -1.8916
 5297TIP3   OH237305   5.517   1.467   1.471  0.1811  0.0979 -0.9495
 5297TIP3    H137306   5.426   1.438   1.465  0.2283 -0.2361 -0.1753
 5297TIP3    H237307   5.558   1.434   1.391  0.3508 -2.5192  0.1160
 5298TIP3   OH237308   6.302   4.227  10.453  0.4789 -0.3711 -0.8250
 5298TIP3    H137309   6.371   4.291  10.473 -0.8956  0.9732 -0.1763
 5298TIP3    H237310   6.239   4.276  10.400 -2.0945 -0.1771  2.0973
 5299TIP3   OH237311   4.966   4.981  15.784  0.3648  0.3994  0.2603
 5299TIP3    H137312   4.919   5.055  15.822  0.9231  1.0392 -0.2770
 5299TIP3    H237313   4.900   4.911  15.779 -0.5052  1.2237 -0.3163
 5300TIP3   OH237314   2.505   3.787   4.720 -0.4175 -0.2391 -0.4376
 5300TIP3    H137315   2.583   3.793   4.774 -1.4706 -3.5338  1.7637
 5300TIP3    H237316   2.524   3.842   4.644  4.7284 -2.0576 -0.8709
 5301TIP3   OH237317   5.798   0.970  11.129 -0.8277  0.2036  0.1167
 5301TIP3    H137318   5.826   0.951  11.219  2.3635 -1.3864 -1.0432
 5301TIP3    H237319   5.734   0.901  11.108  1.9800 -2.5213 -0.2331
 5302TIP3   OH237320   3.206   4.638   5.250  0.1351  0.1788  0.4226
 5302TIP3    H137321   3.273   4.706   5.258  1.4166 -1.0097  0.1413
 5302TIP3    H237322   3.176   4.625   5.340  0.2227  0.7675  0.5464
 5303TIP3   OH237323   2.772   0.410   0.084 -0.7792 -0.6847  0.0138
 5303TIP3    H137324   2.799   0.347   0.151 -2.0641 -1.5943 -0.2795
 5303TIP3    H237325   2.684   0.380   0.058 -0.1286 -0.6430 -2.3976
 5304TIP3   OH237326   2.709   2.064  16.927  0.6233  0.3293 -0.0056
 5304TIP3    H137327   2.629   2.017  16.953  1.3589 -0.3491  1.1354
 5304TIP3    H237328   2.727   2.123  17.000  1.3776  0.1877 -0.0640
 5305TIP3   OH237329   3.393   1.363   4.337  0.2329  0.2049 -0.3449
 5305TIP3    H137330   3.366   1.446   4.297 -3.1342 -0.9138 -0.6383
 5305TIP3    H237331   3.384   1.378   4.431  0.5762  0.4326 -0.3441
 5306TIP3   OH237332   3.098   3.721  14.839  0.3652  0.2094 -0.1985
 5306TIP3    H137333   3.140   3.776  14.772 -1.4119 -0.6315 -2.1154
 5306TIP3    H237334   3.165   3.657  14.862  1.1226  0.6919 -0.9819
 5307TIP3   OH237335   4.646   2.714  17.028  0.2653  0.2086  0.4778
 5307TIP3    H137336   4.697   2.784  17.068 -0.3505  1.5812 -1.0035
 5307TIP3    H237337   4.670   2.718  16.935 -0.3446 -1.0670  0.2462
 5308TIP3   OH237338   4.616   3.607  13.326  0.3949  0.1908 -0.2564
 5308TIP3    H137339   4.705   3.639  13.315  0.0942  1.1542  0.0327
 5308TIP3    H237340   4.586   3.647  13.408  0.5614 -2.1285  1.0463
 5309TIP3   OH237341   5.973   0.581  12.664 -0.3440  0.8152 -0.1726
 5309TIP3    H137342   6.039   0.594  12.733 -0.8801 -0.4364  0.6126
 5309TIP3    H237343   5.889   0.593  12.709 -0.7261 -0.7025 -0.4147
 5310TIP3   OH237344   2.249   2.502  11.045 -0.3602  0.9537 -0.6283
 5310TIP3    H137345   2.185   2.464  10.985 -1.3234  0.0493  0.9088
 5310TIP3    H237346   2.283   2.578  10.998 -2.5405  1.4607 -1.5306
 5311TIP3   OH237347   4.826   6.747  15.246  0.3310 -0.4580 -0.5361
 5311TIP3    H137348   4.755   6.712  15.299  0.9940 -1.6093 -0.3561
 5311TIP3    H237349   4.843   6.834  15.281 -1.5892  0.2345 -1.1909
 5312TIP3   OH237350   0.655   4.744  12.244 -0.2007  0.4773 -0.1688
 5312TIP3    H137351   0.561   4.755  12.232 -0.8580 -1.5018  2.3002
 5312TIP3    H237352   0.666   4.650  12.261  1.6619  1.1761  3.2403
 5313TIP3   OH237353   3.903   5.035   4.852  0.3953  0.0962  0.3430
 5313TIP3    H137354   3.826   4.981   4.869  0.7691 -0.7209 -0.4888
 5313TIP3    H237355   3.869   5.124   4.847 -0.1061  0.0966  2.6847
 5314TIP3   OH237356   5.737   6.694   2.782  0.3678  0.4185 -1.0149
 5314TIP3    H137357   5.664   6.674   2.840  0.8392  0.8203 -0.2773
 5314TIP3    H237358   5.728   6.787   2.762  0.6400  0.4558 -0.9685
 5315TIP3   OH237359   6.609   2.984  15.767 -0.3499 -0.3718 -0.3549
 5315TIP3    H137360   6.660   3.064  15.771  0.1397 -0.7006  0.1893
 5315TIP3    H237361   6.604   2.954  15.858 -1.0501 -0.6347 -0.4713
 5316TIP3   OH237362   1.749   1.395   0.762  0.2976 -0.0806  0.5451
 5316TIP3    H137363   1.742   1.303   0.787 -1.0956 -0.4688 -1.0803
 5316TIP3    H237364   1.778   1.393   0.670  1.6011  1.1716  0.8765
 5317TIP3   OH237365   3.047   0.462   1.406  0.4912 -0.0010  0.2102
 5317TIP3    H137366   3.131   0.422   1.431  0.2939  0.4806  1.7572
 5317TIP3    H237367   3.065   0.556   1.404  0.5925 -0.0173 -1.9980
 5318TIP3   OH237368   2.956   0.251  10.937  0.3209 -0.3528  0.1094
 5318TIP3    H137369   2.869   0.292  10.944  0.1177 -1.0768  2.7796
 5318TIP3    H237370   2.954   0.208  10.852 -1.5477  0.4945 -0.3505
 5319TIP3   OH237371   0.675   3.494  11.825  0.7670 -0.6707 -0.4057
 5319TIP3    H137372   0.647   3.583  11.845  0.6836 -0.4787 -1.3469
 5319TIP3    H237373   0.744   3.475  11.889 -0.4729 -0.6094  0.9846
 5320TIP3   OH237374   6.517   0.242  13.806 -0.3119  0.2808 -0.0022
 5320TIP3    H137375   6.490   0.297  13.879 -2.0792 -0.7544  0.1622
 5320TIP3    H237376   6.446   0.249  13.742 -0.5046 -1.6464 -0.0566
 5321TIP3   OH237377   4.079   1.480  16.478 -0.0360 -0.1335 -0.3715
 5321TIP3    H137378   4.085   1.457  16.385  0.2398 -0.7034 -0.2169
 5321TIP3    H237379   4.167   1.507  16.502  0.2545 -1.4089  0.0805
 5322TIP3   OH237380   1.741   5.122  13.615  0.3357 -0.2938  0.3538
 5322TIP3    H137381   1.704   5.176  13.685  1.1495 -0.6683  1.0977
 5322TIP3    H237382   1.834   5.115  13.637  0.2850 -1.8342  0.1880
 5323TIP3   OH237383   4.072   5.715  11.652 -1.0484 -0.1722 -0.0920
 5323TIP3    H137384   4.063   5.633  11.603 -4.1158 -1.6813  2.6547
 5323TIP3    H237385   4.133   5.694  11.722 -2.2152 -0.2961  0.9070
 5324TIP3   OH237386   1.023   6.112   3.095 -0.6290 -0.3006 -0.4639
 5324TIP3    H137387   0.971   6.136   3.019 -0.3724  1.0326 -0.2283
 5324TIP3    H237388   0.992   6.169   3.165  2.1071  1.6219 -0.6601
 5325TIP3   OH237389   3.363   2.835   4.089 -0.2895 -0.0003 -0.2414
 5325TIP3    H137390   3.404   2.922   4.096 -0.8950  0.2415  0.3390
 5325TIP3    H237391   3.280   2.843   4.135 -0.6955 -0.6867 -0.8211
 5326TIP3   OH237392   1.601   5.760  11.051  0.6854  0.1700  0.1891
 5326TIP3    H137393   1.692   5.789  11.039  0.1915  1.0114 -2.1301
 5326TIP3    H237394   1.588   5.696  10.981 -0.5620  0.1977  0.3788
 5327TIP3   OH237395   6.192   0.676   1.741  0.9158  0.0646 -0.3589
 5327TIP3    H137396   6.240   0.632   1.671  0.4857 -0.2392 -0.4655
 5327TIP3    H237397   6.101   0.648   1.730  0.7190  0.5801 -0.1168
 5328TIP3   OH237398   6.567   5.167  12.755  0.1663  0.2923 -0.1980
 5328TIP3    H137399   6.628   5.235  12.728  0.8274  0.5688  1.8856
 5328TIP3    H237400   6.618   5.109  12.812 -1.1342 -0.3181  0.3935
 5329TIP3   OH237401   1.621   6.359  10.719  0.4575  0.5873  0.2811
 5329TIP3    H137402   1.681   6.421  10.677  1.3292  0.0780  0.7520
 5329TIP3    H237403   1.553   6.344  10.653  0.5231  1.6223 -0.0429
 5330TIP3   OH237404   5.038   0.531  13.654  0.5961 -0.4562  0.6633
 5330TIP3    H137405   4.957   0.507  13.610  0.6312 -1.3653  1.0751
 5330TIP3    H237406   5.106   0.524  13.586  0.3836  0.0051  0.3976
 5331TIP3   OH237407   6.775   4.726  11.350  0.0789 -0.1509 -0.2934
 5331TIP3    H137408   6.722   4.740  11.428  0.8567  0.1555  0.1983
 5331TIP3    H237409   6.779   4.812  11.308  3.0002  0.7825  1.5326
 5332TIP3   OH237410   4.131   0.335   0.253 -0.1724  0.2435  0.1429
 5332TIP3    H137411   4.189   0.306   0.323  0.7441  0.4919 -0.4924
 5332TIP3    H237412   4.087   0.256   0.223  1.2454 -0.3002 -0.6143
 5333TIP3   OH237413   4.710   5.310   1.528 -0.3263 -0.2506 -0.0229
 5333TIP3    H137414   4.679   5.358   1.452 -1.5403 -0.9964 -0.0154
 5333TIP3    H237415   4.640   5.248   1.549  0.0160 -0.1358  1.6375
 5334TIP3   OH237416   4.021   0.439  13.786 -0.3446 -0.0691 -0.5665
 5334TIP3    H137417   3.952   0.473  13.843  1.0698  1.0330  0.5859
 5334TIP3    H237418   3.990   0.455  13.697 -2.6920 -1.9875 -0.1891
 5335TIP3   OH237419   1.867   0.355  12.287  0.1108 -0.8666  0.0805
 5335TIP3    H137420   1.771   0.356  12.280  0.0219 -0.2799  1.1385
 5335TIP3    H237421   1.893   0.271  12.251 -0.8424 -1.2196  0.1853
 5336TIP3   OH237422   2.781   2.938  13.532  0.6080 -0.6794 -0.2614
 5336TIP3    H137423   2.863   2.982  13.509 -0.9512  0.7621 -3.9305
 5336TIP3    H237424   2.787   2.853  13.488 -0.6054  0.3103 -2.5274
 5337TIP3   OH237425   5.993   3.538  15.185  0.3230 -0.0403  0.2791
 5337TIP3    H137426   5.956   3.611  15.235 -0.0580 -0.6060  0.8471
 5337TIP3    H237427   5.919   3.481  15.167  0.6029 -0.2453 -0.2346
 5338TIP3   OH237428   4.232   4.125  11.667  0.2235 -0.0369 -0.1826
 5338TIP3    H137429   4.177   4.047  11.680  0.5576 -0.2744 -0.1812
 5338TIP3    H237430   4.282   4.133  11.748 -1.7339  1.7458  0.9315
 5339TIP3   OH237431   2.426   5.157  13.936  0.3816 -0.4321 -0.0908
 5339TIP3    H137432   2.415   5.107  13.855 -0.3043  0.9626 -0.8750
 5339TIP3    H237433   2.406   5.094  14.005 -0.0724 -1.3540 -1.0297
 5340TIP3   OH237434   5.747   2.128  12.085 -0.6364 -0.3871 -0.1841
 5340TIP3    H137435   5.778   2.075  12.011  0.1364 -0.4967  0.1975
 5340TIP3    H237436   5.706   2.204  12.045 -2.6347 -1.7117 -0.7722
 5341TIP3   OH237437   3.452   2.578  13.826  0.4498 -0.2476  0.0625
 5341TIP3    H137438   3.467   2.508  13.762  1.6745 -0.5938  0.7031
 5341TIP3    H237439   3.407   2.534  13.899  1.5319 -0.4739  0.6168
 5342TIP3   OH237440   4.776   4.174   0.723 -0.4703 -0.3460  0.2015
 5342TIP3    H137441   4.765   4.268   0.709  1.6886 -0.2476 -1.5515
 5342TIP3    H237442   4.823   4.168   0.806 -2.6856 -0.1030  1.5550
 5343TIP3   OH237443   1.353   1.937   0.144 -0.2114 -0.2360  0.0278
 5343TIP3    H137444   1.295   2.002   0.106  1.2382  0.2761 -1.4243
 5343TIP3    H237445   1.439   1.957   0.107  0.1105 -3.6946 -1.5437
 5344TIP3   OH237446   5.185   2.817  11.140  0.4356  0.4167 -0.5239
 5344TIP3    H137447   5.133   2.792  11.064  1.9129  1.9477 -2.1471
 5344TIP3    H237448   5.144   2.772  11.214 -1.8684 -0.0742 -2.0092
 5345TIP3   OH237449   2.358   1.399   1.101 -0.0942 -0.0047  0.1347
 5345TIP3    H137450   2.314   1.481   1.123  0.6865  0.8661 -1.4003
 5345TIP3    H237451   2.440   1.402   1.150  0.0670  0.2636 -0.1545
 5346TIP3   OH237452   3.892   4.089   2.844  0.2264 -0.0877 -0.1170
 5346TIP3    H137453   3.859   4.178   2.833 -1.9442 -0.9433 -1.2119
 5346TIP3    H237454   3.870   4.066   2.934 -0.0577  0.1575 -0.1245
 5347TIP3   OH237455   1.061   5.189  15.582 -0.4149 -0.7112 -0.4087
 5347TIP3    H137456   1.134   5.135  15.613 -2.5824 -2.2284  2.4948
 5347TIP3    H237457   1.089   5.279  15.599  0.0597 -1.3316  2.6759
 5348TIP3   OH237458   2.012   3.500  16.089  0.4779 -0.1334 -0.0663
 5348TIP3    H137459   2.073   3.473  16.021  0.1146 -0.8266 -0.1265
 5348TIP3    H237460   2.046   3.461  16.170  1.2828  1.2443  0.2868
 5349TIP3   OH237461   3.073   5.734   3.823 -0.6710  0.5373  0.1674
 5349TIP3    H137462   3.148   5.675   3.832 -0.9081  0.2672  0.3313
 5349TIP3    H237463   3.062   5.743   3.728  0.2030  1.3769  0.1187
 5350TIP3   OH237464   2.635   4.856   4.399 -0.3992  0.2849 -0.9667
 5350TIP3    H137465   2.729   4.876   4.398  0.5197 -3.2612 -0.1520
 5350TIP3    H237466   2.592   4.941   4.390  2.8656  2.0816 -1.0774
 5351TIP3   OH237467   1.071   0.213   0.334  0.4102 -0.2534 -0.0710
 5351TIP3    H137468   1.127   0.210   0.256 -0.7866 -0.6647 -0.9450
 5351TIP3    H237469   1.090   0.298   0.373  1.7947 -0.4694 -0.2049
 5352TIP3   OH237470   5.737   0.856  12.999 -0.0286 -0.6040  0.2164
 5352TIP3    H137471   5.646   0.885  12.996  0.8370  2.3899  0.5503
 5352TIP3    H237472   5.781   0.907  12.932  1.7161 -0.8718  1.0989
 5353TIP3   OH237473   5.674   0.740  15.901 -0.0322 -0.2574 -0.2482
 5353TIP3    H137474   5.590   0.721  15.943 -0.6568  2.7765  0.1243
 5353TIP3    H237475   5.718   0.800  15.962  1.7345 -0.5601 -1.1617
 5354TIP3   OH237476   4.316   2.616  16.203  0.1798  0.0517  0.3327
 5354TIP3    H137477   4.379   2.606  16.275 -1.0517 -1.1384  1.3093
 5354TIP3    H237478   4.260   2.689  16.230 -0.2683 -0.3805  0.6128
 5355TIP3   OH237479   5.844   2.992  15.726  0.2536  0.6010  0.1917
 5355TIP3    H137480   5.849   2.961  15.816  0.4590  0.4803  0.1387
 5355TIP3    H237481   5.928   3.036  15.711  0.7446 -0.4930 -0.3540
 5356TIP3   OH237482   3.978   3.314   1.168 -0.0540  0.6371 -0.1602
 5356TIP3    H137483   3.919   3.347   1.236 -0.1158 -1.4164  0.8692
 5356TIP3    H237484   3.942   3.228   1.145  1.8021 -0.1009 -0.4531
 5357TIP3   OH237485   3.324   1.462  12.729  0.5914 -0.2468 -0.2466
 5357TIP3    H137486   3.364   1.445  12.814 -0.6451 -0.1064  0.3952
 5357TIP3    H237487   3.267   1.386  12.714 -1.9363  1.3117  0.7753
 5358TIP3   OH237488   4.467   2.901  12.575  0.1584  0.2105  0.2419
 5358TIP3    H137489   4.439   2.856  12.496 -0.1063 -2.7354  1.8372
 5358TIP3    H237490   4.553   2.864  12.594 -0.7094 -0.9096  2.4329
 5359TIP3   OH237491   2.909   1.128  14.688 -0.5900 -0.0026  0.2860
 5359TIP3    H137492   2.940   1.082  14.610  0.9497 -1.2658  1.5745
 5359TIP3    H237493   2.942   1.218  14.676 -2.1389  0.4003 -1.4331
 5360TIP3   OH237494   2.696   5.999   2.967 -0.0602 -0.0425  0.2980
 5360TIP3    H137495   2.703   6.086   2.929 -0.7054 -0.6818 -1.4081
 5360TIP3    H237496   2.773   5.952   2.935 -0.2360 -0.3946  0.3823
 5361TIP3   OH237497   0.049   5.347  11.716 -0.2389  0.2021  0.7124
 5361TIP3    H137498   0.064   5.431  11.759 -1.7277  0.3428  1.0194
 5361TIP3    H237499  -0.020   5.365  11.652 -2.0930 -1.1511  2.1801
 5362TIP3   OH237500   3.943   2.259  12.006  0.2242  0.3827  0.9236
 5362TIP3    H137501   4.002   2.201  12.055  0.5086  0.3862  0.5883
 5362TIP3    H237502   3.902   2.313  12.073  1.2367  0.9645  1.0985
 5363TIP3   OH237503   3.709   5.786   3.863  0.0788 -0.3797 -0.3709
 5363TIP3    H137504   3.672   5.873   3.847 -1.3379 -1.0672 -1.1057
 5363TIP3    H237505   3.644   5.742   3.918  0.4284 -1.2160 -0.6060
 5364TIP3   OH237506   0.113   0.378  11.804  0.2683  0.7189  1.3113
 5364TIP3    H137507   0.194   0.417  11.769 -0.4224  2.3452  1.4029
 5364TIP3    H237508   0.056   0.454  11.819 -0.9214 -0.3167  2.1465
 5365TIP3   OH237509   3.637   5.258   3.019  0.0679 -0.0583 -0.5799
 5365TIP3    H137510   3.723   5.272   2.978  0.7702 -1.3307  0.4126
 5365TIP3    H237511   3.656   5.225   3.106 -1.4458 -0.0915 -0.2276
 5366TIP3   OH237512   5.454   6.019   2.597 -0.1316  0.2030 -0.2544
 5366TIP3    H137513   5.497   5.993   2.679  0.8308  0.7278 -0.5695
 5366TIP3    H237514   5.364   5.989   2.607 -0.3059  1.1147  1.4111
 5367TIP3   OH237515   4.556   6.263   0.681 -0.3668 -0.3284  0.0696
 5367TIP3    H137516   4.609   6.333   0.643 -0.1969 -0.9707 -0.8931
 5367TIP3    H237517   4.547   6.199   0.611 -0.1565 -1.4817  1.0687
 5368TIP3   OH237518   5.550   2.141  15.630  0.7087  0.7261  0.1076
 5368TIP3    H137519   5.486   2.116  15.563  1.1483  1.2611 -0.5296
 5368TIP3    H237520   5.614   2.069  15.629  0.5145  0.5521  0.2161
 5369TIP3   OH237521   6.263   5.915  12.549 -0.3713 -0.1802 -0.0677
 5369TIP3    H137522   6.339   5.899  12.605 -0.3024 -1.1870 -0.4316
 5369TIP3    H237523   6.222   5.829  12.539 -1.1402  0.2271 -0.4755
 5370TIP3   OH237524   0.806   1.296  14.685 -0.3973 -0.9758 -0.1483
 5370TIP3    H137525   0.836   1.235  14.753  0.1212  0.6807  1.1636
 5370TIP3    H237526   0.885   1.346  14.661 -1.1803  0.4255  0.1303
 5371TIP3   OH237527   1.741   1.572   3.348 -0.1022  0.1551  0.8970
 5371TIP3    H137528   1.835   1.556   3.357 -0.0112  0.2926  0.2448
 5371TIP3    H237529   1.711   1.589   3.437  0.5866  0.6444  1.0440
 5372TIP3   OH237530   1.599   1.936  16.984  0.1712  0.3523  0.3067
 5372TIP3    H137531   1.520   1.895  16.947  0.4732 -0.9644  1.0544
 5372TIP3    H237532   1.634   1.988  16.912  0.0532 -1.1537 -0.9031
 5373TIP3   OH237533   5.862   6.280   0.477 -0.0694  0.2217  0.1458
 5373TIP3    H137534   5.846   6.187   0.462  2.1587  0.0686 -1.8666
 5373TIP3    H237535   5.784   6.323   0.444 -0.8444 -0.8722  0.4649
 5374TIP3   OH237536   1.762   4.503  14.565  0.5493 -0.0842  0.4727
 5374TIP3    H137537   1.695   4.568  14.589  0.1406 -0.6457  0.8808
 5374TIP3    H237538   1.841   4.555  14.550  0.0301  0.5891 -0.0036
 5375TIP3   OH237539   0.972   5.087  16.550 -0.3788  0.0358  0.1725
 5375TIP3    H137540   0.958   5.012  16.609 -0.0551  0.5103  0.8667
 5375TIP3    H237541   1.067   5.098  16.548 -0.4785  1.6269  1.6491
 5376TIP3   OH237542   6.019   5.838   5.598 -0.0171  0.5763  0.2381
 5376TIP3    H137543   6.098   5.880   5.631 -0.2545  0.4748  0.9387
 5376TIP3    H237544   5.947   5.889   5.634 -0.3413 -0.9018  1.8176
 5377TIP3   OH237545   6.175   5.300   2.428  0.3773 -0.0627 -0.5111
 5377TIP3    H137546   6.134   5.214   2.417  0.5012 -0.0945 -0.7283
 5377TIP3    H237547   6.116   5.347   2.487  0.6699 -0.5409  0.1834
 5378TIP3   OH237548   1.751   6.657  13.529 -0.6675 -0.4494 -0.1966
 5378TIP3    H137549   1.718   6.607  13.603 -0.7712 -0.5081 -0.2813
 5378TIP3    H237550   1.789   6.591  13.471  1.4373 -0.2153  0.8120
 5379TIP3   OH237551   5.218   3.623  12.390 -0.0414 -0.1092 -0.4474
 5379TIP3    H137552   5.268   3.686  12.338 -0.4102  0.6890  0.1489
 5379TIP3    H237553   5.284   3.569  12.433  0.2698 -0.6901 -1.6170
 5380TIP3   OH237554   0.188   1.465   4.805  0.4619 -0.2065 -0.5026
 5380TIP3    H137555   0.159   1.400   4.741 -1.1549 -0.6061  0.5763
 5380TIP3    H237556   0.116   1.471   4.867  1.5241  0.9837  0.6720
 5381TIP3   OH237557   4.915   6.167   2.590 -0.4566 -0.2339  0.1551
 5381TIP3    H137558   4.996   6.217   2.575  0.1510 -1.4289 -0.7043
 5381TIP3    H237559   4.865   6.221   2.651  0.4760  1.0950 -0.1960
 5382TIP3   OH237560   5.788   2.316  15.801  0.7247  0.5859  0.2854
 5382TIP3    H137561   5.871   2.313  15.753 -0.1903  0.2610 -1.3428
 5382TIP3    H237562   5.760   2.225  15.806  1.0543  0.5462  1.9681
 5383TIP3   OH237563   3.044   6.776   1.723  0.6407 -0.2734  0.0938
 5383TIP3    H137564   3.077   6.776   1.813  1.1864  0.9106 -0.0915
 5383TIP3    H237565   3.118   6.803   1.670  0.1708 -0.4404 -0.6633
 5384TIP3   OH237566   5.101   0.633  15.637  0.0745 -0.3211  0.2585
 5384TIP3    H137567   5.194   0.657  15.647  0.0314  0.1361 -0.4230
 5384TIP3    H237568   5.103   0.543  15.604  0.2722 -0.2969  0.2045
 5385TIP3   OH237569   2.473   2.357   2.611  0.1090 -0.5630  0.1434
 5385TIP3    H137570   2.386   2.395   2.598 -0.0439 -0.5895  0.9940
 5385TIP3    H237571   2.524   2.427   2.652 -0.5793 -1.6135  3.0653
 5386TIP3   OH237572   1.307   0.680  15.517  0.7153  0.1941  0.4160
 5386TIP3    H137573   1.392   0.658  15.555  2.3237  2.3364 -1.6293
 5386TIP3    H237574   1.277   0.755  15.568  0.3475 -0.1700  0.7387
 5387TIP3   OH237575   3.398   3.725  13.907 -0.2106 -1.3217 -0.4451
 5387TIP3    H137576   3.413   3.646  13.855 -1.4575 -0.8031 -1.6400
 5387TIP3    H237577   3.340   3.779  13.853  0.0484  0.1113  0.6486
 5388TIP3   OH237578   6.772   3.517   3.088  0.1555 -0.2523 -0.3539
 5388TIP3    H137579   6.843   3.537   3.149 -0.4431  0.6518  0.0706
 5388TIP3    H237580   6.737   3.603   3.063 -1.3206 -0.6983  0.0832
 5389TIP3   OH237581   5.985   4.278  14.863 -0.6479 -0.0832  0.0642
 5389TIP3    H137582   6.066   4.301  14.909 -1.8039  1.3823  1.4874
 5389TIP3    H237583   5.957   4.196  14.904  0.4559 -0.9824 -0.9341
 5390TIP3   OH237584   6.745   0.957   5.194 -0.0895  0.0173 -0.0717
 5390TIP3    H137585   6.783   0.984   5.277 -0.7685  0.1506  0.1972
 5390TIP3    H237586   6.651   0.955   5.209 -0.4274  2.1451 -1.4008
 5391TIP3   OH237587   6.299   2.518   5.870 -0.0099 -0.5090  0.4181
 5391TIP3    H137588   6.280   2.563   5.953  1.3885  1.5023 -0.2795
 5391TIP3    H237589   6.215   2.519   5.824 -0.3500  0.1314  1.0124
 5392TIP3   OH237590   5.377   0.028   5.040 -0.6058  0.3491 -0.2420
 5392TIP3    H137591   5.392  -0.035   5.110  0.7005 -0.7695 -1.4724
 5392TIP3    H237592   5.306   0.083   5.072 -0.0335 -0.0986  1.9610
 5393TIP3   OH237593   4.719   0.595   4.337  0.0493 -0.4584  0.4273
 5393TIP3    H137594   4.665   0.638   4.271 -0.0955  0.2332  0.9857
 5393TIP3    H237595   4.656   0.557   4.399  0.1692 -1.7962 -0.2497
 5394TIP3   OH237596   5.999   5.460   0.288  0.2460  0.9134  0.2392
 5394TIP3    H137597   6.074   5.519   0.290  1.1576 -0.0976 -1.3374
 5394TIP3    H237598   6.038   5.373   0.278 -1.1100  0.2002  0.9314
 5395TIP3   OH237599   4.695   4.243  15.531  0.4197 -0.2004 -0.1517
 5395TIP3    H137600   4.779   4.274  15.499  0.1025  0.7476 -0.0947
 5395TIP3    H237601   4.635   4.254  15.457  0.8475 -3.4192 -1.1550
 5396TIP3   OH237602   2.048   4.450  13.851  0.1710  0.2963 -0.0291
 5396TIP3    H137603   2.105   4.523  13.876  0.4907  0.2179 -0.5161
 5396TIP3    H237604   2.074   4.378  13.908 -0.0660  0.5225  0.3737
 5397TIP3   OH237605   0.537   3.582  12.732 -0.3323  0.1147 -0.2800
 5397TIP3    H137606   0.539   3.520  12.658 -1.1103 -0.5992  0.2803
 5397TIP3    H237607   0.629   3.604  12.747 -0.1080 -0.2965 -1.0029
 5398TIP3   OH237608   1.692   3.125  12.840  0.1620 -0.0978 -0.2305
 5398TIP3    H137609   1.697   3.124  12.745 -0.2095 -0.4204 -0.2461
 5398TIP3    H237610   1.711   3.035  12.867 -1.7731 -0.5227 -0.1134
 5399TIP3   OH237611   6.222   3.673   0.839 -0.5178  0.1345 -0.3754
 5399TIP3    H137612   6.235   3.765   0.865  0.3139  0.0279 -0.3897
 5399TIP3    H237613   6.152   3.642   0.897  0.0542  0.4287  0.4928
 5400TIP3   OH237614   1.494   3.634   2.624  0.4622 -0.3543 -0.3055
 5400TIP3    H137615   1.548   3.565   2.586  1.7879 -0.3450  1.4586
 5400TIP3    H237616   1.550   3.711   2.626  0.1715 -0.1550  0.9303
 5401TIP3   OH237617   6.625   1.176  15.710 -0.0550 -0.0230  0.2525
 5401TIP3    H137618   6.592   1.144  15.794 -1.9931  0.2354 -0.3661
 5401TIP3    H237619   6.716   1.200  15.728 -0.3943 -0.0401  2.2516
 5402TIP3   OH237620   0.056   6.813  11.099 -0.5175 -0.4974  0.0479
 5402TIP3    H137621   0.112   6.889  11.082 -0.8652 -0.3149 -0.3025
 5402TIP3    H237622  -0.018   6.824  11.039 -2.8884  1.2639  3.0506
 5403TIP3   OH237623   5.919   0.417   5.382 -0.0553 -0.0496  0.2525
 5403TIP3    H137624   5.873   0.397   5.463 -0.2436  0.5905  0.3139
 5403TIP3    H237625   5.885   0.503   5.356  2.3054  1.2986  1.2130
 5404TIP3   OH237626   6.524   3.651  13.698 -0.8051 -0.6518  0.4434
 5404TIP3    H137627   6.455   3.600  13.741 -1.0763  0.1798  1.0204
 5404TIP3    H237628   6.605   3.621  13.740 -0.9537 -0.6996  0.7018
 5405TIP3   OH237629   6.401   5.464  13.938 -0.1482  0.2211  0.6193
 5405TIP3    H137630   6.332   5.528  13.918 -0.8507 -0.7336 -0.1568
 5405TIP3    H237631   6.396   5.452  14.033 -0.9484  0.3029  0.5960
 5406TIP3   OH237632   2.417   4.109   5.543  0.5273 -0.3353 -0.2777
 5406TIP3    H137633   2.483   4.097   5.474  0.5610  2.1733 -0.7594
 5406TIP3    H237634   2.422   4.202   5.565 -1.7076 -0.4387  0.8801
 5407TIP3   OH237635   6.183   6.159   4.490  0.7013  0.3152  0.2345
 5407TIP3    H137636   6.215   6.168   4.580  0.2763  2.1281  0.2452
 5407TIP3    H237637   6.254   6.115   4.443  1.3858  0.3405  1.2131
 5408TIP3   OH237638   0.331   6.476  12.608  0.3290  0.0589 -0.1754
 5408TIP3    H137639   0.392   6.420  12.560 -1.1474 -1.8843  0.0752
 5408TIP3    H237640   0.268   6.504  12.543  1.7010  2.5688 -0.5654
 5409TIP3   OH237641   4.049   5.596   0.960 -0.3452 -0.2774 -0.7183
 5409TIP3    H137642   4.034   5.512   1.004 -0.5588 -2.0298 -3.7723
 5409TIP3    H237643   4.126   5.633   1.002 -1.9994 -0.4179  2.7628
 5410TIP3   OH237644   4.466   1.174  15.508  0.4679  0.2358 -0.8187
 5410TIP3    H137645   4.392   1.229  15.484  0.5689  2.0051  2.4652
 5410TIP3    H237646   4.543   1.224  15.480  0.5098  0.5007 -0.2286
 5411TIP3   OH237647   6.322   6.280  10.889  0.1130  0.8493  0.2298
 5411TIP3    H137648   6.237   6.247  10.916  0.3400  0.0400 -0.0166
 5411TIP3    H237649   6.379   6.203  10.888  0.8078  1.3505  0.2370
 5412TIP3   OH237650   5.455   5.594  16.294  0.1955 -0.3147 -0.4206
 5412TIP3    H137651   5.516   5.555  16.232  0.5442  1.2639 -1.1256
 5412TIP3    H237652   5.370   5.554  16.273  0.4653 -0.4252 -1.3535
 5413TIP3   OH237653   2.500   0.192  13.579 -0.9481 -0.1833 -0.3537
 5413TIP3    H137654   2.574   0.252  13.574  0.1970 -1.6259 -1.6890
 5413TIP3    H237655   2.451   0.220  13.657  1.0375  0.7508  0.6241
 5414TIP3   OH237656   5.851   5.820  15.289  0.2016  0.0630  0.0990
 5414TIP3    H137657   5.775   5.840  15.235  0.8032  1.6348 -0.2094
 5414TIP3    H237658   5.834   5.731  15.322 -1.5087  0.1786 -0.3651
 5415TIP3   OH237659   2.828   3.551  13.090 -0.1031 -1.1464 -0.1181
 5415TIP3    H137660   2.782   3.620  13.138 -0.4138  0.4311 -2.4912
 5415TIP3    H237661   2.833   3.584  13.000  0.1362 -4.0559 -1.2819
 5416TIP3   OH237662   2.228   3.767   3.753 -0.2851 -0.3851  0.1424
 5416TIP3    H137663   2.277   3.757   3.834 -0.6293  1.4011  0.6165
 5416TIP3    H237664   2.153   3.709   3.762 -1.3643  1.2117  1.9805
 5417TIP3   OH237665   2.340   4.904   4.884  0.4382  0.2919  0.0676
 5417TIP3    H137666   2.366   4.904   4.791 -1.3806 -0.1519 -0.4757
 5417TIP3    H237667   2.250   4.937   4.884  0.2920 -0.0456  1.6435
 5418TIP3   OH237668   1.242   5.188   5.971 -0.4694  0.7264 -0.1358
 5418TIP3    H137669   1.332   5.181   6.004 -0.1772 -0.0651 -1.0726
 5418TIP3    H237670   1.193   5.122   6.020  0.0835 -0.8415 -1.6300
 5419TIP3   OH237671   2.459   3.541   3.593  0.4448 -0.6118  0.0383
 5419TIP3    H137672   2.513   3.536   3.514  0.5053 -0.6743  0.0842
 5419TIP3    H237673   2.515   3.584   3.658  0.2053 -0.0519 -0.1142
 5420TIP3   OH237674   2.640   6.806  14.600 -0.8458 -0.2172 -0.3314
 5420TIP3    H137675   2.599   6.748  14.665 -1.5731  0.9926  0.3318
 5420TIP3    H237676   2.593   6.789  14.519  1.1214 -2.9391 -1.0816
 5421TIP3   OH237677   0.782   6.003   5.645  0.4554 -0.1472  0.0781
 5421TIP3    H137678   0.842   6.010   5.570  0.3759 -0.2012  0.0095
 5421TIP3    H237679   0.820   6.061   5.711 -0.1209  0.8450 -0.4370
 5422TIP3   OH237680   3.697   1.179  14.164  0.4232 -0.4884 -0.1029
 5422TIP3    H137681   3.792   1.167  14.168  0.3279 -1.0728  0.7544
 5422TIP3    H237682   3.677   1.177  14.071  1.0807 -1.9763 -0.2444
 5423TIP3   OH237683   5.977   2.694   0.135  0.1417 -0.7000 -0.2312
 5423TIP3    H137684   6.032   2.681   0.057 -0.1716  1.3327 -0.8512
 5423TIP3    H237685   5.979   2.609   0.180 -0.0487 -2.1205 -2.6866
 5424TIP3   OH237686   4.213   2.006   2.912 -0.4811 -0.4426  0.1467
 5424TIP3    H137687   4.188   1.936   2.852  0.4190  0.1231 -0.9355
 5424TIP3    H237688   4.268   1.962   2.978 -0.3946 -0.8486 -0.1915
 5425TIP3   OH237689   4.727   4.791   5.264 -0.1565  0.1165  0.0011
 5425TIP3    H137690   4.719   4.727   5.334 -0.5576  1.1404  0.9291
 5425TIP3    H237691   4.783   4.749   5.198 -1.2619 -1.5585  0.0895
 5426TIP3   OH237692   1.857   4.905  11.999 -0.0978 -0.3399  0.3137
 5426TIP3    H137693   1.811   4.823  11.979 -0.6638  0.1195 -0.3289
 5426TIP3    H237694   1.820   4.968  11.937  0.3602  0.3926  0.7781
 5427TIP3   OH237695   4.406   0.268   2.077  0.4712 -0.2631  0.3587
 5427TIP3    H137696   4.327   0.322   2.067  0.3932 -0.5002 -0.3878
 5427TIP3    H237697   4.478   0.331   2.076  0.4621 -0.1975 -1.6318
 5428TIP3   OH237698   6.655   5.707  10.850 -0.0527  0.1331  0.2519
 5428TIP3    H137699   6.649   5.635  10.912 -0.4305  0.1886  0.2815
 5428TIP3    H237700   6.712   5.674  10.781 -0.4567 -0.3032  0.1192
 5429TIP3   OH237701   0.698   5.789  16.408 -0.2234  0.0651  0.6628
 5429TIP3    H137702   0.627   5.729  16.428 -1.1823  0.0140 -2.3389
 5429TIP3    H237703   0.776   5.733  16.408 -0.7017 -0.6209  0.5866
 5430TIP3   OH237704   1.647   2.537  11.949  0.2692  0.1466 -0.4455
 5430TIP3    H137705   1.603   2.454  11.934 -0.3811  0.1409  1.2076
 5430TIP3    H237706   1.577   2.602  11.951  0.3711  0.2621  1.3349
 5431TIP3   OH237707   4.083   2.506  15.230  0.1096 -0.6268  0.2340
 5431TIP3    H137708   4.004   2.538  15.187 -0.3349 -1.9421  0.0054
 5431TIP3    H237709   4.123   2.584  15.269 -1.6616 -0.0149  0.9412
 5432TIP3   OH237710   1.884   3.669  14.850  0.0554  0.5264 -0.0652
 5432TIP3    H137711   1.871   3.618  14.930  2.4236 -3.3729 -1.8743
 5432TIP3    H237712   1.963   3.721  14.867 -1.1197  2.0675  1.0190
 5433TIP3   OH237713   4.262   1.185   2.073  0.0658  0.1372  0.1922
 5433TIP3    H137714   4.212   1.173   2.153  0.5113  2.5580  0.9239
 5433TIP3    H237715   4.243   1.275   2.046  0.0665 -0.5231 -2.3555
 5434TIP3   OH237716   1.234   2.136   2.845 -0.0608 -0.0906 -0.2138
 5434TIP3    H137717   1.230   2.224   2.808 -0.5764 -1.1725 -2.9494
 5434TIP3    H237718   1.327   2.117   2.856  0.0413  0.9423  0.9080
 5435TIP3   OH237719   3.083   6.379  15.339 -0.7290 -0.2805 -0.0965
 5435TIP3    H137720   3.021   6.322  15.386 -0.4601  0.6475  1.4646
 5435TIP3    H237721   3.032   6.415  15.267 -2.4888  1.3838  1.8177
 5436TIP3   OH237722   1.385   4.296   3.737  0.2286  0.0931 -0.1521
 5436TIP3    H137723   1.299   4.255   3.749  0.3612  0.1133  1.0510
 5436TIP3    H237724   1.407   4.330   3.824  0.7278  1.5464 -0.8109
 5437TIP3   OH237725   6.111   5.696  15.922  0.6587 -0.4431  0.8167
 5437TIP3    H137726   6.160   5.614  15.927  1.3744 -0.0213  0.9663
 5437TIP3    H237727   6.042   5.687  15.988  0.1123 -1.3085  0.1499
 5438TIP3   OH237728   4.298   5.822  15.161 -0.3089 -0.3754  0.0480
 5438TIP3    H137729   4.379   5.790  15.203  0.6877 -0.9988 -2.1851
 5438TIP3    H237730   4.251   5.742  15.138 -1.5104 -0.0115  1.1304
 5439TIP3   OH237731   0.879   1.709  16.777  0.5253 -0.4275  0.3228
 5439TIP3    H137732   0.836   1.760  16.709  0.3702 -0.7189  0.2007
 5439TIP3    H237733   0.844   1.620  16.766 -1.0539 -0.0772  2.0743
 5440TIP3   OH237734   4.270   4.215   2.175  0.3916 -0.1191  0.9210
 5440TIP3    H137735   4.240   4.130   2.142 -3.2175  1.3193  0.1468
 5440TIP3    H237736   4.221   4.228   2.256  1.6128  0.8773  1.5458
 5441TIP3   OH237737   3.608   1.492   4.173  0.6704 -0.6629  0.1644
 5441TIP3    H137738   3.589   1.490   4.266  0.8477 -1.0213  0.1904
 5441TIP3    H237739   3.524   1.472   4.131  0.1847  1.1026  0.1992
 5442TIP3   OH237740   3.730   0.498   0.975  0.3017 -0.0246  0.3462
 5442TIP3    H137741   3.635   0.502   0.968  0.2863  1.2655  1.1350
 5442TIP3    H237742   3.762   0.557   0.907  0.5260  0.0642  0.5260
 5443TIP3   OH237743   3.394   2.623   2.222  0.2731 -0.2597 -0.3956
 5443TIP3    H137744   3.456   2.549   2.220 -0.3511 -0.8555  1.2335
 5443TIP3    H237745   3.348   2.616   2.138 -0.4548 -2.3464  0.1075
 5444TIP3   OH237746   0.339   5.536  12.018 -0.1749  0.3930  0.1927
 5444TIP3    H137747   0.378   5.497  12.096 -1.2865 -1.2579 -0.0102
 5444TIP3    H237748   0.386   5.618  12.005  0.5500  0.3277  2.1440
 5445TIP3   OH237749   3.549   1.469  14.191  0.6316  0.4265 -0.1971
 5445TIP3    H137750   3.573   1.445  14.281  2.1227 -0.4406 -0.7811
 5445TIP3    H237751   3.455   1.485  14.194  0.5502 -0.2116  1.3880
 5446TIP3   OH237752   5.867   3.577   5.968  0.2903 -0.3763  0.4620
 5446TIP3    H137753   5.819   3.658   5.951 -0.2004 -0.3537  1.8585
 5446TIP3    H237754   5.959   3.603   5.965  0.3696 -0.5396 -2.8567
 5447TIP3   OH237755   1.316   5.743  14.189  0.1617  0.4847 -0.5475
 5447TIP3    H137756   1.378   5.762  14.260  2.2672 -0.5177 -2.0243
 5447TIP3    H237757   1.255   5.681  14.227  2.4033 -1.5854 -0.0733
 5448TIP3   OH237758   3.308   3.495   5.260  0.4492  0.5262  0.0554
 5448TIP3    H137759   3.321   3.586   5.232  0.6201  0.1803 -1.0267
 5448TIP3    H237760   3.322   3.497   5.354  2.4493  1.2727 -0.2218
 5449TIP3   OH237761   6.709   4.100  12.946 -0.0730 -0.4294  0.9898
 5449TIP3    H137762   6.705   4.146  12.862 -0.8524 -0.2342  1.1245
 5449TIP3    H237763   6.639   4.035  12.940 -1.0221  0.4615  1.9833
 5450TIP3   OH237764   6.628   6.636  13.104 -0.3330  0.1348 -0.1141
 5450TIP3    H137765   6.674   6.565  13.148  0.6378  0.0639 -1.1925
 5450TIP3    H237766   6.678   6.651  13.024 -1.4338  0.9754 -0.6690
 5451TIP3   OH237767   6.416   5.454   4.637  0.4084 -0.3116  0.3030
 5451TIP3    H137768   6.433   5.490   4.724 -1.5134  0.4091  0.4454
 5451TIP3    H237769   6.436   5.361   4.645  0.2186 -0.2627  1.5378
 5452TIP3   OH237770   0.217   4.451  12.514 -0.5208 -0.5502 -0.3135
 5452TIP3    H137771   0.163   4.392  12.462 -2.6074  0.4712  0.6033
 5452TIP3    H237772   0.222   4.410  12.600  0.0491 -0.5549 -0.3445
 5453TIP3   OH237773   0.841   1.376   0.658  0.3683 -0.2777  0.0779
 5453TIP3    H137774   0.862   1.418   0.742 -0.8002 -0.5762  0.5379
 5453TIP3    H237775   0.848   1.282   0.676 -0.1090 -0.3475 -0.0882
 5454TIP3   OH237776   2.580   3.909   5.736  0.1950  0.6527 -0.2865
 5454TIP3    H137777   2.612   3.820   5.722  1.4641  0.8838  0.9749
 5454TIP3    H237778   2.486   3.903   5.719  0.6478 -0.2628 -3.1437
 5455TIP3   OH237779   1.762   3.403   0.073  0.2427  0.1809 -0.0621
 5455TIP3    H137780   1.775   3.361   0.158 -1.4071  0.5320  0.4158
 5455TIP3    H237781   1.697   3.472   0.090 -0.9833 -0.4629 -1.7919
 5456TIP3   OH237782   4.293   2.043  14.932 -0.5100  0.5498  0.0953
 5456TIP3    H137783   4.315   1.951  14.921 -1.8420  0.3638 -1.2446
 5456TIP3    H237784   4.213   2.043  14.984  0.3219  1.0402  1.4180
 5457TIP3   OH237785   1.806   2.957  16.671  0.6154  0.2108  0.5059
 5457TIP3    H137786   1.791   2.894  16.601  0.5588  0.7273  0.0486
 5457TIP3    H237787   1.748   2.929  16.742  2.1846 -1.5901  1.2002
 5458TIP3   OH237788   3.365   2.480  11.937  0.1613  0.3838  0.4847
 5458TIP3    H137789   3.321   2.503  11.855 -0.8562 -0.6802  0.6928
 5458TIP3    H237790   3.320   2.531  12.004  1.8745  2.2812  0.2710
 5459TIP3   OH237791   2.849   5.900   2.486  0.0002 -0.3739  0.3418
 5459TIP3    H137792   2.806   5.870   2.566 -0.0188 -1.3053 -0.0106
 5459TIP3    H237793   2.819   5.840   2.418 -1.4386  1.4829 -0.7699
 5460TIP3   OH237794   3.987   6.031   1.397 -0.6528  0.0572 -0.6737
 5460TIP3    H137795   3.900   6.035   1.359 -0.1289  1.1429 -1.8459
 5460TIP3    H237796   4.038   6.095   1.346  0.5637  0.1721  0.6385
 5461TIP3   OH237797   3.324   5.722   0.623 -0.1970 -0.9547 -1.0541
 5461TIP3    H137798   3.381   5.646   0.632  0.4414 -0.5115 -1.2015
 5461TIP3    H237799   3.354   5.765   0.542 -0.1828 -0.2667 -0.6973
 5462TIP3   OH237800   3.084   5.766  11.818 -0.2446 -0.2508 -0.0583
 5462TIP3    H137801   3.009   5.755  11.875 -0.8585 -0.1545 -0.8323
 5462TIP3    H237802   3.116   5.854  11.837 -1.1084  0.1944 -0.6342
 5463TIP3   OH237803   5.262   0.681  11.341  0.3954  0.5479 -0.7893
 5463TIP3    H137804   5.335   0.621  11.326  0.0200  0.0246 -0.5698
 5463TIP3    H237805   5.184   0.627  11.330  0.0612  0.8643 -0.0388
 5464TIP3   OH237806   2.037   0.091   3.938 -0.1263 -0.1659 -0.2006
 5464TIP3    H137807   2.118   0.141   3.947 -0.0227 -0.3176 -0.2792
 5464TIP3    H237808   1.970   0.156   3.918 -0.2389  0.1081  1.0001
 5465TIP3   OH237809   1.450   5.185  12.153 -0.1575 -0.4405  0.0353
 5465TIP3    H137810   1.439   5.111  12.092  0.8486 -1.5214  1.1147
 5465TIP3    H237811   1.367   5.189  12.200 -0.6551 -0.0982 -0.8407
 5466TIP3   OH237812   5.846   6.689  13.434 -0.1248  0.1983  0.2839
 5466TIP3    H137813   5.762   6.733  13.444 -0.2750 -0.0414  0.0726
 5466TIP3    H237814   5.901   6.727  13.503 -0.4131  0.3341  0.4398
 5467TIP3   OH237815   3.345   2.412   2.512 -0.0012  0.0757 -0.1491
 5467TIP3    H137816   3.328   2.438   2.422 -2.2640 -1.5594 -0.2795
 5467TIP3    H237817   3.291   2.472   2.564 -0.5015 -0.4468 -0.0565
 5468TIP3   OH237818   2.089   5.879   4.903  0.7231 -0.5667 -0.3207
 5468TIP3    H137819   2.181   5.903   4.912  0.7629 -0.4082 -1.0470
 5468TIP3    H237820   2.090   5.801   4.847  0.5166 -1.6111  1.0935
 5469TIP3   OH237821   2.936   2.890   4.751  0.2697 -0.9503  0.6130
 5469TIP3    H137822   2.976   2.969   4.715 -2.4502  0.3384  0.1879
 5469TIP3    H237823   2.929   2.830   4.677 -0.0414 -0.5534  0.3167
 5470TIP3   OH237824   0.591   1.724  11.691 -0.2271  0.1098 -0.5124
 5470TIP3    H137825   0.500   1.752  11.684 -0.4621 -0.7425 -1.0247
 5470TIP3    H237826   0.597   1.685  11.778 -1.1559 -2.4576 -1.4848
 5471TIP3   OH237827   5.975   0.345  15.318  0.0227 -0.2488  0.2782
 5471TIP3    H137828   5.919   0.408  15.363 -0.5013  0.5485 -1.3859
 5471TIP3    H237829   5.970   0.266  15.371 -2.2216 -0.0116  0.5291
 5472TIP3   OH237830   3.813   3.585   6.475 -0.2524 -0.4477  0.0130
 5472TIP3    H137831   3.764   3.642   6.416 -3.2697 -2.1871  0.5817
 5472TIP3    H237832   3.834   3.508   6.423 -0.9655 -1.0476  0.5845
 5473TIP3   OH237833   2.299   6.230   4.102  0.0406  0.1078 -0.4065
 5473TIP3    H137834   2.378   6.273   4.136  0.1110  0.9113 -1.5354
 5473TIP3    H237835   2.316   6.137   4.112  1.4682  0.2426 -1.3474
 5474TIP3   OH237836   1.435   3.250  16.096  0.4359 -0.1676 -0.0446
 5474TIP3    H137837   1.435   3.278  16.188  0.1915 -0.1630 -0.0447
 5474TIP3    H237838   1.460   3.157  16.100 -2.1006 -0.9257  0.2888
 5475TIP3   OH237839   1.562   3.656   0.424  0.4075  0.5877  0.1881
 5475TIP3    H137840   1.593   3.743   0.448  0.1730  0.8991 -0.6299
 5475TIP3    H237841   1.493   3.637   0.489  2.2930 -0.1577  2.0803
 5476TIP3   OH237842   1.717   4.295   3.605 -0.1884 -0.5369  0.8373
 5476TIP3    H137843   1.786   4.361   3.603  0.8995 -1.6556  0.4146
 5476TIP3    H237844   1.700   4.280   3.698  1.5068 -1.6250  1.0011
 5477TIP3   OH237845   0.753   5.086  12.716 -0.4562 -0.7985  0.6326
 5477TIP3    H137846   0.692   5.135  12.660 -1.4346 -0.7495  1.6939
 5477TIP3    H237847   0.763   5.141  12.794  0.3601 -1.1673  0.7994
 5478TIP3   OH237848   0.692   6.387   0.985 -0.8656 -0.4099  0.5442
 5478TIP3    H137849   0.719   6.468   0.942  1.5981 -0.4440  1.8426
 5478TIP3    H237850   0.696   6.321   0.915 -0.8493  0.2292 -0.0649
 5479TIP3   OH237851   3.932   2.103  11.468 -0.0498 -0.1164  0.3425
 5479TIP3    H137852   3.893   2.153  11.541 -0.9409 -0.2869 -0.0052
 5479TIP3    H237853   3.943   2.014  11.503  0.2245 -0.0194  0.5064
 5480TIP3   OH237854   0.128   5.608  16.858 -0.0430 -0.3066  0.0458
 5480TIP3    H137855   0.088   5.601  16.945 -0.6799 -1.7104 -0.3264
 5480TIP3    H237856   0.222   5.600  16.874 -0.1946 -1.1455  0.5643
 5481TIP3   OH237857   1.840   6.457   2.107  0.5632  0.3064 -0.2099
 5481TIP3    H137858   1.759   6.466   2.057 -0.9535 -0.9576  1.8398
 5481TIP3    H237859   1.817   6.486   2.195  1.9924 -1.2629  0.7350
 5482TIP3   OH237860   5.349   6.303   5.147 -0.1687 -0.3810  0.3153
 5482TIP3    H137861   5.418   6.334   5.089 -0.4488  0.3263  0.3433
 5482TIP3    H237862   5.269   6.341   5.110 -0.8113 -2.5980 -0.7473
 5483TIP3   OH237863   1.349   3.013  12.827  0.1495  0.2602 -0.1567
 5483TIP3    H137864   1.390   2.949  12.769  0.0822  1.2284 -1.3075
 5483TIP3    H237865   1.256   3.009  12.806 -0.3816 -1.5570  2.0807
 5484TIP3   OH237866   3.668   2.388  16.158 -0.4468 -0.2588 -0.6864
 5484TIP3    H137867   3.744   2.363  16.211 -0.9832  0.5143  0.5005
 5484TIP3    H237868   3.613   2.310  16.157  0.5439 -0.9909 -1.9628
 5485TIP3   OH237869   4.618   6.752   5.419  0.8012 -0.2334  0.0296
 5485TIP3    H137870   4.561   6.745   5.342  1.5953 -0.8637 -0.5191
 5485TIP3    H237871   4.614   6.844   5.444  0.2542 -0.0948 -0.5535
 5486TIP3   OH237872   2.031   3.377   4.375 -0.2959  0.5807 -0.2722
 5486TIP3    H137873   2.066   3.290   4.355  0.4397  0.6995  0.4245
 5486TIP3    H237874   1.937   3.363   4.386 -0.0603 -0.3343  0.8206
 5487TIP3   OH237875   2.618   5.069  11.504  0.0668 -0.0298  0.8472
 5487TIP3    H137876   2.533   5.114  11.497 -0.1426 -0.6567 -1.5358
 5487TIP3    H237877   2.602   4.982  11.468  1.6240 -0.3503  0.8541
 5488TIP3   OH237878   4.962   3.194  14.157  0.0570  0.0897  0.1335
 5488TIP3    H137879   4.884   3.245  14.177 -0.4370 -1.5484  3.0133
 5488TIP3    H237880   5.029   3.229  14.216  0.1293 -1.5167  1.0575
 5489TIP3   OH237881   0.085   2.799   1.083  0.4002 -0.1615  0.5566
 5489TIP3    H137882   0.143   2.872   1.106  1.6768 -1.1969  0.7079
 5489TIP3    H237883   0.086   2.742   1.159 -0.5808 -0.3644  0.4299
 5490TIP3   OH237884   3.180   2.066  15.862 -0.0032  0.1451 -0.4496
 5490TIP3    H137885   3.177   2.143  15.805  0.2096  0.7961  0.3991
 5490TIP3    H237886   3.266   2.069  15.903 -0.6238  0.4039  0.8688
 5491TIP3   OH237887   2.397   5.484   5.652  0.0437 -0.9439  0.2268
 5491TIP3    H137888   2.387   5.446   5.565  0.1241 -1.2428  0.3437
 5491TIP3    H237889   2.315   5.529   5.669  0.9910  1.5047 -1.1268
 5492TIP3   OH237890   4.946   1.916  10.336  0.1005 -0.2827  0.5305
 5492TIP3    H137891   4.987   2.002  10.333 -2.4928  1.0336 -0.6561
 5492TIP3    H237892   5.006   1.859  10.289  1.7819  0.8790  1.1694
 5493TIP3   OH237893   6.462   4.755   0.424 -0.9514 -0.4074 -0.1725
 5493TIP3    H137894   6.509   4.766   0.341 -1.8383  0.7193 -0.5433
 5493TIP3    H237895   6.502   4.678   0.464  1.4133  0.6267 -0.3512
 5494TIP3   OH237896   1.083   2.669   0.817  0.3866 -0.3199 -0.4307
 5494TIP3    H137897   1.117   2.586   0.783  0.2599 -1.3090  1.6472
 5494TIP3    H237898   0.990   2.651   0.834  0.3820  0.2019  0.1329
 5495TIP3   OH237899   5.599   0.446   3.296  0.1907 -0.2681  0.0898
 5495TIP3    H137900   5.546   0.493   3.361 -0.5378  0.3506 -0.9187
 5495TIP3    H237901   5.649   0.382   3.347 -0.4830  0.0895  1.2331
 5496TIP3   OH237902   6.115   5.359  15.639 -0.2360  0.8910 -0.0936
 5496TIP3    H137903   6.168   5.280  15.649  1.4252  1.9823  0.0669
 5496TIP3    H237904   6.099   5.388  15.729 -2.0811  0.0121 -0.0779
 5497TIP3   OH237905   4.434   2.840  11.558 -0.5166 -0.1400 -0.2511
 5497TIP3    H137906   4.381   2.909  11.599  0.9581  0.9520 -0.0978
 5497TIP3    H237907   4.375   2.798  11.496 -1.5247  1.1298 -0.1871
 5498TIP3   OH237908   6.022   2.029  11.905  0.2896  0.0960  0.1864
 5498TIP3    H137909   6.017   2.061  11.995 -1.6360  1.1859 -0.2540
 5498TIP3    H237910   6.056   2.103  11.855 -0.7430  0.2721 -0.2864
 5499TIP3   OH237911   4.932   3.023   3.609 -0.6046  0.0902 -0.3561
 5499TIP3    H137912   4.873   2.972   3.552 -0.9128  1.1639 -1.0310
 5499TIP3    H237913   4.961   2.961   3.675 -1.1847 -0.8926 -0.9994
 5500TIP3   OH237914   4.414   0.166  12.472  0.0393 -0.5071 -0.1394
 5500TIP3    H137915   4.390   0.078  12.502  2.1946 -0.8757  0.7427
 5500TIP3    H237916   4.395   0.165  12.378  1.0473 -2.3594 -0.3962
 5501TIP3   OH237917   5.993   0.881  14.183  0.5538  0.2207 -0.3346
 5501TIP3    H137918   6.089   0.882  14.184  0.6418  2.9085 -1.7962
 5501TIP3    H237919   5.971   0.835  14.102  0.6496  0.4845 -0.5116
 5502TIP3   OH237920   4.515   3.174   4.667 -0.4297 -0.4857  0.0090
 5502TIP3    H137921   4.431   3.133   4.687  0.4387 -1.9651  0.8109
 5502TIP3    H237922   4.504   3.210   4.579 -1.1897 -2.6346 -0.8296
 5503TIP3   OH237923   0.381   5.486  16.845 -0.1822  0.7387  0.2420
 5503TIP3    H137924   0.308   5.447  16.797  1.0694 -0.1492 -1.0421
 5503TIP3    H237925   0.459   5.445  16.807  1.0076  1.8734  1.3507
 5504TIP3   OH237926   5.957   2.164  16.627  0.1981 -0.4502 -1.1455
 5504TIP3    H137927   5.947   2.160  16.722 -0.7854  0.5673 -1.1836
 5504TIP3    H237928   5.869   2.150  16.593  0.5654 -0.9456 -1.9302
 5505TIP3   OH237929   0.164   0.622  13.269 -0.2713  0.2209 -0.2989
 5505TIP3    H137930   0.095   0.677  13.307 -0.1874 -0.0693  0.2805
 5505TIP3    H237931   0.136   0.532  13.286  0.8432  0.1008  1.0567
 5506TIP3   OH237932   4.563   3.363   2.263  0.7482  0.2428 -0.2395
 5506TIP3    H137933   4.592   3.452   2.278  0.6168  0.7986 -2.7180
 5506TIP3    H237934   4.630   3.325   2.206  0.3501 -0.9286  0.0325
 5507TIP3   OH237935   3.408   3.713   6.545 -0.7409  0.0329 -0.1685
 5507TIP3    H137936   3.317   3.701   6.516 -1.1432  0.7151  0.7767
 5507TIP3    H237937   3.459   3.660   6.484 -1.4389  2.1792 -2.8551
 5508TIP3   OH237938   0.621   1.856   1.573  0.1198  0.0299  0.2069
 5508TIP3    H137939   0.636   1.946   1.599  1.5418  0.2826 -1.2859
 5508TIP3    H237940   0.684   1.805   1.625 -1.5901 -0.3213  2.0351
 5509TIP3   OH237941   2.425   3.173  12.703 -0.1733  0.4038  0.1691
 5509TIP3    H137942   2.513   3.137  12.707 -0.1571  0.1588 -1.4491
 5509TIP3    H237943   2.392   3.167  12.792  0.8390 -1.0843  0.4848
 5510TIP3   OH237944   6.071   5.289  13.116  0.3155 -0.1455 -0.5653
 5510TIP3    H137945   6.107   5.204  13.094  1.5399  0.6002 -1.5227
 5510TIP3    H237946   6.146   5.341  13.146 -0.2473  0.8866 -0.8792
 5511TIP3   OH237947   6.005   5.928   2.089 -0.7747 -0.8326 -0.4183
 5511TIP3    H137948   6.021   5.999   2.026 -1.2709 -1.3634 -1.1608
 5511TIP3    H237949   6.086   5.923   2.140 -0.0399 -0.9107 -1.5476
 5512TIP3   OH237950   4.717   5.543  13.044 -0.2767 -0.1576  0.3284
 5512TIP3    H137951   4.717   5.448  13.050 -1.0572 -0.1138  1.4960
 5512TIP3    H237952   4.627   5.568  13.064 -0.1980  0.8071 -0.4630
 5513TIP3   OH237953   0.573   0.491  13.559 -0.2413 -0.3017  0.2511
 5513TIP3    H137954   0.485   0.458  13.542  0.1991 -2.1167  1.2645
 5513TIP3    H237955   0.629   0.413  13.556  0.9536  0.4266  2.0878
 5514TIP3   OH237956   0.560   4.769   0.079 -0.1280  0.1457 -0.1220
 5514TIP3    H137957   0.579   4.831   0.149  0.4527  1.7560 -1.6576
 5514TIP3    H237958   0.466   4.780   0.062 -0.0561  0.4928 -0.2933
 5515TIP3   OH237959   0.748   6.090  15.799  0.3549  0.2478  0.4164
 5515TIP3    H137960   0.688   6.033  15.848 -0.4329 -1.0094 -1.8657
 5515TIP3    H237961   0.731   6.070  15.707  3.6007  0.5909 -0.3768
 5516TIP3   OH237962   1.360   1.984   5.124  0.3277 -0.4532 -0.4137
 5516TIP3    H137963   1.280   2.021   5.163  0.9877  0.3663  0.2145
 5516TIP3    H237964   1.423   1.982   5.196  1.1854 -0.1170 -1.1344
 5517TIP3   OH237965   1.887   1.893  14.336 -0.2103  0.3286  0.0807
 5517TIP3    H137966   1.906   1.917  14.427 -0.5496  0.9692 -0.0082
 5517TIP3    H237967   1.872   1.798  14.338 -3.2110  0.7252  1.2436
 5518TIP3   OH237968   4.120   0.569  11.318  0.1295 -0.6074  0.1929
 5518TIP3    H137969   4.209   0.552  11.350  0.1184  1.4248  1.4262
 5518TIP3    H237970   4.129   0.567  11.222  1.5490 -0.2396  0.2835
 5519TIP3   OH237971   0.380   1.444   1.649 -0.1411 -0.2377  0.1748
 5519TIP3    H137972   0.464   1.476   1.615 -0.1337 -0.6590 -0.2071
 5519TIP3    H237973   0.332   1.523   1.673 -0.0261  0.0442 -0.5236
 5520TIP3   OH237974   4.882   3.583   1.171 -0.3018 -0.0124 -0.1669
 5520TIP3    H137975   4.870   3.509   1.231  0.8763 -1.7448 -1.9632
 5520TIP3    H237976   4.838   3.556   1.091  0.4472  1.1119 -0.9786
 5521TIP3   OH237977   2.503   4.691   5.706  0.0567 -0.2996 -0.7082
 5521TIP3    H137978   2.557   4.764   5.677  2.0664 -0.5217  2.0551
 5521TIP3    H237979   2.419   4.731   5.729  0.1370  0.6201 -1.8934
 5522TIP3   OH237980   0.976   4.870   4.806 -0.0314 -0.3297 -0.2907
 5522TIP3    H137981   1.059   4.903   4.773  0.9193 -0.7687  1.5167
 5522TIP3    H237982   0.962   4.918   4.888  1.4868 -4.1331  2.5497
 5523TIP3   OH237983   5.323   2.105   3.214  0.2159 -0.3406 -0.5834
 5523TIP3    H137984   5.418   2.101   3.218  0.3538  2.1360  2.7197
 5523TIP3    H237985   5.304   2.193   3.183 -0.9134 -0.0605  0.7852
 5524TIP3   OH237986   4.545   2.868  16.520 -0.3455 -0.5411  0.0209
 5524TIP3    H137987   4.639   2.861  16.503  1.0579  2.5031  4.5855
 5524TIP3    H237988   4.529   2.803  16.589 -1.6381 -0.9636 -0.6507
 5525TIP3   OH237989   1.326   4.922  14.468  0.0785  0.4831 -0.0588
 5525TIP3    H137990   1.266   4.984  14.428 -0.8668 -0.0383  0.5004
 5525TIP3    H237991   1.277   4.839  14.470  1.0026 -0.0842 -0.0512
 5526TIP3   OH237992   1.770   3.261   4.429 -0.2602 -0.6700 -0.0466
 5526TIP3    H137993   1.682   3.227   4.409 -0.9336  1.0895 -0.2705
 5526TIP3    H237994   1.758   3.311   4.510  0.1962  0.6968 -0.7789
 5527TIP3   OH237995   4.368   3.385  12.178  0.0053 -0.2088  0.5505
 5527TIP3    H137996   4.306   3.333  12.228  0.1007 -0.9365 -0.0666
 5527TIP3    H237997   4.348   3.475  12.201  1.2119 -0.5523  3.2814
 5528TIP3   OH237998   4.449   3.539   2.557 -0.0157  0.1399 -0.2053
 5528TIP3    H137999   4.510   3.480   2.600 -1.1756 -1.1430 -0.2685
 5528TIP3    H238000   4.366   3.526   2.604 -0.7164  0.4430 -1.3273
 5529TIP3   OH238001   1.156   2.872   0.332 -0.5234  0.5091  0.6107
 5529TIP3    H138002   1.112   2.825   0.262 -0.1323  1.4369 -0.2813
 5529TIP3    H238003   1.247   2.879   0.303 -0.2637  0.5424  1.4073
 5530TIP3   OH238004   0.125   2.109  14.553 -0.6016  0.2113  0.2017
 5530TIP3    H138005   0.131   2.119  14.458  1.9600 -2.4662 -0.0552
 5530TIP3    H238006   0.040   2.068  14.567 -1.3762  1.3967 -0.7937
 5531TIP3   OH238007   2.380   5.673  13.199  0.0710  0.2604 -0.1190
 5531TIP3    H138008   2.363   5.728  13.276 -1.0194 -1.7125  1.1201
 5531TIP3    H238009   2.468   5.638  13.214 -0.3726 -0.5996  0.5810
 5532TIP3   OH238010   2.524   3.489   6.326 -0.0186  0.5195  0.2795
 5532TIP3    H138011   2.601   3.515   6.276  1.1216 -1.5531  0.8314
 5532TIP3    H238012   2.458   3.555   6.305  1.3588  1.4018 -1.5619
 5533TIP3   OH238013   6.273   5.997  11.702 -0.0460 -0.3045 -0.2447
 5533TIP3    H138014   6.285   5.926  11.765  1.9772  1.0585  1.0173
 5533TIP3    H238015   6.338   6.062  11.727  0.0700  0.7995 -3.0947
 5534TIP3   OH238016   0.654   3.158  16.295 -0.5584 -0.4757 -0.1091
 5534TIP3    H138017   0.739   3.123  16.268 -0.5692 -1.1469  0.7015
 5534TIP3    H238018   0.647   3.242  16.249 -0.2354 -1.2119 -1.5686
 5535TIP3   OH238019   6.504   0.650  11.984 -0.0322  0.0894  0.1331
 5535TIP3    H138020   6.416   0.688  11.976 -0.4805 -0.5628  1.5987
 5535TIP3    H238021   6.497   0.563  11.946  0.9920  1.3355 -3.2050
 5536TIP3   OH238022   2.907   5.751  15.069 -0.0478 -0.4077  0.3381
 5536TIP3    H138023   2.955   5.811  15.012  0.8311 -1.1699  0.2641
 5536TIP3    H238024   2.910   5.793  15.155  2.5823 -1.3965  0.8146
 5537TIP3   OH238025   5.407   4.673   6.060  0.0488 -0.2059  0.2794
 5537TIP3    H138026   5.483   4.727   6.042  0.7519 -1.5694 -1.0199
 5537TIP3    H238027   5.407   4.662   6.155  0.1969  1.5589  0.5183
 5538TIP3   OH238028   3.665   5.524   3.282 -0.2673 -0.2103 -0.5787
 5538TIP3    H138029   3.576   5.549   3.305  0.3964  0.8254  1.0102
 5538TIP3    H238030   3.689   5.582   3.210 -0.4984  0.2814 -0.2619
 5539TIP3   OH238031   0.509   3.364  15.893  0.0025  0.1673  0.2562
 5539TIP3    H138032   0.565   3.295  15.857 -0.5587 -1.2524  1.9504
 5539TIP3    H238033   0.425   3.321  15.908 -0.8400  1.6400 -0.0241
 5540TIP3   OH238034   1.472   0.374  14.711  0.3151 -0.7209 -0.4721
 5540TIP3    H138035   1.396   0.405  14.662  0.3360 -0.3556 -0.2807
 5540TIP3    H238036   1.513   0.455  14.745  0.5361 -0.9410 -0.2067
 5541TIP3   OH238037   4.966   5.815  11.642 -0.1349  0.1756  0.0446
 5541TIP3    H138038   4.943   5.848  11.729  0.2964 -0.0093  0.2325
 5541TIP3    H238039   4.885   5.823  11.591  0.0623  1.9935 -0.0644
 5542TIP3   OH238040   3.685   0.543   2.172 -0.0741 -0.4636  0.1549
 5542TIP3    H138041   3.669   0.632   2.202  1.1255 -0.7025  1.6796
 5542TIP3    H238042   3.628   0.531   2.097 -0.8631  1.3032  0.4411
 5543TIP3   OH238043   2.653   2.580   2.422  0.3836 -0.5173 -0.3318
 5543TIP3    H138044   2.592   2.630   2.367  0.2727 -1.1084 -0.7483
 5543TIP3    H238045   2.660   2.495   2.380  2.5404 -0.0357 -1.0385
 5544TIP3   OH238046   6.569   2.177  12.089  0.0247  0.1789 -0.7592
 5544TIP3    H138047   6.620   2.232  12.030 -1.0586  0.9426 -0.9997
 5544TIP3    H238048   6.502   2.137  12.034  0.3988 -0.8971 -0.4666
 5545TIP3   OH238049   0.480   6.686  10.762  0.6964 -0.1613 -0.0024
 5545TIP3    H138050   0.437   6.691  10.848 -2.1744  0.5773 -1.3525
 5545TIP3    H238051   0.533   6.765  10.757 -1.1462  1.1452  0.1589
 5546TIP3   OH238052   2.974   3.825  13.080  0.3589  0.0465 -0.0040
 5546TIP3    H138053   3.041   3.893  13.084 -0.9676  1.5267 -1.4395
 5546TIP3    H238054   2.903   3.858  13.135  0.0599 -0.6048  0.0050
 5547TIP3   OH238055   5.662   5.218  14.661  0.7296 -0.0861 -0.2060
 5547TIP3    H138056   5.649   5.300  14.614 -1.1160  0.6717  1.4762
 5547TIP3    H238057   5.586   5.165  14.636  0.0699  0.0802  1.3108
 5548TIP3   OH238058   4.100   0.963   1.136  0.2741  0.0509  0.9929
 5548TIP3    H138059   4.078   1.043   1.183  1.5248  0.4722  0.8993
 5548TIP3    H238060   4.180   0.932   1.178  1.2517  0.2629 -0.5946
 5549TIP3   OH238061   4.761   4.933   2.990  0.1748  0.0283 -0.0624
 5549TIP3    H138062   4.742   5.016   2.946  1.3183  0.7987  0.8539
 5549TIP3    H238063   4.795   4.876   2.920  1.7286  1.1439 -0.2582
 5550TIP3   OH238064   5.888   5.032  14.357 -0.1741 -0.6271 -0.6193
 5550TIP3    H138065   5.876   5.126  14.351 -2.0551 -0.7387  0.5704
 5550TIP3    H238066   5.983   5.019  14.355  0.0871  1.2185 -1.4040
 5551TIP3   OH238067   2.790   1.656  16.327 -0.5889 -0.0837  0.5507
 5551TIP3    H138068   2.711   1.709  16.315 -0.9474 -0.4968  1.0548
 5551TIP3    H238069   2.793   1.600  16.250 -1.6475 -1.1551  1.2663
 5552TIP3   OH238070   3.807   4.712   3.163  0.4068  0.3210  0.2518
 5552TIP3    H138071   3.854   4.710   3.080  1.1177  0.2106  0.6486
 5552TIP3    H238072   3.717   4.686   3.141  0.3471  1.2060 -0.6308
 5553TIP3   OH238073   0.128   3.205  14.704 -0.8318 -0.5639  0.1795
 5553TIP3    H138074   0.195   3.143  14.734  0.3528 -0.1876 -1.4930
 5553TIP3    H238075   0.052   3.188  14.759  0.8960 -0.4320  2.7739
 5554TIP3   OH238076   5.384   1.876   6.266  0.0936 -0.6484 -0.1284
 5554TIP3    H138077   5.290   1.894   6.262 -0.0541 -1.5150 -1.4072
 5554TIP3    H238078   5.391   1.796   6.319  0.3417  0.6003  1.8096
 5555TIP3   OH238079   1.063   3.400  16.957 -0.0251  0.3518 -0.5922
 5555TIP3    H138080   1.118   3.478  16.958 -3.4542  3.1046 -2.4705
 5555TIP3    H238081   1.052   3.378  17.050  0.8556  2.2661  0.0205
 5556TIP3   OH238082   3.792   4.635   4.222 -0.8849 -0.5095 -0.1189
 5556TIP3    H138083   3.833   4.721   4.217 -0.2869 -0.7850 -0.0173
 5556TIP3    H238084   3.785   4.607   4.130 -3.2454  0.6309 -0.3693
 5557TIP3   OH238085   1.286   0.244  10.685 -0.4489 -0.6833 -0.3680
 5557TIP3    H138086   1.255   0.193  10.610 -2.0418 -1.4159  0.7378
 5557TIP3    H238087   1.380   0.228  10.687 -0.5669 -1.6981 -1.4317
 5558TIP3   OH238088   5.152   4.324   3.325 -0.0374  0.1601 -0.1855
 5558TIP3    H138089   5.065   4.361   3.343  0.0587  0.2756  0.0370
 5558TIP3    H238090   5.174   4.357   3.238 -0.7076 -0.7826 -0.7453
 5559TIP3   OH238091   5.599   6.172   1.681 -0.0005  0.4318  0.6160
 5559TIP3    H138092   5.683   6.126   1.673 -0.5964 -0.7554  1.1136
 5559TIP3    H238093   5.534   6.103   1.693 -1.2563  1.2446 -1.0704
 5560TIP3   OH238094   3.118   0.161  11.326  0.1717 -0.2708 -0.0520
 5560TIP3    H138095   3.150   0.199  11.408  0.4625  2.0521 -1.1542
 5560TIP3    H238096   3.111   0.236  11.266 -2.3724 -1.4983 -1.4438
 5561TIP3   OH238097   4.689   1.001   0.030  0.2734  0.1967 -0.3276
 5561TIP3    H138098   4.639   1.019   0.110  0.3431 -0.6538 -0.0886
 5561TIP3    H238099   4.750   1.074   0.023 -1.4934  1.7052 -1.0456
 5562TIP3   OH238100   5.309   3.834   3.480  0.0265 -0.3222 -0.4530
 5562TIP3    H138101   5.378   3.842   3.547  0.7115 -2.5093 -0.8310
 5562TIP3    H238102   5.304   3.921   3.442  0.4401  0.6981  1.6363
 5563TIP3   OH238103   4.926   2.846  13.383 -0.1490 -0.1690  0.0767
 5563TIP3    H138104   4.937   2.751  13.380  0.2398 -0.0957 -1.1858
 5563TIP3    H238105   4.988   2.875  13.451  0.5919 -0.7111 -0.3476
 5564TIP3   OH238106   0.034   3.532   4.153  0.0384 -0.0333  0.4444
 5564TIP3    H138107   0.019   3.592   4.227  0.3871  0.0581  0.4421
 5564TIP3    H238108   0.058   3.590   4.081  0.0979 -0.1550  0.3682
 5565TIP3   OH238109   0.785   5.737  15.037 -0.4726 -0.1201  0.6108
 5565TIP3    H138110   0.699   5.751  14.998 -0.4911 -0.8961  0.3582
 5565TIP3    H238111   0.791   5.642  15.047  0.7103 -0.1369 -0.1732
 5566TIP3   OH238112   3.610   4.215  16.480 -0.0963 -0.0063  0.4470
 5566TIP3    H138113   3.656   4.179  16.404  0.1534  0.0617  0.5643
 5566TIP3    H238114   3.557   4.286  16.444 -1.8413 -1.4922 -0.0427
 5567TIP3   OH238115   0.401   1.976   5.306  0.2414  0.3221  0.3678
 5567TIP3    H138116   0.348   1.897   5.296  1.1112 -0.3049  0.5328
 5567TIP3    H238117   0.470   1.968   5.240  0.7146  0.6167  0.8112
 5568TIP3   OH238118   6.281   1.135   3.694  0.1224  0.1700  0.0174
 5568TIP3    H138119   6.329   1.091   3.765  2.1743  1.2237 -0.6334
 5568TIP3    H238120   6.251   1.218   3.733 -1.0941 -0.4035  0.3669
 5569TIP3   OH238121   2.777   5.887   4.558  0.4676  0.4110 -0.1007
 5569TIP3    H138122   2.855   5.936   4.585 -0.5997  0.3510  3.5505
 5569TIP3    H238123   2.786   5.802   4.600 -0.7008 -0.3107 -1.2258
 5570TIP3   OH238124   6.530   5.170  13.643  0.7631  0.0311 -0.0848
 5570TIP3    H138125   6.488   5.137  13.564  0.7827 -2.5327  0.8750
 5570TIP3    H238126   6.527   5.265  13.634 -3.6662  0.0078 -0.8922
 5571TIP3   OH238127   1.904   6.211  14.231 -0.2894 -0.0796  0.2697
 5571TIP3    H138128   1.812   6.184  14.236 -0.3679 -0.7001 -2.7157
 5571TIP3    H238129   1.929   6.193  14.141  2.2798  1.7254  0.5280
 5572TIP3   OH238130   5.720   3.163  15.033 -0.0980  0.6817  0.4432
 5572TIP3    H138131   5.739   3.253  15.059 -0.7239  0.7368  0.7358
 5572TIP3    H238132   5.704   3.117  15.116 -0.1967  0.4012  0.2718
 5573TIP3   OH238133   3.544   6.324   3.292  0.1625 -0.6110  0.3212
 5573TIP3    H138134   3.448   6.323   3.301  0.1489 -1.2362  0.1462
 5573TIP3    H238135   3.560   6.376   3.213 -0.1131 -1.6432 -0.4386
 5574TIP3   OH238136   6.478   3.397  15.470 -0.4714 -0.1028 -0.5421
 5574TIP3    H138137   6.469   3.319  15.416 -2.3809 -0.4927  0.2531
 5574TIP3    H238138   6.448   3.370  15.557 -0.0226  1.2065  0.0559
 5575TIP3   OH238139   6.662   6.118  14.413 -0.3583 -0.3003 -0.0631
 5575TIP3    H138140   6.603   6.174  14.361  0.3392  1.7255  1.2366
 5575TIP3    H238141   6.681   6.044  14.355 -2.4354  0.0708 -1.3281
 5576TIP3   OH238142   0.768   5.604  11.810 -0.2607  0.7953 -0.1354
 5576TIP3    H138143   0.750   5.533  11.750  0.1622 -0.4082  1.1085
 5576TIP3    H238144   0.861   5.624  11.797  0.1704 -0.3725  1.0216
 5577TIP3   OH238145   1.098   0.311  13.606  0.4208 -0.2051  0.1150
 5577TIP3    H138146   1.174   0.284  13.658  0.7661  2.4945  1.1197
 5577TIP3    H238147   1.134   0.365  13.536 -0.4908  0.4585  0.1346
 5578TIP3   OH238148   1.932   0.594  10.867  0.6501  0.1102  0.0214
 5578TIP3    H138149   1.925   0.690  10.862 -1.7968  0.1008  1.5775
 5578TIP3    H238150   1.941   0.566  10.776 -2.2214  1.6910 -0.8739
 5579TIP3   OH238151   4.907   2.629  11.654  0.9708  0.6798 -0.0939
 5579TIP3    H138152   4.974   2.564  11.632  0.7847  1.1368 -2.1846
 5579TIP3    H238153   4.828   2.599  11.609  0.7217  2.0178 -0.5957
 5580TIP3   OH238154   0.354   6.819  16.465  0.3206 -0.4229 -0.4258
 5580TIP3    H138155   0.308   6.895  16.501 -0.2657 -2.1848  3.0359
 5580TIP3    H238156   0.443   6.849  16.452  0.3077  0.7460  1.6470
 5581TIP3   OH238157   4.183   2.040  11.700  0.0605  0.4657  0.0852
 5581TIP3    H138158   4.222   2.127  11.693  1.1048 -0.0397 -0.5153
 5581TIP3    H238159   4.089   2.056  11.691  0.2141  1.5602  0.2641
 5582TIP3   OH238160   2.397   4.369   5.648 -0.1723 -0.0901  0.6738
 5582TIP3    H138161   2.317   4.397   5.604  0.1881 -0.0873  0.0102
 5582TIP3    H238162   2.434   4.449   5.684 -0.6471 -0.1417  1.2939
 5583TIP3   OH238163   4.831   3.141  13.246 -0.2796  0.1153 -0.0854
 5583TIP3    H138164   4.779   3.208  13.291 -0.0404 -0.0866  0.4979
 5583TIP3    H238165   4.843   3.073  13.311  3.0290  1.3244  0.7340
 5584TIP3   OH238166   0.626   3.412  13.486 -0.3487 -0.8412 -0.5849
 5584TIP3    H138167   0.614   3.469  13.410  0.7084 -1.0101 -0.9028
 5584TIP3    H238168   0.587   3.460  13.559  0.9145  0.5146 -0.7540
 5585TIP3   OH238169   1.906   4.947  15.490 -0.2813 -0.4322 -0.1864
 5585TIP3    H138170   1.918   5.001  15.412 -0.5977  2.2425  1.4943
 5585TIP3    H238171   1.993   4.943  15.530  0.3097 -3.3372 -1.4709
 5586TIP3   OH238172   2.878   4.839  13.911  0.3918 -0.1500 -0.0424
 5586TIP3    H138173   2.886   4.928  13.945 -0.4976 -0.2999  0.6007
 5586TIP3    H238174   2.787   4.815  13.928  0.4969 -1.0206 -0.6218
 5587TIP3   OH238175   5.815   2.678   1.592 -0.4586  0.0520 -0.3422
 5587TIP3    H138176   5.720   2.678   1.580 -0.3632  3.0006 -2.1030
 5587TIP3    H238177   5.828   2.699   1.684 -1.3714 -3.3231  0.7178
 5588TIP3   OH238178   1.060   2.981  15.957  0.0828  0.3709  0.0738
 5588TIP3    H138179   1.074   2.960  15.864  0.1821  0.5184  0.0548
 5588TIP3    H238180   1.145   2.964  15.998 -0.2378 -0.7211  0.3358
 5589TIP3   OH238181   5.821   4.066  15.348 -0.1268  0.0655 -0.2175
 5589TIP3    H138182   5.831   4.139  15.287  0.3853  1.0289  0.9798
 5589TIP3    H238183   5.801   4.107  15.433  2.5135 -0.9882  1.0218
 5590TIP3   OH238184   4.728   1.331   5.984 -0.5176  0.0703 -0.1003
 5590TIP3    H138185   4.682   1.270   5.927  0.5648 -3.3430  2.3080
 5590TIP3    H238186   4.663   1.395   6.010 -2.0629 -0.6874 -1.9461
 5591TIP3   OH238187   5.688   1.885   5.345  0.0333 -0.2495  0.3413
 5591TIP3    H138188   5.677   1.792   5.365  1.7506 -0.1001  2.3492
 5591TIP3    H238189   5.650   1.930   5.421  0.1194  0.6570 -0.1423
 5592TIP3   OH238190   1.304   5.018  15.661 -0.1098  0.6528 -0.5948
 5592TIP3    H138191   1.318   5.066  15.743  0.3462  0.5764 -0.6243
 5592TIP3    H238192   1.373   5.049  15.603 -0.1707  0.3905 -0.8073
 5593TIP3   OH238193   4.177   2.092   2.361 -0.2549 -0.0478  0.2002
 5593TIP3    H138194   4.150   2.124   2.275  0.6775  2.2732  0.6896
 5593TIP3    H238195   4.180   2.170   2.416  0.0478 -1.3349  2.1241
 5594TIP3   OH238196   3.710   1.062  13.853  0.2046 -0.0621  0.5160
 5594TIP3    H138197   3.622   1.032  13.874 -0.2172  0.7616  0.0032
 5594TIP3    H238198   3.749   0.991  13.803 -1.4447  0.8823 -2.3506
 5595TIP3   OH238199   6.639   3.110  14.054 -0.1920  0.1647  0.1160
 5595TIP3    H138200   6.656   3.200  14.027 -3.4128  0.5651 -1.0173
 5595TIP3    H238201   6.557   3.087  14.011  0.7463 -3.5427 -0.0683
 5596TIP3   OH238202   5.456   5.023  12.510  0.7263  0.1419 -0.3666
 5596TIP3    H138203   5.498   5.106  12.534  0.3445  0.4484 -0.7270
 5596TIP3    H238204   5.522   4.978  12.457  0.1713  1.1982 -2.0426
 5597TIP3   OH238205   1.022   1.465  13.302  0.1649  0.2806  0.1077
 5597TIP3    H138206   0.986   1.377  13.297  1.5300 -0.3349  0.7212
 5597TIP3    H238207   0.961   1.519  13.252  0.0324 -1.2340 -1.4460
 5598TIP3   OH238208   6.701   2.142  13.600  0.5504  0.1823 -0.3615
 5598TIP3    H138209   6.718   2.236  13.607  1.8871 -0.1573  2.4775
 5598TIP3    H238210   6.788   2.101  13.599 -0.0028 -1.0475 -1.5822
 5599TIP3   OH238211   0.604   0.966   0.463 -0.2045  0.3283  0.4363
 5599TIP3    H138212   0.670   0.973   0.395 -0.8774  0.0252 -0.2671
 5599TIP3    H238213   0.631   0.892   0.516  0.2698  0.5006  0.4348
 5600TIP3   OH238214   6.253   4.961   0.921 -0.5340 -0.3724  0.1034
 5600TIP3    H138215   6.301   4.879   0.909 -1.3600 -0.9877  0.8666
 5600TIP3    H238216   6.313   5.018   0.968 -0.6094 -1.2210  1.2638
 5601TIP3   OH238217   1.090   6.404  11.185  0.0829  0.0570  0.6109
 5601TIP3    H138218   1.148   6.461  11.236 -1.8855  1.5154  1.3868
 5601TIP3    H238219   1.010   6.455  11.176 -0.9821 -1.7381 -0.6646
 5602TIP3   OH238220   2.680   5.282  13.976  0.0283  0.1450  0.1344
 5602TIP3    H138221   2.677   5.338  13.899 -2.4717 -0.7678 -0.5276
 5602TIP3    H238222   2.600   5.230  13.971  0.0195 -0.2965  3.0817
 5603TIP3   OH238223   2.767   1.042  15.747 -0.1634  0.0993  0.2619
 5603TIP3    H138224   2.831   1.080  15.687 -0.7574 -0.5218 -0.7984
 5603TIP3    H238225   2.682   1.062  15.708 -0.5328 -1.1083  0.3895
 5604TIP3   OH238226   5.702   5.906  12.374 -0.3337  0.2368  0.3292
 5604TIP3    H138227   5.778   5.907  12.316  0.5756  1.0845  1.4951
 5604TIP3    H238228   5.635   5.955  12.327 -0.3387 -0.8703 -0.8945
 5605TIP3   OH238229   4.932   6.014   1.052 -0.2002 -0.3675 -0.1134
 5605TIP3    H138230   4.996   5.975   0.992 -1.2027 -0.2373 -1.3165
 5605TIP3    H238231   4.972   6.006   1.138  1.4325 -0.2955 -0.8172
 5606TIP3   OH238232   2.447   1.674   0.684 -0.1322 -0.3287  0.0689
 5606TIP3    H138233   2.534   1.633   0.686 -0.1617 -0.5396 -1.6373
 5606TIP3    H238234   2.392   1.616   0.738 -0.0576 -2.3507 -1.8612
 5607TIP3   OH238235   1.303   6.745   3.779  0.6541  0.2798 -0.3929
 5607TIP3    H138236   1.397   6.728   3.774  0.8317  1.4205 -1.1661
 5607TIP3    H238237   1.296   6.837   3.803 -0.2908 -0.1963  1.3561
 5608TIP3   OH238238   6.654   2.935   3.826  0.2278 -0.1564 -0.2933
 5608TIP3    H138239   6.729   2.963   3.773  1.2553  0.7660  1.5403
 5608TIP3    H238240   6.691   2.918   3.913 -1.9099  2.1723  1.2285
 5609TIP3   OH238241   0.431   2.824  16.452  0.6267  0.3123  0.1112
 5609TIP3    H138242   0.438   2.776  16.535  2.6121  0.1796 -0.0696
 5609TIP3    H238243   0.461   2.912  16.473 -0.3352  0.7034 -0.1498
 5610TIP3   OH238244   4.442   3.499  12.811 -0.0349  0.0715  0.2926
 5610TIP3    H138245   4.503   3.456  12.751 -0.4160  0.2264 -0.2173
 5610TIP3    H238246   4.489   3.504  12.894  0.3932 -0.4104  0.0849
 5611TIP3   OH238247   5.359   2.391  16.143 -0.4406 -0.5246 -0.1941
 5611TIP3    H138248   5.343   2.406  16.050 -0.0008 -0.2622 -0.2314
 5611TIP3    H238249   5.328   2.302  16.159  1.4885 -1.4292 -1.1000
 5612TIP3   OH238250   5.279   5.246   4.912  0.3344 -0.5237 -0.0216
 5612TIP3    H138251   5.325   5.305   4.972 -1.9105  0.4592  0.8478
 5612TIP3    H238252   5.264   5.299   4.833 -0.2219 -0.4793  0.1115
 5613TIP3   OH238253   4.155   2.607  15.958  0.0217 -0.5013 -0.4503
 5613TIP3    H138254   4.206   2.646  16.029 -0.2827  0.3298 -0.6719
 5613TIP3    H238255   4.109   2.533  15.998  1.0995 -1.0290 -0.1648
 5614TIP3   OH238256   0.054   2.620   6.053  0.5099  0.2925  0.0565
 5614TIP3    H138257  -0.010   2.680   6.090  0.2749  0.3837 -0.4924
 5614TIP3    H238258   0.135   2.639   6.101  0.2390  0.4797  0.4457
 5615TIP3   OH238259   3.021   0.347   5.765  0.6249  0.2791  0.0304
 5615TIP3    H138260   2.972   0.378   5.842  0.6544 -1.0689  0.6233
 5615TIP3    H238261   3.112   0.363   5.786  0.5347  1.6476 -0.5457
 5616TIP3   OH238262   5.499   0.522  11.164  0.5781  0.4196 -0.0302
 5616TIP3    H138263   5.448   0.445  11.188 -0.5175  0.4899 -1.9737
 5616TIP3    H238264   5.506   0.519  11.069  1.4516  2.1436 -0.0768
 5617TIP3   OH238265   2.817   0.077  13.830 -0.0341 -0.4629  0.6477
 5617TIP3    H138266   2.824   0.172  13.832  1.4731 -0.5099 -0.4682
 5617TIP3    H238267   2.747   0.057  13.892 -0.6738  1.3845  0.5927
 5618TIP3   OH238268   3.677   1.783  15.766 -0.7079  0.5186  0.3176
 5618TIP3    H138269   3.731   1.707  15.749 -0.8252  0.3934  0.4977
 5618TIP3    H238270   3.735   1.858  15.753 -0.7737  0.4251 -0.5459
 5619TIP3   OH238271   2.669   0.988   2.124  0.0121 -0.9934 -0.3352
 5619TIP3    H138272   2.715   0.905   2.112 -2.4453 -2.3496 -0.9900
 5619TIP3    H238273   2.652   1.020   2.036  1.2793  0.4854 -0.0944
 5620TIP3   OH238274   1.640   0.976   5.603  0.5361 -0.1910  0.0463
 5620TIP3    H138275   1.626   0.892   5.646  2.6403 -0.1907  0.8301
 5620TIP3    H238276   1.593   1.039   5.659  0.3434 -0.6285  0.3887
 5621TIP3   OH238277   1.146   6.741   3.532 -0.3838  0.3287  0.8468
 5621TIP3    H138278   1.176   6.711   3.618 -2.1615 -1.1438  0.9949
 5621TIP3    H238279   1.188   6.827   3.521  1.3016 -0.2370  2.3780
 5622TIP3   OH238280   1.912   6.787   5.487 -0.2848  0.1729  0.6605
 5622TIP3    H138281   2.001   6.768   5.515  0.7664  2.7702 -0.5485
 5622TIP3    H238282   1.918   6.799   5.393 -2.3977 -1.6936  0.1965
 5623TIP3   OH238283   1.221   4.970  11.032 -0.6624  0.5368  0.5061
 5623TIP3    H138284   1.213   5.045  10.973 -0.9474 -0.4025 -0.6690
 5623TIP3    H238285   1.135   4.963  11.073 -0.8797  0.3586  0.0185
 5624TIP3   OH238286   1.573   6.548  16.731 -0.1994 -0.1973  0.4393
 5624TIP3    H138287   1.520   6.506  16.662  1.0088 -2.5341  0.8434
 5624TIP3    H238288   1.573   6.485  16.803  0.5324  1.1586  1.6844
 5625TIP3   OH238289   4.809   4.019  16.995 -0.6412  0.7333  0.4909
 5625TIP3    H138290   4.859   3.988  17.071  0.7260  0.9143 -0.2981
 5625TIP3    H238291   4.820   4.114  16.997 -1.7680  0.8696  0.8332
 5626TIP3   OH238292   3.361   1.180   0.424  0.0130  0.4029 -0.2490
 5626TIP3    H138293   3.438   1.130   0.397 -0.2049  0.9041 -1.9009
 5626TIP3    H238294   3.316   1.201   0.343 -0.3991  2.4910  0.4406
 5627TIP3   OH238295   1.249   4.068   3.075  0.7724 -0.5345  0.2302
 5627TIP3    H138296   1.235   3.990   3.020 -1.3277 -0.5836  0.7478
 5627TIP3    H238297   1.264   4.032   3.162 -1.0367 -0.3953  0.6347
 5628TIP3   OH238298   5.523   1.462  13.904 -0.0609  0.2137  0.0899
 5628TIP3    H138299   5.544   1.414  13.985  1.1937  1.4222  0.5147
 5628TIP3    H238300   5.433   1.491  13.916 -0.2374 -0.5207  0.5962
 5629TIP3   OH238301   0.053   3.377   2.697 -0.7088 -0.0834  0.6765
 5629TIP3    H138302   0.104   3.323   2.636 -0.9575  0.7236 -0.2821
 5629TIP3    H238303  -0.038   3.356   2.675 -0.8063  0.7447  0.2698
 5630TIP3   OH238304   0.592   1.245  16.435 -0.1279 -0.1489  0.5965
 5630TIP3    H138305   0.613   1.271  16.525  0.5626 -1.4527  0.8511
 5630TIP3    H238306   0.653   1.295  16.381  0.0471  0.0001  0.9300
 5631TIP3   OH238307   3.309   1.017  10.932  0.3879 -0.8236 -0.0948
 5631TIP3    H138308   3.310   1.068  10.851  0.0917 -1.6830 -0.6470
 5631TIP3    H238309   3.297   1.082  11.001 -1.7368 -0.2911 -0.8987
 5632TIP3   OH238310   5.914   0.525  15.529 -0.3959  0.3270 -0.5735
 5632TIP3    H138311   5.950   0.606  15.494  1.9710 -0.1084  0.6946
 5632TIP3    H238312   5.878   0.550  15.615  0.5577  0.0262 -0.0728
 5633TIP3   OH238313   3.210   3.876   3.361  0.4470  0.2591  0.2759
 5633TIP3    H138314   3.260   3.801   3.327  1.3259  1.0930 -0.2938
 5633TIP3    H238315   3.221   3.944   3.295  0.3495  1.1802  1.1920
 5634TIP3   OH238316   3.229   2.745   0.728  0.1423 -0.4843  0.1870
 5634TIP3    H138317   3.246   2.673   0.668  1.7461  1.2143 -1.5639
 5634TIP3    H238318   3.179   2.808   0.677  0.0624  0.2888  1.1745
 5635TIP3   OH238319   6.045   2.824  15.944  0.2201 -0.0177  0.5622
 5635TIP3    H138320   6.058   2.822  16.039 -2.8453  0.5725  1.0919
 5635TIP3    H238321   6.006   2.739  15.923 -1.2226  0.7052  0.2340
 5636TIP3   OH238322   6.066   1.183   2.629  0.3086  0.4540 -0.4959
 5636TIP3    H138323   6.132   1.129   2.673  0.2042 -0.3470 -1.2982
 5636TIP3    H238324   6.068   1.154   2.538 -1.3071  0.2685 -0.4975
 5637TIP3   OH238325   1.407   0.398   1.670 -0.1542  0.8000 -0.2918
 5637TIP3    H138326   1.435   0.397   1.761 -0.6858 -0.6425 -0.1135
 5637TIP3    H238327   1.311   0.400   1.675 -0.2122 -0.3716 -0.7999
 5638TIP3   OH238328   0.734   5.629  13.439 -0.3100 -0.0263 -0.0722
 5638TIP3    H138329   0.793   5.703  13.424 -0.2626  0.8116  3.3651
 5638TIP3    H238330   0.778   5.577  13.506 -2.3137 -0.7729  0.7176
 5639TIP3   OH238331   2.238   1.941  12.434  0.4732  0.8706  0.4492
 5639TIP3    H138332   2.271   2.028  12.410  0.6783  0.8560  0.6734
 5639TIP3    H238333   2.177   1.958  12.507 -0.3752  0.9461 -0.2659
 5640TIP3   OH238334   5.552   1.020  10.430  0.1742  0.1447  0.1343
 5640TIP3    H138335   5.601   0.975  10.361  1.0673  1.0642  0.1497
 5640TIP3    H238336   5.562   1.113  10.410 -1.2500  0.3775  0.3711
 5641TIP3   OH238337   0.894   4.909   0.910  0.3222 -0.0711  0.1791
 5641TIP3    H138338   0.922   4.857   0.986  0.6741  0.4083  0.3791
 5641TIP3    H238339   0.946   4.873   0.837 -1.1129 -1.5662 -0.1644
 5642TIP3   OH238340   0.923   6.714   6.155  0.4010 -0.2389  0.0609
 5642TIP3    H138341   0.943   6.751   6.240 -0.6172 -0.4398  0.3991
 5642TIP3    H238342   0.870   6.636   6.174  0.6229 -0.5925 -0.7257
 5643TIP3   OH238343   3.733   3.558   0.832 -0.1866 -0.1657  0.9051
 5643TIP3    H138344   3.747   3.596   0.919  0.1519 -0.5246  1.0130
 5643TIP3    H238345   3.805   3.593   0.779 -1.0495  0.9684  0.4579
 5644TIP3   OH238346   5.064   4.915  12.328  0.5420 -0.7158  0.1501
 5644TIP3    H138347   5.124   4.841  12.333  1.3035 -0.0692  0.7279
 5644TIP3    H238348   5.107   4.978  12.272  1.3260  0.5505  2.0852
 5645TIP3   OH238349   2.437   3.596   1.077 -0.7392 -0.2340 -0.0979
 5645TIP3    H138350   2.449   3.679   1.122 -0.7601  0.4341 -1.2748
 5645TIP3    H238351   2.459   3.530   1.142  1.3215  0.7348  0.2678
 5646TIP3   OH238352   1.429   0.570   4.198  0.0550  0.5252 -0.7073
 5646TIP3    H138353   1.491   0.639   4.222 -1.4604  1.5607  0.4076
 5646TIP3    H238354   1.415   0.521   4.280 -1.3070  0.9094 -0.6914
 5647TIP3   OH238355   5.797   4.686  12.360  0.0393 -0.3218 -0.5599
 5647TIP3    H138356   5.736   4.628  12.314 -0.7608 -1.1525  1.4155
 5647TIP3    H238357   5.741   4.745  12.410  0.8196 -0.6531  0.7663
 5648TIP3   OH238358   1.920   1.913   4.175  0.0431 -0.6773 -0.0488
 5648TIP3    H138359   1.825   1.900   4.172  0.2648 -2.1539 -2.0034
 5648TIP3    H238360   1.943   1.893   4.266 -1.5072 -0.0986  0.5176
 5649TIP3   OH238361   2.302   2.092   2.207  0.4403  0.2067  0.0347
 5649TIP3    H138362   2.206   2.101   2.207  0.4732  0.8662 -1.3334
 5649TIP3    H238363   2.319   2.020   2.146  0.8095  0.0175  0.3592
 5650TIP3   OH238364   5.348   2.173  14.604  0.8572  0.2492  0.2323
 5650TIP3    H138365   5.299   2.196  14.525  1.1575 -0.5406 -0.1926
 5650TIP3    H238366   5.392   2.255  14.629 -0.6237  0.9594  0.6017
 5651TIP3   OH238367   4.617   2.248  14.970  0.2941 -0.3802  0.2879
 5651TIP3    H138368   4.676   2.318  14.997 -0.7144  0.6547 -0.1135
 5651TIP3    H238369   4.662   2.206  14.897  0.4056  0.5898 -0.2177
 5652TIP3   OH238370   3.521   4.806  11.930 -0.5560 -0.1299  0.3880
 5652TIP3    H138371   3.491   4.884  11.883 -1.5102 -0.5351  0.3074
 5652TIP3    H238372   3.495   4.733  11.875 -0.3292 -0.5473  0.8252
 5653TIP3   OH238373   2.239   6.462   5.328  0.5040 -0.3568  0.4045
 5653TIP3    H138374   2.177   6.521   5.372 -0.0792 -0.3019 -0.4507
 5653TIP3    H238375   2.240   6.383   5.382 -1.3673 -0.8870 -0.2241
 5654TIP3   OH238376   1.136   1.229  16.868  0.5467 -0.0338  0.2773
 5654TIP3    H138377   1.139   1.172  16.944 -0.2309 -0.6201 -0.1140
 5654TIP3    H238378   1.158   1.172  16.794 -2.5402 -0.4586 -0.4328
 5655TIP3   OH238379   3.564   4.492  15.126 -0.3949 -0.8934  0.5990
 5655TIP3    H138380   3.501   4.481  15.056 -0.7755  2.2643  0.3237
 5655TIP3    H238381   3.550   4.416  15.183 -2.1465 -1.9606 -1.1478
 5656TIP3   OH238382   5.852   3.229  16.974  0.2381 -0.1804 -0.0592
 5656TIP3    H138383   5.897   3.302  16.931 -1.1575  1.1203  0.5994
 5656TIP3    H238384   5.920   3.162  16.985  1.3835  0.7305 -1.3151
 5657TIP3   OH238385   3.825   4.787  15.922 -0.3185  0.3367 -0.4778
 5657TIP3    H138386   3.880   4.744  15.987 -0.9031 -1.5739 -1.1762
 5657TIP3    H238387   3.862   4.760  15.838 -1.0454  0.7465 -0.9366
 5658TIP3   OH238388   1.385   0.317   0.938 -0.0661 -0.7441 -0.1173
 5658TIP3    H138389   1.361   0.278   0.854  0.8661 -3.6270  0.8426
 5658TIP3    H238390   1.309   0.303   0.994 -0.3002  0.2696 -0.1524
 5659TIP3   OH238391   1.676   4.233   3.858 -0.2541 -0.3181  0.0227
 5659TIP3    H138392   1.688   4.139   3.856  0.3174 -0.2572 -1.8361
 5659TIP3    H238393   1.730   4.264   3.930 -0.7764 -1.4307  0.9113
 5660TIP3   OH238394   1.902   1.339  12.463 -0.5738 -0.4385  0.9645
 5660TIP3    H138395   1.807   1.323  12.469 -1.2114  0.0083 -4.0864
 5660TIP3    H238396   1.912   1.431  12.484 -1.5460 -0.0985  0.0390
 5661TIP3   OH238397   1.523   6.001  10.872 -0.3121  0.4850 -0.0187
 5661TIP3    H138398   1.473   5.938  10.924 -3.0491  2.2658 -0.2181
 5661TIP3    H238399   1.596   5.952  10.836 -0.6531 -1.7974  2.1630
 5662TIP3   OH238400   2.504   4.294   5.900 -0.2172  0.1191 -0.0784
 5662TIP3    H138401   2.561   4.368   5.920 -0.7152  0.9568 -1.5700
 5662TIP3    H238402   2.447   4.326   5.830  0.9040 -2.2871 -2.2728
 5663TIP3   OH238403   2.687   1.681   3.778  0.2193 -0.9469  0.9258
 5663TIP3    H138404   2.732   1.764   3.795  0.2722 -0.6217 -0.6474
 5663TIP3    H238405   2.657   1.689   3.687 -0.3786 -2.3791  0.9815
 5664TIP3   OH238406   2.005   4.260  16.927 -0.0122 -0.1519 -0.0563
 5664TIP3    H138407   2.035   4.216  16.847 -0.0885  0.4174 -0.4063
 5664TIP3    H238408   2.062   4.337  16.935 -0.3005  0.0408  0.1823
 5665TIP3   OH238409   4.019   2.038   5.401 -0.4856  0.1054  0.5412
 5665TIP3    H138410   4.014   2.078   5.487  0.4622  1.6978 -0.0998
 5665TIP3    H238411   4.043   1.947   5.417  0.1830  0.5138  1.9213
 5666TIP3   OH238412   6.696   5.565   4.834 -0.3311 -0.2176 -0.0960
 5666TIP3    H138413   6.735   5.521   4.910 -0.4578  1.0594  0.7259
 5666TIP3    H238414   6.605   5.578   4.858 -0.6258 -0.6942 -0.8943
 5667TIP3   OH238415   6.452   2.542  15.015  0.1014 -0.1715 -0.1622
 5667TIP3    H138416   6.453   2.448  14.998 -1.7506  0.0336 -1.8386
 5667TIP3    H238417   6.447   2.581  14.928  0.4169  1.4646  0.5272
 5668TIP3   OH238418   3.529   2.172  11.397 -0.0662 -0.3550 -0.1305
 5668TIP3    H138419   3.497   2.222  11.472  1.6706 -1.0240  1.1230
 5668TIP3    H238420   3.621   2.198  11.389  0.5932 -2.5015 -0.1065
 5669TIP3   OH238421   1.195   0.546   1.859  0.0865  0.2634  0.1421
 5669TIP3    H138422   1.286   0.567   1.882  0.1550  1.1941 -0.9278
 5669TIP3    H238423   1.143   0.600   1.919  0.2372  0.1598  0.3690
 5670TIP3   OH238424   4.159   0.199  13.848  0.1562 -0.1175  0.0582
 5670TIP3    H138425   4.099   0.271  13.828 -0.1814 -0.6579 -0.9102
 5670TIP3    H238426   4.126   0.125  13.799  0.9154 -0.7595  0.4849
 5671TIP3   OH238427   4.431   1.890   1.307  0.3458  0.0450  0.0912
 5671TIP3    H138428   4.341   1.864   1.291  0.8323 -2.6976  1.2034
 5671TIP3    H238429   4.441   1.885   1.402  1.7317  0.0023 -0.0326
 5672TIP3   OH238430   2.930   1.227   2.711  0.0177  0.3460  0.0025
 5672TIP3    H138431   3.013   1.262   2.742 -1.0684  3.0527  0.1212
 5672TIP3    H238432   2.874   1.225   2.789 -0.5717  0.3484 -0.4132
 5673TIP3   OH238433   5.435   0.222   3.122 -0.0832  0.0563 -0.5795
 5673TIP3    H138434   5.378   0.298   3.110 -0.6290 -0.4403 -1.1446
 5673TIP3    H238435   5.511   0.257   3.169 -0.4479  0.8982 -0.6020
 5674TIP3   OH238436   3.046   6.111   2.955  0.7766 -0.4410 -0.0194
 5674TIP3    H138437   3.041   6.041   2.890  1.2260 -0.0707 -0.4624
 5674TIP3    H238438   3.119   6.166   2.926  0.1847  0.4415  0.0921
 5675TIP3   OH238439   0.493   2.325   2.914  0.5854 -0.2584 -0.5596
 5675TIP3    H138440   0.568   2.312   2.972 -0.0137 -0.8697  0.1079
 5675TIP3    H238441   0.505   2.412   2.877  1.2530 -0.0700  0.0846
 5676TIP3   OH238442   4.378   2.272  14.834 -0.0306 -0.0411 -0.7057
 5676TIP3    H138443   4.463   2.281  14.877 -0.6121  0.7992  0.3169
 5676TIP3    H238444   4.336   2.198  14.877 -0.3323  0.3605 -0.3026
 5677TIP3   OH238445   5.472   0.201  12.878  0.2512 -0.3114 -0.1327
 5677TIP3    H138446   5.540   0.156  12.928  0.1054  1.5732  1.9395
 5677TIP3    H238447   5.475   0.291  12.910 -3.4534 -0.2228  0.4234
 5678TIP3   OH238448   2.454   2.382  12.249 -0.0373 -0.3013  0.0694
 5678TIP3    H138449   2.526   2.338  12.203  0.5578 -0.8787  1.5050
 5678TIP3    H238450   2.434   2.458  12.194  1.0659 -0.6189 -0.8162
 5679TIP3   OH238451   2.512   4.833   3.097 -0.1822 -0.0718  0.1136
 5679TIP3    H138452   2.555   4.783   3.027 -1.1925  0.7732 -1.1500
 5679TIP3    H238453   2.419   4.820   3.082 -0.4231 -0.0704  1.4781
 5680TIP3   OH238454   6.520   0.283   1.648  0.1649  0.1082  0.6266
 5680TIP3    H138455   6.459   0.253   1.580 -0.8897 -2.1235  2.4134
 5680TIP3    H238456   6.469   0.346   1.699  0.7307  1.2799 -0.2429
 5681TIP3   OH238457   2.778   6.481   4.587 -0.4047  0.2162 -0.2213
 5681TIP3    H138458   2.858   6.429   4.597  0.0951  1.3034  2.0655
 5681TIP3    H238459   2.806   6.571   4.602 -2.0629  0.5969  0.8163
 5682TIP3   OH238460   5.392   4.037  13.045  0.3580  0.6053  0.0239
 5682TIP3    H138461   5.413   3.945  13.060  0.4750  0.4712 -0.9096
 5682TIP3    H238462   5.300   4.037  13.018  0.3058  0.7857  0.1915
 5683TIP3   OH238463   1.857   0.076   1.353 -0.2020 -0.0820 -0.7163
 5683TIP3    H138464   1.910   0.130   1.412  3.2130 -0.9667 -2.7069
 5683TIP3    H238465   1.810   0.139   1.298 -2.0177  0.7305  1.5476
 5684TIP3   OH238466   3.777   4.642  15.012  0.1677  0.2801  0.2153
 5684TIP3    H138467   3.807   4.578  14.947  0.1009  0.5138 -0.0467
 5684TIP3    H238468   3.701   4.600  15.053  0.9521 -0.4001  1.0201
 5685TIP3   OH238469   5.318   3.443   5.209  0.2567  0.6939  0.3466
 5685TIP3    H138470   5.250   3.504   5.238 -0.0176  0.5824 -0.0464
 5685TIP3    H238471   5.385   3.499   5.170 -0.4218  0.7019 -0.8705
 5686TIP3   OH238472   1.222   0.711  14.418  0.1321 -1.1369 -0.6162
 5686TIP3    H138473   1.257   0.797  14.440  2.1747 -1.4336 -2.3370
 5686TIP3    H238474   1.260   0.652  14.483  0.5980 -1.0469 -0.8007
 5687TIP3   OH238475   3.156   3.604   6.464 -0.2686  0.2188  0.2761
 5687TIP3    H138476   3.103   3.573   6.390 -0.7533  0.2905  0.5942
 5687TIP3    H238477   3.111   3.570   6.541 -0.3126  0.9811  0.5872
 5688TIP3   OH238478   2.803   0.732  10.444  0.3207  0.1438 -0.0469
 5688TIP3    H138479   2.792   0.677  10.522  0.4467  0.6359  0.3220
 5688TIP3    H238480   2.886   0.703  10.406  0.4854  0.2124  0.2572
 5689TIP3   OH238481   1.987   6.378  14.623  0.3295  0.2858 -0.0498
 5689TIP3    H138482   2.060   6.437  14.605  0.1802  0.8502  1.0706
 5689TIP3    H238483   1.921   6.433  14.665 -0.8095 -0.1891 -1.1532
 5690TIP3   OH238484   2.227   0.968   0.689  0.5898  0.1738  0.5944
 5690TIP3    H138485   2.300   1.027   0.708  0.7588  0.4070 -0.6892
 5690TIP3    H238486   2.161   0.988   0.756  1.2117  0.8083  1.0262
 5691TIP3   OH238487   3.142   4.279   2.843  0.0670  0.3675  0.2887
 5691TIP3    H138488   3.220   4.294   2.898 -0.2825 -0.3964  1.0193
 5691TIP3    H238489   3.115   4.190   2.865 -1.2292  0.7556  0.3063
 5692TIP3   OH238490   3.730   1.343   3.281  0.2426  0.0773  0.1330
 5692TIP3    H138491   3.682   1.408   3.331  0.6507  1.0860 -0.7486
 5692TIP3    H238492   3.663   1.299   3.228 -0.2486 -1.2550  1.7688
 5693TIP3   OH238493   0.463   6.140  14.708  0.3046  0.3556 -0.5102
 5693TIP3    H138494   0.548   6.139  14.664  0.3349 -0.3225 -0.4459
 5693TIP3    H238495   0.401   6.167  14.640  0.3863 -0.4335 -0.9058
 5694TIP3   OH238496   5.659   1.402  14.405  0.2389 -0.2994  0.0305
 5694TIP3    H138497   5.647   1.496  14.422  0.8092 -0.5468  2.0152
 5694TIP3    H238498   5.636   1.392  14.312 -2.0230  1.3988  0.3274
 5695TIP3   OH238499   6.740   2.146   1.260  0.4377 -0.2490 -0.2464
 5695TIP3    H138500   6.730   2.052   1.245  0.1664 -0.0404 -1.4154
 5695TIP3    H238501   6.655   2.184   1.236  0.0018  0.1493  1.7044
 5696TIP3   OH238502   4.456   2.831   0.393 -0.4269 -0.0898  0.1368
 5696TIP3    H138503   4.387   2.767   0.406 -0.3772 -0.1019  0.3454
 5696TIP3    H238504   4.500   2.837   0.478 -0.9162  0.7983  0.3423
 5697TIP3   OH238505   4.379   0.269  14.385 -0.1585 -0.5237  0.5766
 5697TIP3    H138506   4.467   0.238  14.361 -0.7101 -0.0852 -2.4036
 5697TIP3    H238507   4.392   0.313  14.470  2.6435  0.0995 -0.0614
 5698TIP3   OH238508   0.403   0.069  13.743 -0.0114 -0.0952  0.1490
 5698TIP3    H138509   0.416   0.106  13.655 -1.9327  0.4560  0.0339
 5698TIP3    H238510   0.321   0.020  13.735 -1.1662  1.3894  2.0178
 5699TIP3   OH238511   5.149   2.391   3.950  0.1036  0.1085  0.1817
 5699TIP3    H138512   5.057   2.412   3.966  0.0664  0.4403 -0.4315
 5699TIP3    H238513   5.185   2.374   4.037 -0.3344  0.8078  0.5157
 5700TIP3   OH238514   2.694   4.521  11.624  0.1733 -0.8261  0.0839
 5700TIP3    H138515   2.654   4.486  11.704  0.7077  0.0606  0.7624
 5700TIP3    H238516   2.630   4.503  11.555 -1.9717  1.4689  1.2913
 5701TIP3   OH238517   0.403   5.738   3.885 -0.2292 -0.5673 -0.2952
 5701TIP3    H138518   0.340   5.807   3.904  0.6003  0.4829 -1.2174
 5701TIP3    H238519   0.381   5.709   3.797 -0.2598 -1.1452 -0.1004
 5702TIP3   OH238520   1.917   0.704   4.727 -0.2582 -0.3445 -0.9012
 5702TIP3    H138521   1.822   0.694   4.729 -0.1622 -1.5655 -1.6327
 5702TIP3    H238522   1.938   0.719   4.635  0.2630 -0.0277 -0.7360
 5703TIP3   OH238523   5.612   1.050   2.896 -0.2205 -0.0027 -0.1237
 5703TIP3    H138524   5.704   1.060   2.872 -0.0827  0.6376  0.6139
 5703TIP3    H238525   5.567   1.033   2.813  0.5260 -0.0705 -0.5249
 5704TIP3   OH238526   1.502   2.242   2.112 -0.2999  0.2010 -0.4258
 5704TIP3    H138527   1.409   2.262   2.121 -0.6495 -1.8735  1.6064
 5704TIP3    H238528   1.542   2.286   2.187  0.0650 -0.3674 -0.2842
 5705TIP3   OH238529   3.270   3.323   1.051  0.0020 -0.0783  0.5692
 5705TIP3    H138530   3.336   3.371   1.001  0.0359 -2.9775 -2.5763
 5705TIP3    H238531   3.312   3.304   1.135  1.0459  2.6351  0.7558
 5706TIP3   OH238532   2.477   1.602  15.269 -0.2447  0.0572 -0.5559
 5706TIP3    H138533   2.564   1.625  15.302  0.3779 -1.1997 -1.2423
 5706TIP3    H238534   2.461   1.666  15.199  1.7986 -1.8575 -2.9845
 5707TIP3   OH238535   0.618   5.991   5.206  0.6259  0.2962 -0.4880
 5707TIP3    H138536   0.594   6.023   5.293  2.1098  0.4648 -0.1175
 5707TIP3    H238537   0.581   5.903   5.202  0.8001  0.1755  0.4205
 5708TIP3   OH238538   3.238   0.252   2.655  0.4552 -0.3961  0.2307
 5708TIP3    H138539   3.221   0.346   2.657 -1.7311 -0.5975 -2.4317
 5708TIP3    H238540   3.228   0.223   2.746 -3.0587  1.3829  0.5968
 5709TIP3   OH238541   0.395   3.781   5.377  0.4910 -0.0136 -0.2349
 5709TIP3    H138542   0.453   3.707   5.395 -0.2761 -0.8474 -1.0727
 5709TIP3    H238543   0.401   3.794   5.283  0.2102  0.6540 -0.1654
 5710TIP3   OH238544   4.965   3.711  12.010  0.1135 -0.4031  0.3066
 5710TIP3    H138545   4.977   3.689  11.917  1.9724  0.1653  0.3691
 5710TIP3    H238546   4.975   3.806  12.014  2.2420 -0.6055  1.3243
 5711TIP3   OH238547   3.780   1.200  14.750  0.2993  0.0967 -0.1025
 5711TIP3    H138548   3.854   1.231  14.698  0.7426  0.4688  0.7202
 5711TIP3    H238549   3.708   1.192  14.687  0.8935  0.2403 -0.8192
 5712TIP3   OH238550   5.513   0.923   5.086  0.0993  0.1773  0.0573
 5712TIP3    H138551   5.519   1.017   5.101 -3.5695  0.5667  0.0739
 5712TIP3    H238552   5.498   0.885   5.173 -1.9960  0.1078 -0.2731
 5713TIP3   OH238553   1.443   4.922   1.254  0.0560  0.1430  0.0378
 5713TIP3    H138554   1.524   4.932   1.303 -0.5779 -0.3133  1.2198
 5713TIP3    H238555   1.469   4.932   1.162  1.6241 -1.0255  0.3124
 5714TIP3   OH238556   3.283   5.465  16.559 -0.7778  0.2326  0.4195
 5714TIP3    H138557   3.345   5.468  16.486 -1.3343  0.6841 -0.0515
 5714TIP3    H238558   3.293   5.550  16.602 -2.0026  0.8770 -0.4808
 5715TIP3   OH238559   4.717   3.839   0.569  0.0898  0.1123 -0.2621
 5715TIP3    H138560   4.758   3.903   0.511  0.1057  1.7662  1.4694
 5715TIP3    H238561   4.714   3.758   0.517 -0.0138  1.5034 -2.5659
 5716TIP3   OH238562   4.957   2.438  12.335  0.4748 -0.9926  0.2947
 5716TIP3    H138563   4.912   2.521  12.346  0.3224 -0.8778 -1.0849
 5716TIP3    H238564   5.029   2.457  12.275  1.7232 -1.4171  1.5746
 5717TIP3   OH238565   6.094   3.774   4.025 -0.2361 -0.2933  0.0900
 5717TIP3    H138566   6.015   3.825   4.040 -0.4691 -0.3561 -0.8680
 5717TIP3    H238567   6.080   3.693   4.074 -0.5618 -0.1053  0.3093
 5718TIP3   OH238568   1.449   0.904   4.249  0.0316 -0.0544 -0.6207
 5718TIP3    H138569   1.510   0.955   4.302  1.0031  0.5865 -2.2713
 5718TIP3    H238570   1.503   0.869   4.178 -1.4919  0.4115 -2.0612
 5719TIP3   OH238571   5.521   0.464  14.116  0.9730  0.2766  0.2278
 5719TIP3    H138572   5.435   0.501  14.136  1.8876  1.6905  1.8764
 5719TIP3    H238573   5.562   0.451  14.202  2.0994 -1.1822 -0.4843
 5720TIP3   OH238574   6.652   0.150   1.849 -0.2450  0.1052 -0.2232
 5720TIP3    H138575   6.613   0.218   1.903 -0.8934 -0.6346  0.2699
 5720TIP3    H238576   6.601   0.151   1.768 -1.3143 -0.8319  0.4042
 5721TIP3   OH238577   1.063   5.546   2.423  0.1728  0.0827 -0.4582
 5721TIP3    H138578   1.058   5.478   2.490  0.7106 -0.0384 -0.5434
 5721TIP3    H238579   1.091   5.625   2.469 -1.2179  0.4633 -0.2075
 5722TIP3   OH238580   4.327   5.004  12.777 -0.6797  0.0967  0.3114
 5722TIP3    H138581   4.323   4.950  12.856  0.0785 -1.1118 -0.4408
 5722TIP3    H238582   4.420   5.010  12.756 -0.9574 -1.3220 -1.6029
 5723TIP3   OH238583   0.886   0.532  16.275  0.0906 -0.1184 -0.1989
 5723TIP3    H138584   0.882   0.465  16.207 -0.8835  1.4238 -1.7613
 5723TIP3    H238585   0.908   0.612  16.227 -2.0737  1.3152  1.0553
 5724TIP3   OH238586   0.700   2.673   1.322  0.7749  0.4118 -0.2737
 5724TIP3    H138587   0.717   2.635   1.409 -0.0966  0.2708 -0.1535
 5724TIP3    H238588   0.718   2.767   1.333 -0.9423  0.6756  0.5305
 5725TIP3   OH238589   4.943   5.762  14.104  0.4267 -0.4520 -0.1511
 5725TIP3    H138590   4.850   5.752  14.083 -0.0193  2.1411  0.2422
 5725TIP3    H238591   4.989   5.710  14.038 -1.2558 -1.3722 -0.6571
 5726TIP3   OH238592   5.269   4.414   1.607 -0.0770  0.5606  0.5978
 5726TIP3    H138593   5.200   4.435   1.670 -0.7296 -1.2333  0.5405
 5726TIP3    H238594   5.270   4.489   1.547 -1.5039  0.9349  0.9940
 5727TIP3   OH238595   5.220   4.907   2.540 -0.1863  0.0691 -0.2486
 5727TIP3    H138596   5.130   4.904   2.509 -0.0670  0.6608 -0.6781
 5727TIP3    H238597   5.247   4.815   2.544 -1.7710 -0.3919  2.8541
 5728TIP3   OH238598   2.329   6.579  14.087  0.1593  0.3530  0.2910
 5728TIP3    H138599   2.363   6.508  14.032  1.5332  0.5465  0.8500
 5728TIP3    H238600   2.277   6.535  14.154 -0.6641  0.0418 -0.5224
 5729TIP3   OH238601   3.979   6.279  11.761  0.2594 -0.0295  0.8430
 5729TIP3    H138602   3.917   6.278  11.688 -0.1114 -0.8039  1.1546
 5729TIP3    H238603   4.023   6.364  11.754  0.0429  0.0152 -0.1204
 5730TIP3   OH238604   2.145   0.420  12.428  0.3096  0.9396  0.2574
 5730TIP3    H138605   2.051   0.404  12.432  0.0822  1.9994 -0.3347
 5730TIP3    H238606   2.172   0.433  12.519  0.1166 -0.5304  0.5437
 5731TIP3   OH238607   4.735   5.577   4.263 -0.0245  0.0914 -0.2871
 5731TIP3    H138608   4.690   5.662   4.263 -0.2051  0.0090  0.6160
 5731TIP3    H238609   4.770   5.569   4.175 -0.2431  0.9811 -0.4713
 5732TIP3   OH238610   3.042   5.206  15.384  0.2311 -0.0247  0.4030
 5732TIP3    H138611   3.047   5.112  15.367 -0.5435 -0.1639  0.9172
 5732TIP3    H238612   2.975   5.215  15.452  0.4744  0.8768  0.5334
 5733TIP3   OH238613   2.456   5.132   5.030  0.5738 -0.3513 -0.2154
 5733TIP3    H138614   2.475   5.198   4.963  1.8276 -1.4559 -1.0112
 5733TIP3    H238615   2.419   5.058   4.982  1.0010 -0.9646  0.3754
 5734TIP3   OH238616   4.410   0.876   5.176  0.2718 -0.1283  0.4390
 5734TIP3    H138617   4.485   0.934   5.167 -0.5751  1.0556  0.8284
 5734TIP3    H238618   4.430   0.824   5.254 -0.4400  1.9808  2.0991
 5735TIP3   OH238619   4.597   0.268  15.371 -0.2325 -0.2873  0.2938
 5735TIP3    H138620   4.660   0.340  15.374 -1.0972  0.9511 -4.5038
 5735TIP3    H238621   4.512   0.310  15.380 -0.6992 -0.7587 -1.5575
 5736TIP3   OH238622   1.502   5.166  10.359  0.4074 -0.2986 -0.0455
 5736TIP3    H138623   1.472   5.114  10.285  1.4145 -0.1296 -0.5945
 5736TIP3    H238624   1.473   5.255  10.339 -3.1022 -0.8439  1.8535
 5737TIP3   OH238625   3.916   4.417  13.904 -0.2190  0.2708  0.9083
 5737TIP3    H138626   3.997   4.391  13.861  0.3000 -0.1975  2.1360
 5737TIP3    H238627   3.880   4.485  13.847 -0.5780 -1.6362 -1.3176
 5738TIP3   OH238628   0.406   5.735  13.664 -0.4603  0.2783 -0.4348
 5738TIP3    H138629   0.493   5.775  13.667  0.0474 -0.7769 -0.6296
 5738TIP3    H238630   0.346   5.808  13.679  0.4854  0.8828  0.6037
 5739TIP3   OH238631   6.736   0.363   3.294  0.0321 -0.1743 -0.6673
 5739TIP3    H138632   6.685   0.407   3.226  0.6776  0.6035 -0.6719
 5739TIP3    H238633   6.672   0.342   3.362 -0.9178 -2.3282 -2.1071
 5740TIP3   OH238634   2.690   1.352  11.902 -0.0916 -0.0918 -0.1690
 5740TIP3    H138635   2.665   1.345  11.994  1.0847 -1.6015  0.0741
 5740TIP3    H238636   2.632   1.291  11.856  0.4896 -0.6378 -0.1781
 5741TIP3   OH238637   6.619   6.165  16.811 -0.1933 -0.3111  0.0116
 5741TIP3    H138638   6.670   6.109  16.752 -2.0111 -0.8337 -1.1648
 5741TIP3    H238639   6.587   6.106  16.879 -0.2945 -0.2543  0.0130
 5742TIP3   OH238640   0.255   0.107  15.948  0.4303  0.4430 -0.0707
 5742TIP3    H138641   0.343   0.084  15.917  0.5024  0.9796 -0.2892
 5742TIP3    H238642   0.198   0.090  15.873  0.4343  0.6190 -0.1166
 5743TIP3   OH238643   0.707   6.002  13.327  0.2718 -0.6435 -0.5039
 5743TIP3    H138644   0.734   6.080  13.375 -0.4373 -0.3281 -0.6021
 5743TIP3    H238645   0.789   5.957  13.306  0.6570 -0.1713 -0.0370
 5744TIP3   OH238646   4.789   1.687   5.531 -0.0062 -0.4633  0.5665
 5744TIP3    H138647   4.722   1.654   5.471  0.0855  0.0941  0.1511
 5744TIP3    H238648   4.747   1.685   5.617 -0.3944 -0.5682  0.3766
 5745TIP3   OH238649   2.742   2.651  14.255  0.1380  0.3491  0.1302
 5745TIP3    H138650   2.668   2.590  14.247  0.7222 -0.4798  0.7848
 5745TIP3    H238651   2.820   2.595  14.248  0.7414  1.3046 -1.3982
 5746TIP3   OH238652   6.255   1.019  16.115 -0.2626  0.2147  0.7098
 5746TIP3    H138653   6.163   0.997  16.101 -0.1590 -0.6529  1.2541
 5746TIP3    H238654   6.253   1.098  16.169 -0.6813  0.5596  0.1904
 5747TIP3   OH238655   5.933   3.463  12.934  0.1940  0.0091  0.1465
 5747TIP3    H138656   5.901   3.406  13.004  2.0763  0.5600  1.5394
 5747TIP3    H238657   6.021   3.488  12.962 -0.3562  3.2329 -0.5966
 5748TIP3   OH238658   6.482   6.123   0.248  0.4313 -0.1164 -0.0585
 5748TIP3    H138659   6.536   6.110   0.169  0.2820 -1.9361  0.0903
 5748TIP3    H238660   6.544   6.116   0.321  0.4523  0.8694  0.0388
 5749TIP3   OH238661   2.977   6.693  10.434  0.7033  0.2547  0.6994
 5749TIP3    H138662   3.058   6.735  10.464  0.2948  0.2346  1.8724
 5749TIP3    H238663   2.937   6.758  10.377  1.2973  0.4660  0.5119
 5750TIP3   OH238664   3.768   6.345   1.534  0.3127 -0.2302 -0.5097
 5750TIP3    H138665   3.809   6.424   1.498  0.0980  0.3683  0.5106
 5750TIP3    H238666   3.820   6.324   1.611  0.4685 -1.1982 -0.8660
 5751TIP3   OH238667   6.297   4.668   2.939 -0.1590  0.0345  0.2324
 5751TIP3    H138668   6.219   4.614   2.949 -0.1580  0.1444  0.9553
 5751TIP3    H238669   6.276   4.728   2.867 -0.5837 -0.2049  0.1549
 5752TIP3   OH238670   1.795   1.604  12.434 -0.1163 -0.3155 -0.5042
 5752TIP3    H138671   1.705   1.604  12.467 -0.4494  0.9550 -1.3518
 5752TIP3    H238672   1.788   1.575  12.343  0.5155 -1.5356 -0.1836
 5753TIP3   OH238673   4.624   2.602   5.072  0.4183  0.0163  0.3994
 5753TIP3    H138674   4.600   2.673   5.133  0.9040 -0.5566  1.2835
 5753TIP3    H238675   4.542   2.557   5.054  0.2396  0.2978  0.5032
 5754TIP3   OH238676   6.132   5.410   5.675  0.1356 -0.1379  0.0636
 5754TIP3    H138677   6.156   5.412   5.582  1.2772  0.2273  0.3498
 5754TIP3    H238678   6.175   5.487   5.712 -1.7532  0.7368  0.5759
 5755TIP3   OH238679   3.723   3.087   0.587  0.0222  0.9940 -0.3744
 5755TIP3    H138680   3.752   3.167   0.542  1.2984  0.5593 -0.3668
 5755TIP3    H238681   3.714   3.113   0.678  1.2772  0.9482 -0.2169
 5756TIP3   OH238682   4.705   0.656  14.486 -0.2803  0.6464 -1.0687
 5756TIP3    H138683   4.710   0.574  14.534 -2.2750  0.0930 -1.6821
 5756TIP3    H238684   4.719   0.724  14.552 -0.1917 -0.1470 -0.2512
 5757TIP3   OH238685   2.511   5.005  14.710  0.3164  0.0160  0.3008
 5757TIP3    H138686   2.430   4.971  14.672 -0.7448 -2.4859  4.2478
 5757TIP3    H238687   2.562   4.927  14.730  3.0699  1.4742 -0.5447
 5758TIP3   OH238688   1.103   6.670  14.986  0.1002  0.0299  0.0798
 5758TIP3    H138689   1.032   6.610  15.008 -0.3899 -0.7992 -3.2047
 5758TIP3    H238690   1.178   6.640  15.038 -0.3562 -2.9983 -0.8321
 5759TIP3   OH238691   2.257   1.434   0.564 -0.2186  0.2229  0.1112
 5759TIP3    H138692   2.253   1.476   0.650 -2.0972 -1.3325  0.8632
 5759TIP3    H238693   2.171   1.452   0.525 -0.4984 -1.5196 -0.1720
 5760TIP3   OH238694   4.323   0.559   4.853  0.1130 -0.0295 -0.3945
 5760TIP3    H138695   4.332   0.499   4.779  1.0909 -0.5253  0.1029
 5760TIP3    H238696   4.346   0.645   4.817 -0.3896 -0.0953 -0.8903
 5761TIP3   OH238697   1.195   1.831  11.597  0.4130  0.2994  0.1231
 5761TIP3    H138698   1.136   1.853  11.669  1.2952 -0.5455  1.1437
 5761TIP3    H238699   1.233   1.914  11.570 -0.5624  0.7344  0.0447
 5762TIP3   OH238700   5.419   3.373   1.677  0.0993 -0.2905 -0.1573
 5762TIP3    H138701   5.466   3.444   1.720  0.2329 -1.6326  2.1236
 5762TIP3    H238702   5.348   3.415   1.629 -0.5818  1.3354  2.1260
 5763TIP3   OH238703   2.409   4.901  13.330 -0.0394 -0.5845  0.8372
 5763TIP3    H138704   2.335   4.857  13.373 -0.2173 -2.7635 -1.4380
 5763TIP3    H238705   2.469   4.830  13.307  0.7252  0.6192 -1.1470
 5764TIP3   OH238706   6.104   3.408  13.904  0.0412  0.4205 -0.2246
 5764TIP3    H138707   6.041   3.440  13.968 -0.2281 -0.0116 -0.2693
 5764TIP3    H238708   6.115   3.481  13.843  0.3397  0.8538  0.3337
 5765TIP3   OH238709   3.992   1.204  14.201  0.0933 -0.5160  0.4731
 5765TIP3    H138710   3.979   1.194  14.295 -0.3887 -2.3942  0.2562
 5765TIP3    H238711   4.073   1.157  14.182 -0.7969 -1.8281 -0.2767
 5766TIP3   OH238712   4.157   1.609   4.538  0.0686  0.2238  0.2041
 5766TIP3    H138713   4.181   1.687   4.489  3.8463 -0.7499  0.1915
 5766TIP3    H238714   4.182   1.628   4.629  0.3035 -0.6438  0.3407
 5767TIP3   OH238715   4.769   1.012   0.730 -0.5064  0.2021  0.1572
 5767TIP3    H138716   4.689   0.961   0.744  0.9229 -2.1195  0.3306
 5767TIP3    H238717   4.792   0.996   0.638  0.0768  0.3651  0.2702
 5768TIP3   OH238718   4.008   3.979  12.257 -0.0764 -0.0135  0.1691
 5768TIP3    H138719   4.060   4.048  12.216  0.9691 -1.9991 -2.0680
 5768TIP3    H238720   3.935   3.965  12.197  0.3895 -1.6325 -0.0635
 5769TIP3   OH238721   6.774   0.786  15.426  0.1598  0.0580 -0.3457
 5769TIP3    H138722   6.790   0.775  15.520 -1.6011 -1.5255 -0.1553
 5769TIP3    H238723   6.816   0.710  15.386 -1.1512 -0.6068 -0.5261
 5770TIP3   OH238724   6.022   3.121  15.544 -0.0537  0.7739  0.3084
 5770TIP3    H138725   6.107   3.145  15.509  0.8499 -1.3125  0.8898
 5770TIP3    H238726   5.977   3.079  15.471 -0.6806  2.0143 -0.0434
 5771TIP3   OH238727   3.753   6.738  16.605 -0.0728  0.5900  0.2388
 5771TIP3    H138728   3.688   6.770  16.668 -0.4985  0.7943 -0.3019
 5771TIP3    H238729   3.792   6.818  16.569 -0.2436  0.4851 -0.1833
 5772TIP3   OH238730   2.990   3.217   0.471  0.0681 -0.4119  0.2566
 5772TIP3    H138731   3.024   3.300   0.506 -0.9982  0.8603 -1.6183
 5772TIP3    H238732   3.068   3.162   0.462  0.7731  0.2862  1.6829
 5773TIP3   OH238733   5.943   6.237  13.982 -0.4588 -0.0959  0.4001
 5773TIP3    H138734   6.019   6.190  13.947  0.2353  0.2274  1.4277
 5773TIP3    H238735   5.938   6.317  13.929 -0.2840 -0.2683  0.1200
 5774TIP3   OH238736   5.934   0.733  13.960 -0.0024 -0.9205  0.1650
 5774TIP3    H138737   6.010   0.692  13.918  0.6344  1.0022 -0.6385
 5774TIP3    H238738   5.859   0.680  13.932  0.4211  0.0789 -3.2110
 5775TIP3   OH238739   3.371   3.171   0.064  0.7111 -0.1743  0.0988
 5775TIP3    H138740   3.335   3.190   0.151 -0.5139  1.1875 -0.6581
 5775TIP3    H238741   3.322   3.229   0.005  1.6181 -0.9640 -1.4828
 5776TIP3   OH238742   0.474   0.559  10.340  1.0338  0.2438 -0.3899
 5776TIP3    H138743   0.538   0.592  10.404  1.6614 -0.3782 -0.6811
 5776TIP3    H238744   0.521   0.491  10.292  0.5929  0.7371 -1.5645
 5777TIP3   OH238745   1.861   4.801  11.121  0.1590  0.0534  0.4327
 5777TIP3    H138746   1.846   4.730  11.059  1.1779  0.4611 -0.3119
 5777TIP3    H238747   1.871   4.758  11.206 -2.1283 -0.4516  0.5056
 5778TIP3   OH238748   0.290   4.273   0.678  0.4091  0.7773 -0.5233
 5778TIP3    H138749   0.228   4.292   0.749  0.2870  1.4262 -0.7994
 5778TIP3    H238750   0.238   4.227   0.612  0.4511  0.4523 -0.3329
 5779TIP3   OH238751   5.103   2.663  13.789 -0.1147 -0.1324 -0.2740
 5779TIP3    H138752   5.079   2.674  13.881  1.8631 -0.6792  0.3514
 5779TIP3    H238753   5.083   2.572  13.770 -0.7749  0.0506 -0.4780
 5780TIP3   OH238754   6.022   5.124  11.827 -0.2568 -0.5691 -0.6862
 5780TIP3    H138755   6.039   5.208  11.783 -0.0330 -0.5127 -0.4957
 5780TIP3    H238756   5.975   5.148  11.906  0.9782 -0.4911  0.0496
 5781TIP3   OH238757   2.962   0.329   4.165  0.0314  0.2525  0.1989
 5781TIP3    H138758   3.012   0.294   4.239 -0.5752  0.7520  0.8542
 5781TIP3    H238759   2.920   0.252   4.127 -0.5466  0.1236  1.0639
 5782TIP3   OH238760   6.701   1.494   4.219 -0.3172  0.4519 -0.3948
 5782TIP3    H138761   6.638   1.528   4.156 -0.6084  0.6406 -0.0042
 5782TIP3    H238762   6.684   1.400   4.222  0.0514  0.3532 -0.9846
 5783TIP3   OH238763   6.223   0.479  12.375  0.3569 -0.2758  0.2593
 5783TIP3    H138764   6.219   0.419  12.450  0.7025 -1.0360 -0.3228
 5783TIP3    H238765   6.263   0.428  12.305 -1.8791 -0.3018 -1.1168
 5784TIP3   OH238766   1.345   2.893  16.560 -0.8693 -0.3899 -0.0359
 5784TIP3    H138767   1.271   2.886  16.621 -0.0600 -1.9223  0.8417
 5784TIP3    H238768   1.345   2.809  16.515  0.6205 -0.6069  0.3359
 5785TIP3   OH238769   3.982   5.336   4.886  0.2230  0.0092  0.1980
 5785TIP3    H138770   4.044   5.340   4.959 -1.6332  0.4441  1.8204
 5785TIP3    H238771   3.919   5.406   4.904 -0.9619 -0.6346 -1.2139
 5786TIP3   OH238772   3.687   5.361   4.405 -0.3981 -0.0021  0.0573
 5786TIP3    H138773   3.774   5.399   4.406 -0.9697  1.3713 -0.2687
 5786TIP3    H238774   3.642   5.402   4.479 -1.4878  1.0943 -1.1810
 5787TIP3   OH238775   1.940   3.686   3.340  0.3735 -0.2413 -0.8777
 5787TIP3    H138776   1.933   3.754   3.407  1.2587 -1.3202  0.3642
 5787TIP3    H238777   1.985   3.728   3.267 -2.0721  1.4428 -1.5613
 5788TIP3   OH238778   6.105   1.508  15.628 -0.5361 -0.4429  0.1336
 5788TIP3    H138779   6.148   1.424  15.612 -0.7378 -0.4351 -0.4944
 5788TIP3    H238780   6.161   1.573  15.585 -0.5238 -0.2905  0.3800
 5789TIP3   OH238781   6.218   0.430   3.502  0.5619  0.0259 -0.4621
 5789TIP3    H138782   6.250   0.427   3.592 -1.1066 -1.5478  0.1580
 5789TIP3    H238783   6.238   0.343   3.467 -0.0777  0.1328 -1.1109
 5790TIP3   OH238784   3.279   1.228   2.971 -0.3300  0.2742 -0.6275
 5790TIP3    H138785   3.204   1.190   3.017  1.0627 -1.1189  0.5823
 5790TIP3    H238786   3.356   1.193   3.016  1.0776  1.5561 -1.9089
 5791TIP3   OH238787   1.106   0.184   4.417 -0.0795 -0.0355 -0.0006
 5791TIP3    H138788   1.114   0.278   4.400  0.1688  0.0040  0.3178
 5791TIP3    H238789   1.038   0.177   4.483  1.6121  0.1502  1.8723
 5792TIP3   OH238790   0.808   2.256  14.947 -0.3743 -0.1940 -0.5525
 5792TIP3    H138791   0.809   2.214  14.861 -0.7144 -0.2251 -0.5412
 5792TIP3    H238792   0.802   2.350  14.928 -1.7925 -0.2648 -0.5530
 5793TIP3   OH238793   0.935   5.083   4.252 -0.2133  0.0020 -0.0732
 5793TIP3    H138794   0.933   5.014   4.318 -0.8790  0.9769  0.9528
 5793TIP3    H238795   0.976   5.157   4.296 -0.5363  0.6208 -0.7951
 5794TIP3   OH238796   5.662   0.124   0.563 -0.0167 -1.0407  0.0255
 5794TIP3    H138797   5.696   0.063   0.629  0.9972  0.2493  0.7427
 5794TIP3    H238798   5.717   0.108   0.486  0.1417 -1.1475  0.1588
 5795TIP3   OH238799   1.669   1.489   2.936  0.8573 -0.2321  0.5409
 5795TIP3    H138800   1.676   1.394   2.953 -0.2803 -0.0293  2.5400
 5795TIP3    H238801   1.643   1.525   3.021 -1.9328  1.4921 -0.9321
 5796TIP3   OH238802   0.007   5.634  14.268  0.2442  0.0819 -0.1758
 5796TIP3    H138803   0.095   5.637  14.232  1.0996 -0.9798  1.6773
 5796TIP3    H238804  -0.042   5.576  14.210 -0.0183  2.5564 -2.6375
 5797TIP3   OH238805   6.795   3.083  11.019  0.0221  0.7105  0.3820
 5797TIP3    H138806   6.786   3.177  11.006 -0.5732  0.6801  0.5444
 5797TIP3    H238807   6.765   3.068  11.109 -1.2869  0.1929 -0.1029
 5798TIP3   OH238808   1.066   0.602   0.209  0.1201 -0.3209 -0.1987
 5798TIP3    H138809   1.161   0.599   0.210  0.1163 -1.2143  1.4539
 5798TIP3    H238810   1.040   0.554   0.288 -1.6267  1.9939  0.7640
 5799TIP3   OH238811   2.666   2.491   5.735  0.0255  0.6121  0.0805
 5799TIP3    H138812   2.602   2.531   5.793 -0.4963  1.6531 -1.1561
 5799TIP3    H238813   2.631   2.405   5.714  0.6608 -0.1682  1.9664
 5800TIP3   OH238814   5.898   3.001  11.392  0.3457 -0.0662 -0.4419
 5800TIP3    H138815   5.969   3.065  11.393 -0.0261  0.4913 -3.2603
 5800TIP3    H238816   5.823   3.047  11.431  0.3293  0.9662 -1.6239
 5801TIP3   OH238817   5.791   2.839  13.383  0.4463  0.5486 -0.4488
 5801TIP3    H138818   5.774   2.932  13.370  1.8878  0.6767 -1.6850
 5801TIP3    H238819   5.706   2.802  13.408 -0.2617  2.0914 -0.4935
 5802TIP3   OH238820   0.598   6.489  13.510  0.1001 -0.1347  0.2712
 5802TIP3    H138821   0.541   6.509  13.584 -1.9529  2.0637 -1.7749
 5802TIP3    H238822   0.577   6.398  13.488 -0.3632 -0.3216  1.3780
 5803TIP3   OH238823   1.320   6.669   1.322  0.2382  1.2841  0.4120
 5803TIP3    H138824   1.270   6.750   1.311 -0.5774  0.8821  1.1162
 5803TIP3    H238825   1.351   6.671   1.413 -0.6231  0.3451  0.7385
 5804TIP3   OH238826   2.076   0.351  13.157 -0.4296 -0.4518 -0.2561
 5804TIP3    H138827   1.987   0.365  13.127 -0.4675  0.1104  0.1103
 5804TIP3    H238828   2.067   0.304  13.240 -0.3487 -1.3439 -0.7467
 5805TIP3   OH238829   1.743   1.950  16.552 -0.2022 -0.2415  0.0953
 5805TIP3    H138830   1.652   1.930  16.531 -0.5146 -1.0275  1.9368
 5805TIP3    H238831   1.740   2.037  16.591 -0.6906 -1.3294  2.7444
 5806TIP3   OH238832   0.786   5.543   2.538 -0.2824  0.0870  0.3108
 5806TIP3    H138833   0.841   5.620   2.529 -0.3742  0.2471  1.0264
 5806TIP3    H238834   0.740   5.535   2.454 -0.6252  1.0825  0.3985
 5807TIP3   OH238835   5.547   3.460  14.783  0.8555 -0.5518  0.3437
 5807TIP3    H138836   5.498   3.419  14.854 -0.2269 -4.1409 -2.2013
 5807TIP3    H238837   5.637   3.431  14.795  1.0731  0.4148  1.2123
 5808TIP3   OH238838   4.497   4.397   2.890 -0.2031 -0.5397 -0.2316
 5808TIP3    H138839   4.531   4.358   2.809  0.0653 -1.6814  0.4096
 5808TIP3    H238840   4.462   4.482   2.863  1.8277  0.0574 -1.1748
 5809TIP3   OH238841   1.398   3.708   2.340 -0.6125 -0.5855  0.1886
 5809TIP3    H138842   1.481   3.679   2.378 -0.5060  0.2925  0.6435
 5809TIP3    H238843   1.415   3.713   2.246 -0.1220 -0.3197  0.2862
 5810TIP3   OH238844   1.250   5.276   1.131  0.1372 -0.1060  0.2275
 5810TIP3    H138845   1.223   5.190   1.163 -0.7177 -0.1820 -0.6513
 5810TIP3    H238846   1.174   5.332   1.146  0.8640  0.6430  1.2696
 5811TIP3   OH238847   0.685   0.764  11.024  0.3542  0.5404  0.7775
 5811TIP3    H138848   0.776   0.788  11.039  1.7600 -2.1038 -2.3229
 5811TIP3    H238849   0.655   0.827  10.958  0.5048  0.3839  0.5585
 5812TIP3   OH238850   4.527   6.040  13.844  0.3117 -0.3197 -0.1634
 5812TIP3    H138851   4.551   6.129  13.867 -0.2368  0.0295 -0.8838
 5812TIP3    H238852   4.610   5.997  13.824  1.0214 -1.0317  3.5130
 5813TIP3   OH238853   5.639   1.522   0.885  0.0228  0.3056  0.3526
 5813TIP3    H138854   5.657   1.453   0.821  2.6477  0.8816  0.3436
 5813TIP3    H238855   5.710   1.584   0.873 -0.5528  1.4623  2.4669
 5814TIP3   OH238856   0.712   3.792   3.610  0.1967 -0.1709  0.1874
 5814TIP3    H138857   0.734   3.818   3.700  3.2347  0.5653 -0.6312
 5814TIP3    H238858   0.634   3.842   3.589 -0.3338 -0.0337  2.2577
 5815TIP3   OH238859   0.143   1.921   2.855  0.2788 -0.8182 -0.2760
 5815TIP3    H138860   0.106   2.002   2.891 -0.2141 -1.0021 -0.3624
 5815TIP3    H238861   0.113   1.920   2.764 -1.0712 -1.8915  0.1497
 5816TIP3   OH238862   4.333   1.224   5.623 -0.4501 -0.3526  0.1383
 5816TIP3    H138863   4.363   1.176   5.545  1.0646 -0.5754  0.8192
 5816TIP3    H238864   4.308   1.310   5.590  1.6183  0.0906 -0.4282
 5817TIP3   OH238865   0.590   1.289   4.471 -0.7599  0.4802 -0.0897
 5817TIP3    H138866   0.545   1.365   4.508 -1.3359  1.0453 -1.8255
 5817TIP3    H238867   0.553   1.214   4.517  0.9021  1.2518  2.7593
 5818TIP3   OH238868   3.906   5.481  11.223  0.1651 -0.0972  0.4910
 5818TIP3    H138869   3.835   5.437  11.176 -0.3227  1.5051 -0.3517
 5818TIP3    H238870   3.970   5.503  11.155 -0.1772  1.5562  0.6681
 5819TIP3   OH238871   0.482   4.627   6.631 -0.5056  0.0059 -0.2442
 5819TIP3    H138872   0.545   4.673   6.575 -0.1553 -0.5920 -0.3563
 5819TIP3    H238873   0.510   4.536   6.627 -1.4525 -0.2833 -0.3761
 5820TIP3   OH238874   6.229   6.254  10.449  0.4137 -0.4060 -0.3560
 5820TIP3    H138875   6.148   6.249  10.500 -0.2415  0.7820 -1.2292
 5820TIP3    H238876   6.273   6.171  10.467  0.1452 -0.1201  1.9962
 5821TIP3   OH238877   0.683   2.530   4.419 -0.8580  0.3975  0.1971
 5821TIP3    H138878   0.680   2.436   4.434 -1.8810  0.2977 -0.5434
 5821TIP3    H238879   0.603   2.550   4.371 -0.5931  1.6284  0.2188
 5822TIP3   OH238880   1.697   3.671  16.592  0.2486 -0.2585 -0.1321
 5822TIP3    H138881   1.729   3.594  16.545  2.2448  0.3525  0.1228
 5822TIP3    H238882   1.667   3.731  16.524 -0.0545 -0.7121 -0.4038
 5823TIP3   OH238883   3.209   4.077  13.869  0.1118  0.4711 -0.5122
 5823TIP3    H138884   3.270   4.110  13.803  2.2109 -0.9380  0.6028
 5823TIP3    H238885   3.187   3.989  13.838 -0.8764  0.7372 -0.5791
 5824TIP3   OH238886   5.550   0.169   3.778  0.0990  0.0946 -0.6565
 5824TIP3    H138887   5.541   0.264   3.783 -0.5323  0.0408 -0.7273
 5824TIP3    H238888   5.507   0.144   3.697  0.5905 -0.2205 -0.8298
 5825TIP3   OH238889   3.420   5.566   1.155  1.0172 -0.0019  0.5754
 5825TIP3    H138890   3.472   5.491   1.123  1.1076 -0.4252  1.6700
 5825TIP3    H238891   3.337   5.558   1.108  1.7721  0.4662 -0.9250
 5826TIP3   OH238892   4.312   0.345  11.862 -0.0334 -0.3344 -0.2097
 5826TIP3    H138893   4.235   0.347  11.919  1.0120 -1.7654  1.3713
 5826TIP3    H238894   4.291   0.406  11.792 -2.7584 -0.9455 -0.0587
 5827TIP3   OH238895   1.500   3.381  13.074 -0.0780  0.0362 -0.1306
 5827TIP3    H138896   1.582   3.384  13.024 -0.6699 -1.0866 -1.2377
 5827TIP3    H238897   1.437   3.427  13.019 -0.3034  0.5066  0.5118
 5828TIP3   OH238898   6.172   4.275  11.152  0.0825 -0.1635  0.1387
 5828TIP3    H138899   6.150   4.299  11.062 -0.8110 -1.3566  0.0155
 5828TIP3    H238900   6.264   4.247  11.148  0.4868  1.1430 -0.1072
 5829TIP3   OH238901   2.925   2.983   0.126  0.5009  0.3446  0.1791
 5829TIP3    H138902   2.843   3.024   0.154  0.3032  1.3747 -1.7078
 5829TIP3    H238903   2.926   2.898   0.170 -0.9854  0.7984  1.1677
 5830TIP3   OH238904   1.301   4.435  13.928  0.4227  0.2704  0.2635
 5830TIP3    H138905   1.304   4.529  13.947  1.0445  0.1163  0.9766
 5830TIP3    H238906   1.361   4.424  13.854  1.7057  0.1931  1.2962
 5831TIP3   OH238907   0.612   2.334  11.052 -0.5831 -0.0478  0.8175
 5831TIP3    H138908   0.660   2.256  11.078 -1.2124 -1.1266 -1.0664
 5831TIP3    H238909   0.582   2.316  10.963 -3.4382  1.0443  1.4345
 5832TIP3   OH238910   2.924   3.780   0.670  0.5758 -0.3816  0.4092
 5832TIP3    H138911   2.939   3.814   0.759  0.4619 -1.5024  0.8639
 5832TIP3    H238912   2.952   3.852   0.613  2.3033 -0.2858  1.3231
 5833TIP3   OH238913   2.105   5.879   1.197  0.2272  0.0221 -0.0974
 5833TIP3    H138914   2.060   5.946   1.249  0.6837 -0.0968  0.4691
 5833TIP3    H238915   2.079   5.796   1.238 -0.6744 -0.1799 -1.0613
 5834TIP3   OH238916   4.035   5.934  11.486 -0.7293 -0.5761  0.4844
 5834TIP3    H138917   4.117   5.983  11.479 -2.3033  2.1564 -0.3543
 5834TIP3    H238918   4.047   5.878  11.563  1.4157  0.7369  1.1868
 5835TIP3   OH238919   5.168   6.501  16.423  0.0954  0.6718 -0.5340
 5835TIP3    H138920   5.117   6.519  16.345 -0.4934 -1.6940 -0.7582
 5835TIP3    H238921   5.256   6.532  16.402 -0.3907  1.4447 -1.5252
 5836TIP3   OH238922   4.487   2.864  14.409 -0.0992 -0.3237  0.9570
 5836TIP3    H138923   4.546   2.938  14.393 -0.5871 -0.3712 -1.5186
 5836TIP3    H238924   4.503   2.805  14.336 -0.8148 -1.9582  2.0809
 5837TIP3   OH238925   3.343   4.013  16.576  0.2047 -0.2182  0.4867
 5837TIP3    H138926   3.316   4.056  16.656  0.5114 -0.6724  0.8396
 5837TIP3    H238927   3.439   4.006  16.583  0.3086  0.3461 -0.2258
 5838TIP3   OH238928   2.237   4.290   0.540 -0.0302 -0.0840  0.1844
 5838TIP3    H138929   2.289   4.210   0.552  0.8994  0.4014 -0.5047
 5838TIP3    H238930   2.266   4.348   0.611 -1.7040 -0.8166  1.5577
 5839TIP3   OH238931   4.376   1.201   3.989  0.5200 -0.1350 -0.8303
 5839TIP3    H138932   4.329   1.117   3.994 -0.2977  0.3057 -1.0262
 5839TIP3    H238933   4.353   1.237   3.903 -1.3174  1.5312  0.2770
 5840TIP3   OH238934   4.969   1.822   4.998 -0.2664  0.5244  0.3234
 5840TIP3    H138935   4.975   1.798   5.090 -0.9563  0.7552  0.4405
 5840TIP3    H238936   5.003   1.747   4.951  2.0555  1.2124  0.8123
 5841TIP3   OH238937   6.556   0.385  12.037 -0.2442  0.0703 -0.0202
 5841TIP3    H138938   6.555   0.294  12.007 -0.8945 -0.6698  2.1128
 5841TIP3    H238939   6.619   0.386  12.109  0.0537  1.4226 -0.2768
 5842TIP3   OH238940   3.979   3.205   0.090 -0.5524  0.4732 -0.0579
 5842TIP3    H138941   4.017   3.159   0.165 -0.2388 -1.0833 -1.1145
 5842TIP3    H238942   3.989   3.297   0.110  1.0366  0.0881  1.0695
 5843TIP3   OH238943   1.765   3.416   4.201  0.2350 -0.5234  0.2806
 5843TIP3    H138944   1.672   3.439   4.204  0.1573 -0.6691 -0.6865
 5843TIP3    H238945   1.769   3.330   4.242 -0.3303 -1.2730 -1.1588
 5844TIP3   OH238946   0.281   5.335   0.197  0.4903 -0.0096 -0.4726
 5844TIP3    H138947   0.204   5.302   0.151  0.6395 -0.2600 -0.5479
 5844TIP3    H238948   0.329   5.256   0.223 -1.0240 -0.0688  2.6664
 5845TIP3   OH238949   6.166   2.185  11.352  0.3073 -0.2682 -0.1901
 5845TIP3    H138950   6.241   2.139  11.389  0.1228 -0.5999 -0.2231
 5845TIP3    H238951   6.203   2.260  11.306  0.6598 -0.7172 -0.6460
 5846TIP3   OH238952   1.663   3.753   1.213 -0.3953  0.1526 -0.1472
 5846TIP3    H138953   1.753   3.734   1.185 -0.2674  2.4624 -1.4895
 5846TIP3    H238954   1.671   3.827   1.273 -1.4925  1.2332 -1.2930
 5847TIP3   OH238955   1.432   5.307   3.375  0.7601  0.3595 -0.3452
 5847TIP3    H138956   1.460   5.268   3.458  0.2920 -0.6104 -0.6224
 5847TIP3    H238957   1.348   5.348   3.395 -1.2621 -3.0080 -1.0420
 5848TIP3   OH238958   4.425   6.490   4.377 -0.1246  0.0139  0.2021
 5848TIP3    H138959   4.362   6.497   4.449  0.7190 -3.5650  1.5510
 5848TIP3    H238960   4.375   6.455   4.304  0.0594 -2.3930  1.1329
 5849TIP3   OH238961   2.713   2.998  10.883 -0.3167  0.8823  0.8785
 5849TIP3    H138962   2.653   3.026  10.813 -0.9090 -1.0902  0.5406
 5849TIP3    H238963   2.800   3.022  10.852 -0.8258  3.2923  1.1223
 5850TIP3   OH238964   5.047   0.856   3.133  0.0477  0.0655 -0.0185
 5850TIP3    H138965   5.119   0.918   3.144 -0.7279  1.1436 -0.7943
 5850TIP3    H238966   4.975   0.909   3.098 -0.0272 -1.5972 -2.7164
 5851TIP3   OH238967   1.016   6.664  13.234 -0.1576 -0.2575 -0.7133
 5851TIP3    H138968   0.948   6.729  13.217 -0.0721 -0.1513 -0.6437
 5851TIP3    H238969   1.071   6.703  13.302 -0.4625 -0.6548 -0.2311
 5852TIP3   OH238970   1.566   0.840  15.633 -0.3612 -0.2176 -0.1373
 5852TIP3    H138971   1.619   0.781  15.580 -0.4769 -1.6323  1.2295
 5852TIP3    H238972   1.516   0.892  15.570  2.0229  0.6280 -1.4443
 5853TIP3   OH238973   2.708   4.640  13.503 -0.0390 -0.1329 -0.0852
 5853TIP3    H138974   2.694   4.700  13.430  0.6212  0.0406 -0.0730
 5853TIP3    H238975   2.756   4.691  13.568 -1.3705 -0.0128  0.8539
 5854TIP3   OH238976   2.912   4.011   1.185 -0.3174 -0.2339 -0.1000
 5854TIP3    H138977   2.887   4.072   1.254 -0.7151 -0.6467  0.1311
 5854TIP3    H238978   2.904   3.925   1.227 -1.7560 -0.5793 -1.0091
 5855TIP3   OH238979   2.049   4.757   4.347  0.5304  0.2788 -0.0964
 5855TIP3    H138980   2.087   4.737   4.432  1.6179 -1.1550 -0.8764
 5855TIP3    H238981   2.119   4.799   4.298  0.0660  0.6669 -0.4428
 5856TIP3   OH238982   4.728   4.654   0.084 -1.3252 -0.1895 -0.1164
 5856TIP3    H138983   4.724   4.684   0.174  0.4508 -0.6416  0.1510
 5856TIP3    H238984   4.801   4.703   0.046 -1.1062 -1.0862 -0.8769
 5857TIP3   OH238985   6.279   0.710  11.035  0.0159  0.1787 -0.7970
 5857TIP3    H138986   6.304   0.792  11.076  1.5981 -0.1775 -0.9659
 5857TIP3    H238987   6.189   0.696  11.062 -1.1686  3.1439 -2.6949
 5858TIP3   OH238988   5.504   6.296   1.145 -0.5486  0.1776  0.3818
 5858TIP3    H138989   5.422   6.335   1.174  0.0983  0.9606  1.1958
 5858TIP3    H238990   5.568   6.366   1.154  0.4675 -0.8096  0.9893
 5859TIP3   OH238991   5.140   6.347   0.969 -0.4731  0.8059 -0.4597
 5859TIP3    H138992   5.177   6.272   0.922 -0.6964  0.9658 -0.8998
 5859TIP3    H238993   5.140   6.418   0.905 -0.5082  1.1125 -0.1255
 5860TIP3   OH238994   4.107   2.262   2.980  0.3600 -0.0236  0.1746
 5860TIP3    H138995   4.111   2.303   3.066  1.8703  0.4034 -0.0681
 5860TIP3    H238996   4.161   2.183   2.988  1.6493  0.7096 -0.6899
 5861TIP3   OH238997   0.514   3.627  13.260 -0.6031 -0.6391  0.8403
 5861TIP3    H138998   0.465   3.704  13.289  1.1579  0.5410  0.8178
 5861TIP3    H238999   0.605   3.653  13.266 -0.0183 -1.8910 -1.5252
 5862TIP3   OH239000   1.108   4.820  15.585 -0.7974  0.5211 -0.2339
 5862TIP3    H139001   1.161   4.882  15.635 -1.1671 -0.2028  1.0731
 5862TIP3    H239002   1.147   4.822  15.497  1.1959  0.2732  0.5821
 5863TIP3   OH239003   3.888   3.795  15.980  0.2003  0.0528 -0.4373
 5863TIP3    H139004   3.974   3.809  15.940  0.6781 -2.4220 -0.4247
 5863TIP3    H239005   3.825   3.814  15.910  0.7705  1.1547 -0.6662
 5864TIP3   OH239006   0.212   6.621  15.770  0.1922 -0.1337 -0.0942
 5864TIP3    H139007   0.135   6.646  15.820 -1.4400 -1.6076 -1.7221
 5864TIP3    H239008   0.272   6.584  15.835 -2.0130 -2.3734  0.8185
 5865TIP3   OH239009   1.661   4.521   2.544  0.0713  0.1423 -0.2454
 5865TIP3    H139010   1.668   4.445   2.603  0.3526  0.6917  0.4495
 5865TIP3    H239011   1.727   4.505   2.476 -2.3832 -2.0797 -2.3132
 5866TIP3   OH239012   0.479   6.660  12.749  0.5809 -0.3530 -0.5173
 5866TIP3    H139013   0.568   6.669  12.715  1.2506 -1.2975  0.8543
 5866TIP3    H239014   0.447   6.578  12.712  0.7959 -0.6835  0.0103
 5867TIP3   OH239015   3.898   5.761   1.856  0.4613 -0.0043  0.0004
 5867TIP3    H139016   3.888   5.699   1.928  1.9299 -0.5824 -0.2618
 5867TIP3    H239017   3.812   5.803   1.849 -0.2579 -1.2503  0.8722
 5868TIP3   OH239018   3.295   0.846   2.276  0.0401  0.5848  0.0766
 5868TIP3    H139019   3.322   0.767   2.323 -2.1551 -1.1454 -1.3770
 5868TIP3    H239020   3.365   0.909   2.293  1.7427 -1.5537  1.5231
 5869TIP3   OH239021   6.437   1.276   1.778  0.0435 -0.2291  0.0238
 5869TIP3    H139022   6.422   1.199   1.722 -3.7043 -1.2523  2.0897
 5869TIP3    H239023   6.403   1.349   1.727  2.5671  0.0242 -1.4793
 5870TIP3   OH239024   5.991   0.897  16.527 -0.7265  0.2871  0.2887
 5870TIP3    H139025   6.085   0.888  16.543 -1.0342 -0.3731  1.9410
 5870TIP3    H239026   5.981   0.884  16.433  0.6383 -1.6879  0.3665
 5871TIP3   OH239027   0.199   4.946  16.950 -0.2260 -0.1573  0.1741
 5871TIP3    H139028   0.144   4.911  16.879  0.9080 -0.1273 -0.7573
 5871TIP3    H239029   0.232   4.868  16.994 -1.3065 -0.1709  0.9867
 5872TIP3   OH239030   3.193   0.688   6.706  0.2960 -0.8736  0.1906
 5872TIP3    H139031   3.146   0.771   6.694  1.6906 -0.1599 -0.6129
 5872TIP3    H239032   3.137   0.623   6.665 -0.5643 -0.2565  0.3466
 5873TIP3   OH239033   6.296   0.880   2.496 -0.2504 -0.5608 -0.1359
 5873TIP3    H139034   6.311   0.956   2.440 -0.7710 -0.0916  0.3551
 5873TIP3    H239035   6.295   0.915   2.585  0.7569 -1.3278  0.1993
 5874TIP3   OH239036   5.392   1.044   3.847  0.0726 -0.1476 -0.1569
 5874TIP3    H139037   5.304   1.072   3.871 -0.5237 -1.5314 -0.5987
 5874TIP3    H239038   5.417   1.103   3.776 -0.3133  0.5477  0.2765
 5875TIP3   OH239039   1.443   1.785   5.348  0.2831  0.3798  0.2406
 5875TIP3    H139040   1.366   1.773   5.404  0.2848  1.4639  0.4974
 5875TIP3    H239041   1.434   1.717   5.281 -1.1288  0.7219  0.0307
 5876TIP3   OH239042   3.461   6.558  12.267 -0.0469  0.3519 -0.1954
 5876TIP3    H139043   3.551   6.590  12.275  0.7236 -1.9309  1.1670
 5876TIP3    H239044   3.441   6.520  12.352 -2.6207  1.3941 -0.2195
 5877TIP3   OH239045   4.966   2.259   6.494 -0.0373  0.1023  0.1080
 5877TIP3    H139046   4.898   2.301   6.441 -0.6561  1.2774  1.7408
 5877TIP3    H239047   4.951   2.165   6.484 -1.2200  0.3376 -0.4277
 5878TIP3   OH239048   1.501   3.183  13.566  0.1352  0.0178  0.3138
 5878TIP3    H139049   1.478   3.127  13.492  0.9352 -0.3076  0.3038
 5878TIP3    H239050   1.579   3.142  13.605  1.4368  1.6947 -0.3764
 5879TIP3   OH239051   2.280   6.130  15.051  0.2051 -0.1049 -0.6432
 5879TIP3    H139052   2.218   6.191  15.010 -0.6825 -0.0774  0.6725
 5879TIP3    H239053   2.225   6.062  15.090  1.0919 -0.8488 -0.6566
 5880TIP3   OH239054   5.692   6.589   0.624 -0.3653 -0.2192 -0.4926
 5880TIP3    H139055   5.783   6.605   0.601  0.5850 -1.2840  2.0941
 5880TIP3    H239056   5.694   6.573   0.719 -2.8096 -3.1505 -0.7866
 5881TIP3   OH239057   0.365   0.292   2.538 -0.0577  0.3722 -0.5371
 5881TIP3    H139058   0.312   0.229   2.489 -2.6678  2.6863 -0.9139
 5881TIP3    H239059   0.356   0.265   2.629 -1.8514  0.6481 -0.6092
 5882TIP3   OH239060   5.950   4.514  15.107 -0.1935  0.3674  0.1050
 5882TIP3    H139061   5.958   4.557  15.192 -0.1140 -0.2444  0.4116
 5882TIP3    H239062   6.021   4.449  15.106 -0.6179 -0.0977 -0.1495
 5883TIP3   OH239063   2.777   1.933  15.549 -0.0130  0.3894  0.0124
 5883TIP3    H139064   2.847   1.943  15.614 -0.6028  0.9649  0.5791
 5883TIP3    H239065   2.731   1.854  15.576 -0.5422  0.8854  0.5783
 5884TIP3   OH239066   2.465   0.127   5.674  0.5147 -0.0205 -0.0705
 5884TIP3    H139067   2.482   0.163   5.587  1.1590 -0.4039 -0.1124
 5884TIP3    H239068   2.426   0.200   5.723  2.4569  0.9840  0.0710
 5885TIP3   OH239069   4.242   4.921   6.457 -0.3320  0.0835 -0.6298
 5885TIP3    H139070   4.220   5.007   6.493 -1.4670 -0.6134  0.4194
 5885TIP3    H239071   4.337   4.917   6.460 -0.2800  1.2353 -0.5264
 5886TIP3   OH239072   4.908   1.521  15.676 -0.2112  0.0784  0.6327
 5886TIP3    H139073   4.847   1.506  15.748  0.0194 -1.3947  0.5386
 5886TIP3    H239074   4.940   1.434  15.652 -0.4831  0.4888 -1.4216
 5887TIP3   OH239075   0.738   3.852   2.681  0.2087 -0.3889  0.6207
 5887TIP3    H139076   0.680   3.777   2.694 -0.0866 -0.1037  0.9448
 5887TIP3    H239077   0.744   3.894   2.766  1.0406 -0.5177  0.6345
 5888TIP3   OH239078   2.812   0.063   4.073 -0.8367 -0.1195 -0.6048
 5888TIP3    H139079   2.776  -0.006   4.017 -2.3795  0.2581 -0.1001
 5888TIP3    H239080   2.738   0.094   4.125  0.3340  0.2753  0.8989
 5889TIP3   OH239081   1.258   6.540  12.386  0.5500  0.1003 -0.0724
 5889TIP3    H139082   1.345   6.580  12.380  1.1681 -1.0278  0.8941
 5889TIP3    H239083   1.234   6.521  12.295  0.8830  1.2755 -0.4258
 5890TIP3   OH239084   4.459   2.700  12.358 -0.1958  0.3745  0.5188
 5890TIP3    H139085   4.466   2.783  12.311 -1.2779  1.0976  1.5804
 5890TIP3    H239086   4.452   2.634  12.289 -0.9125  1.3178 -0.3499
 5891TIP3   OH239087   4.209   3.012  13.165 -0.2952  0.0785 -0.2361
 5891TIP3    H139088   4.206   2.960  13.246  0.7433  1.0616  0.4743
 5891TIP3    H239089   4.262   2.960  13.105 -2.4736 -1.4652 -0.9395
 5892TIP3   OH239090   6.216   0.963   3.288 -0.0071 -0.1485 -0.5510
 5892TIP3    H139091   6.166   1.045   3.291  1.1260  0.5783 -1.1245
 5892TIP3    H239092   6.303   0.987   3.319  0.1388 -1.3065 -0.0352
 5893TIP3   OH239093   3.676   3.040   3.122  0.0769 -0.4655 -0.1807
 5893TIP3    H139094   3.629   3.056   3.204  0.8957 -0.1722  0.2538
 5893TIP3    H239095   3.646   2.954   3.092 -1.8202  0.3423 -0.7097
 5894TIP3   OH239096   5.413   6.436  15.727 -0.3992 -0.2541  0.3118
 5894TIP3    H139097   5.417   6.405  15.636  2.2045 -1.6241  0.8035
 5894TIP3    H239098   5.370   6.365  15.775 -0.1314 -0.3258  0.4444
 5895TIP3   OH239099   3.535   4.475  11.084  0.6681  0.3311  0.2241
 5895TIP3    H139100   3.529   4.380  11.090  1.0131  0.3498  0.9031
 5895TIP3    H239101   3.617   4.491  11.037  0.3941  0.2858 -0.2721
 5896TIP3   OH239102   3.280   2.987  15.008  0.2948 -0.2187  0.0877
 5896TIP3    H139103   3.195   2.953  15.033 -0.2306 -0.3760 -1.7632
 5896TIP3    H239104   3.291   2.961  14.917  2.1394  0.1812  0.1457
 5897TIP3   OH239105   6.277   0.987  11.397  0.1972  0.7033 -0.5273
 5897TIP3    H139106   6.207   1.003  11.334  2.3652  2.4919 -2.6663
 5897TIP3    H239107   6.287   1.071  11.443 -0.3426 -0.1287  1.1754
 5898TIP3   OH239108   4.080   0.949  12.635  0.0197  0.5809 -0.2048
 5898TIP3    H139109   4.026   1.022  12.605 -1.0763 -0.0136  0.2591
 5898TIP3    H239110   4.109   0.906  12.555 -1.4496  0.0349 -0.4896
 5899TIP3   OH239111   2.597   2.418  14.254 -0.1126 -0.3370  0.0611
 5899TIP3    H139112   2.613   2.336  14.302  0.5328 -2.0258 -2.8022
 5899TIP3    H239113   2.502   2.422  14.246 -0.2189 -0.1474  1.2252
 5900TIP3   OH239114   5.120   5.342   2.078  0.7427 -0.0756 -0.0255
 5900TIP3    H139115   5.108   5.260   2.125  0.6505  0.4760  0.9302
 5900TIP3    H239116   5.191   5.324   2.016  0.3313 -1.0353 -0.2391
 5901TIP3   OH239117   2.770   5.654   2.740 -0.5276  0.6057 -0.1189
 5901TIP3    H139118   2.852   5.619   2.705 -0.5502 -1.1895  1.4640
 5901TIP3    H239119   2.702   5.600   2.699 -0.7927  0.8061  0.0519
 5902TIP3   OH239120   3.747   6.633   2.150 -0.2597 -0.5886  1.0165
 5902TIP3    H139121   3.777   6.699   2.212 -1.7463  0.6003  0.5305
 5902TIP3    H239122   3.685   6.680   2.093  0.9622 -1.6149 -1.3258
 5903TIP3   OH239123   1.630   0.941   4.475  0.2488  0.2411  0.1466
 5903TIP3    H139124   1.617   0.883   4.550 -1.3664  0.4318  0.0691
 5903TIP3    H239125   1.702   0.903   4.427  0.5817 -0.5195  1.2059
 5904TIP3   OH239126   2.121   4.489   2.627 -0.5108  0.2764 -0.4094
 5904TIP3    H139127   2.087   4.402   2.648  0.3472 -0.1264 -0.6224
 5904TIP3    H239128   2.164   4.477   2.542 -1.8725  1.3136 -1.2976
 5905TIP3   OH239129   6.500   0.669  15.487  0.0172 -0.0489  0.3737
 5905TIP3    H139130   6.560   0.672  15.413  1.4547  0.9293  1.5212
 5905TIP3    H239131   6.530   0.737  15.546 -0.8298 -1.0472  2.0550
 5906TIP3   OH239132   5.193   6.201  14.814  0.2154  0.4920  0.0012
 5906TIP3    H139133   5.112   6.251  14.800 -0.7943 -0.8897  0.6881
 5906TIP3    H239134   5.178   6.117  14.771  0.8350 -0.1988  1.0734
 5907TIP3   OH239135   3.313   0.118  16.512  1.2268 -0.4891 -0.0890
 5907TIP3    H139136   3.355   0.154  16.590 -3.0684  1.6106  1.5708
 5907TIP3    H239137   3.261   0.190  16.477 -0.4077 -2.5676 -2.3064
 5908TIP3   OH239138   3.302   6.640   3.707 -0.4852 -0.2545  0.3811
 5908TIP3    H139139   3.267   6.696   3.638  0.7045  3.0638  2.2403
 5908TIP3    H239140   3.225   6.616   3.760 -0.8658  0.9748  0.4117
 5909TIP3   OH239141   1.098   0.716  12.297  0.0284 -0.0161 -0.1981
 5909TIP3    H139142   1.031   0.653  12.269  1.8390 -1.3961 -1.6705
 5909TIP3    H239143   1.106   0.776  12.224  0.5594  0.0053 -0.1237
 5910TIP3   OH239144   4.100   3.641   6.791  0.4262  0.4663 -0.2693
 5910TIP3    H139145   4.109   3.615   6.699 -0.3474 -0.2045 -0.1638
 5910TIP3    H239146   4.165   3.710   6.802  0.9846  0.1091 -1.1522
 5911TIP3   OH239147   2.648   2.766   3.859  0.1698  0.6646 -0.6535
 5911TIP3    H139148   2.732   2.728   3.885 -0.9412 -0.9155  0.8677
 5911TIP3    H239149   2.595   2.691   3.832 -0.7668  1.6354 -1.6315
 5912TIP3   OH239150   2.948   5.796   3.552  0.7245 -0.7248  0.1978
 5912TIP3    H139151   2.884   5.809   3.482  0.5086  1.2890  0.7154
 5912TIP3    H239152   3.010   5.868   3.541  1.4462 -1.1586  1.2665
 5913TIP3   OH239153   3.233   0.930   5.290  0.3362  0.3636 -0.4237
 5913TIP3    H139154   3.288   0.933   5.368 -0.2150 -0.4361  0.0136
 5913TIP3    H239155   3.153   0.887   5.319 -0.8827  2.2305 -0.8312
 5914TIP3   OH239156   6.564   1.565   0.650 -0.1345  0.7107  0.4168
 5914TIP3    H139157   6.625   1.491   0.652  0.7747  1.4501  0.9090
 5914TIP3    H239158   6.495   1.538   0.589 -0.0147 -0.6816  0.8684
 5915TIP3   OH239159   1.596   4.687   1.959 -0.1982  0.5011 -0.1086
 5915TIP3    H139160   1.542   4.739   2.019 -0.9520  0.7259 -0.9587
 5915TIP3    H239161   1.533   4.638   1.907  0.4965 -1.6458  0.9645
 5916TIP3   OH239162   5.257   4.135   1.628  0.6634 -0.1482 -0.0078
 5916TIP3    H139163   5.240   4.224   1.600 -3.9110 -0.5349  0.8128
 5916TIP3    H239164   5.306   4.095   1.556  1.9421  2.6392 -0.8114
 5917TIP3   OH239165   4.545   6.510  14.291 -0.4099  0.3428  0.6555
 5917TIP3    H139166   4.561   6.577  14.358  1.1506 -1.4272  2.1626
 5917TIP3    H239167   4.616   6.524  14.228 -1.8201  1.9439 -0.6729
 5918TIP3   OH239168   6.091   4.138   4.517  0.2787  0.3932  0.2279
 5918TIP3    H139169   6.060   4.053   4.486 -0.8896  1.1184 -0.6650
 5918TIP3    H239170   6.155   4.166   4.451 -0.2355  0.7463 -0.1227
 5919TIP3   OH239171   2.859   2.722  10.902  0.1201 -0.3712  0.3173
 5919TIP3    H139172   2.848   2.813  10.873  0.2607 -0.4087  0.1454
 5919TIP3    H239173   2.780   2.678  10.873 -0.4841 -0.0498  1.4141
 5920TIP3   OH239174   3.549   1.295   3.527 -0.0772 -0.1037 -0.3416
 5920TIP3    H139175   3.538   1.308   3.621 -0.3143  2.2815 -0.6500
 5920TIP3    H239176   3.611   1.222   3.520 -1.7986 -1.8756  1.5991
 5921TIP3   OH239177   0.641   5.037   3.049 -0.1874  0.1399  0.2679
 5921TIP3    H139178   0.711   4.973   3.047 -0.4971 -0.1847 -0.2779
 5921TIP3    H239179   0.643   5.080   2.963 -0.2476  0.5754  0.4761
 5922TIP3   OH239180   2.334   1.939  14.837 -0.0426  0.0186  0.0842
 5922TIP3    H139181   2.296   2.025  14.820  0.5749  0.3165  0.1869
 5922TIP3    H239182   2.410   1.934  14.779  1.0697  0.3374  1.4469
 5923TIP3   OH239183   1.557   3.111   5.464  0.2350 -0.1881 -0.9081
 5923TIP3    H139184   1.472   3.129   5.425 -0.2330 -1.0821 -0.3549
 5923TIP3    H239185   1.596   3.044   5.407  0.6667  0.3850 -1.2871
 5924TIP3   OH239186   5.984   5.106   0.205 -0.2832 -0.4337 -0.0667
 5924TIP3    H139187   6.075   5.135   0.214 -0.4726  0.4579 -0.7618
 5924TIP3    H239188   5.946   5.169   0.143 -0.6979 -2.2853 -1.7731
 5925TIP3   OH239189   0.562   4.632  16.047 -0.7692  0.3067 -0.6348
 5925TIP3    H139190   0.469   4.622  16.068 -0.7413  0.7053 -0.2974
 5925TIP3    H239191   0.567   4.715  16.001 -0.1478  2.0644  2.3492
 5926TIP3   OH239192   2.592   5.816   6.374  0.5009  0.1436  0.1205
 5926TIP3    H139193   2.628   5.860   6.451 -2.1445 -1.5400  2.5285
 5926TIP3    H239194   2.526   5.876   6.340  1.7475  0.9359 -0.9700
 5927TIP3   OH239195   4.984   4.228   2.608  0.3975 -0.0089 -0.0720
 5927TIP3    H139196   5.004   4.280   2.530  2.4224 -0.5446  0.0356
 5927TIP3    H239197   5.037   4.268   2.677  1.2718 -1.6141  0.2214
 5928TIP3   OH239198   3.329   0.495  16.573 -0.7919 -0.1288 -0.4489
 5928TIP3    H139199   3.297   0.443  16.647  0.0480  0.9233  0.6925
 5928TIP3    H239200   3.423   0.477  16.569 -0.6178  0.7420 -0.4831
 5929TIP3   OH239201   0.044   5.980  13.361  0.0830  0.2845 -0.2181
 5929TIP3    H139202   0.108   5.944  13.300 -0.0785 -0.3168 -0.0346
 5929TIP3    H239203  -0.041   5.955  13.324 -0.0091 -1.5819  1.1205
 5930TIP3   OH239204   5.200   0.561  10.988 -0.3438 -0.0342  0.6679
 5930TIP3    H139205   5.150   0.488  11.026 -0.3157 -0.0204  0.7319
 5930TIP3    H239206   5.186   0.553  10.894 -1.1707  0.4660  0.7325
 5931TIP3   OH239207   6.324   1.755   2.982  0.2001  0.2358  0.2260
 5931TIP3    H139208   6.266   1.769   3.056 -0.6189  0.3744 -0.4301
 5931TIP3    H239209   6.268   1.766   2.905  1.1992  0.8701 -0.4332
 5932TIP3   OH239210   6.750   1.392   6.715  0.0416  0.1675  0.1908
 5932TIP3    H139211   6.843   1.369   6.715 -0.2105 -0.9137  1.0801
 5932TIP3    H239212   6.734   1.424   6.804 -0.7766 -1.1514  0.5410
 5933TIP3   OH239213   3.804   0.616   3.132 -0.1699 -0.2536  0.2554
 5933TIP3    H139214   3.724   0.612   3.186  0.6391  0.1908  1.5397
 5933TIP3    H239215   3.784   0.562   3.056 -1.0529 -1.6589  1.4169
 5934TIP3   OH239216   5.122   1.381  11.575  0.6073 -0.0787 -0.4322
 5934TIP3    H139217   5.120   1.285  11.578  0.5981 -0.2011 -2.7232
 5934TIP3    H239218   5.213   1.403  11.597  1.3350 -0.8125 -2.4565
 5935TIP3   OH239219   1.209   1.393  10.658  0.0363  0.5261 -0.4250
 5935TIP3    H139220   1.188   1.385  10.565  0.5825  1.6241 -0.6598
 5935TIP3    H239221   1.233   1.485  10.670  1.1723  0.1407  0.5436
 5936TIP3   OH239222   6.740   6.499   1.818 -0.0811  0.3759  0.0107
 5936TIP3    H139223   6.750   6.507   1.723  1.5387  0.7540  0.1809
 5936TIP3    H239224   6.751   6.589   1.850 -1.4760  0.3873  0.5083
 5937TIP3   OH239225   4.459   1.538  11.193 -0.5964  0.7227  0.5132
 5937TIP3    H139226   4.458   1.473  11.263  1.0825  0.6139  0.4817
 5937TIP3    H239227   4.437   1.489  11.114  1.7663 -0.1281  0.2975
 5938TIP3   OH239228   5.140   2.589   4.456  0.3909 -0.6285 -0.3508
 5938TIP3    H139229   5.066   2.531   4.475  0.3781 -0.1105  1.4095
 5938TIP3    H239230   5.131   2.661   4.519  2.2971 -0.4695 -0.1784
 5939TIP3   OH239231   5.054   3.683   2.344  0.1046  0.0007  0.0848
 5939TIP3    H139232   4.988   3.642   2.399 -0.4349  2.5230  1.4461
 5939TIP3    H239233   5.005   3.741   2.286  0.8761 -0.8642 -1.5348
 5940TIP3   OH239234   6.578   3.363  12.841  0.3518 -0.2315  0.7249
 5940TIP3    H139235   6.548   3.450  12.813  1.2175 -1.1337 -3.7948
 5940TIP3    H239236   6.498   3.312  12.848  0.0616 -0.0030 -0.6172
 5941TIP3   OH239237   5.929   4.634   1.853 -0.3977  0.3262 -0.3382
 5941TIP3    H139238   5.879   4.670   1.927  0.3609  1.2378 -0.2549
 5941TIP3    H239239   5.867   4.635   1.780 -0.8503  0.3605  0.0412
 5942TIP3   OH239240   4.245   2.273   4.153 -0.4777  0.1222  0.4398
 5942TIP3    H139241   4.273   2.362   4.176  0.5906 -0.2483  0.6291
 5942TIP3    H239242   4.327   2.225   4.139 -1.0504 -0.5973 -0.5837
 5943TIP3   OH239243   3.366   6.346   2.200 -0.2030  0.0779 -0.1720
 5943TIP3    H139244   3.355   6.440   2.191  0.2050  0.2152  0.7206
 5943TIP3    H239245   3.460   6.331   2.195 -0.1988 -0.1831  0.5013
 5944TIP3   OH239246   3.651   2.178   4.758 -0.9423 -0.7110  0.2860
 5944TIP3    H139247   3.668   2.117   4.830 -2.1833 -1.0668  0.2961
 5944TIP3    H239248   3.614   2.124   4.688 -1.1082 -0.1292 -0.0826
 5945TIP3   OH239249   3.222   0.566   5.831  0.2601  0.3484 -0.1791
 5945TIP3    H139250   3.176   0.597   5.910  0.9871  2.4942 -0.5345
 5945TIP3    H239251   3.313   0.591   5.845  0.5528 -0.0307 -1.3179
 5946TIP3   OH239252   6.485   2.019   4.829 -0.3524 -0.1089  0.2468
 5946TIP3    H139253   6.428   1.945   4.851  0.1879 -0.4253  0.6128
 5946TIP3    H239254   6.565   1.978   4.796  0.1329  0.2950  0.9101
 5947TIP3   OH239255   6.585   4.609  15.562 -0.0900  0.1539  0.0020
 5947TIP3    H139256   6.545   4.528  15.594 -1.6863  1.8702  2.6951
 5947TIP3    H239257   6.663   4.620  15.617 -0.4874  0.9791  0.4147
 5948TIP3   OH239258   6.800   3.397  12.523  0.3508 -0.7574 -0.4864
 5948TIP3    H139259   6.798   3.482  12.479 -1.1216 -1.4991 -1.9845
 5948TIP3    H239260   6.818   3.418  12.614 -0.4615  1.2238 -0.7087
 5949TIP3   OH239261   6.642   0.504  14.042 -0.4075  0.2718  0.0004
 5949TIP3    H139262   6.552   0.511  14.008 -0.3475 -2.4484 -0.9230
 5949TIP3    H239263   6.677   0.424  14.003  3.9161  3.1786 -2.9664
 5950TIP3   OH239264   6.296   3.099   3.238 -0.0224  0.3627  0.3502
 5950TIP3    H139265   6.278   3.039   3.310 -2.6147  0.5542 -0.0565
 5950TIP3    H239266   6.377   3.065   3.199 -0.3970 -1.7596  1.2621
 5951TIP3   OH239267   1.697   0.927  14.865 -0.2352  0.8189 -0.0997
 5951TIP3    H139268   1.782   0.897  14.832 -0.6575 -1.0411  0.4058
 5951TIP3    H239269   1.653   0.848  14.893 -2.2326  1.7279 -0.4971
 5952TIP3   OH239270   5.377   1.324  14.883 -0.2331 -0.4611 -0.0086
 5952TIP3    H139271   5.294   1.362  14.853 -0.5260  1.0965  2.4763
 5952TIP3    H239272   5.358   1.292  14.971  1.5314 -1.1509  0.1662
 5953TIP3   OH239273   3.550   5.813   0.025  0.1384 -0.2107 -0.1576
 5953TIP3    H139274   3.518   5.904   0.024  0.7746  0.0177 -0.1004
 5953TIP3    H239275   3.643   5.821   0.047  0.0247 -0.9300  0.6282
 5954TIP3   OH239276   2.762   0.846  11.268 -0.0884  0.0788  0.0121
 5954TIP3    H139277   2.806   0.867  11.351 -0.6307  0.1829  0.2764
 5954TIP3    H239278   2.829   0.803  11.216  0.1373 -0.3751  0.6671
 5955TIP3   OH239279   3.931   5.052  15.755  0.0692 -0.4788  0.1814
 5955TIP3    H139280   4.021   5.022  15.756 -0.4921 -2.4802  3.0891
 5955TIP3    H239281   3.909   5.068  15.847 -2.4777  0.1682 -0.4365
 5956TIP3   OH239282   6.200   6.550   2.511 -0.2347 -0.2136  0.4114
 5956TIP3    H139283   6.135   6.620   2.506  0.4726  0.4521  0.2336
 5956TIP3    H239284   6.154   6.477   2.552 -1.7053 -0.5225 -1.6347
 5957TIP3   OH239285   4.690   5.477  16.790 -0.2180  0.5591  0.3846
 5957TIP3    H139286   4.748   5.537  16.743  0.1624 -0.9952 -1.2364
 5957TIP3    H239287   4.668   5.523  16.871  2.6114  1.5675  0.6930
 5958TIP3   OH239288   5.996   4.955  11.573  0.5842 -0.1775 -0.2982
 5958TIP3    H139289   5.981   4.936  11.665  1.6555 -0.1466 -0.1033
 5958TIP3    H239290   5.910   4.944  11.531 -0.2841  1.4107  0.9592
 5959TIP3   OH239291   4.125   2.346  13.119 -0.2398 -0.4717  0.0532
 5959TIP3    H139292   4.192   2.339  13.187 -1.2199 -1.4496  0.9629
 5959TIP3    H239293   4.043   2.351  13.168 -0.8161  1.4517 -1.0183
 5960TIP3   OH239294   1.403   1.783   2.805  0.0448  0.1523  0.3688
 5960TIP3    H139295   1.483   1.832   2.825 -0.9547  2.3875 -0.6906
 5960TIP3    H239296   1.351   1.788   2.885  1.1272 -1.8237  1.2680
 5961TIP3   OH239297   3.584   6.693   4.257  0.5590  0.2133 -0.0760
 5961TIP3    H139298   3.516   6.719   4.319  1.0887  0.3696  0.4624
 5961TIP3    H239299   3.538   6.678   4.175  0.0557  1.8029 -0.1342
 5962TIP3   OH239300   0.600   6.061   4.833  0.3046 -0.0250 -0.7491
 5962TIP3    H139301   0.598   5.966   4.828 -0.3435 -0.0459 -0.3440
 5962TIP3    H239302   0.509   6.087   4.818 -0.0659  0.3635  1.6661
 5963TIP3   OH239303   5.574   0.366   0.956  0.3477  0.4700  0.0716
 5963TIP3    H139304   5.616   0.364   1.042  0.1354  1.1282  0.1975
 5963TIP3    H239305   5.491   0.411   0.972  0.0933  0.1583 -0.3856
 5964TIP3   OH239306   5.684   6.631  15.527  0.5183  0.3287  0.1823
 5964TIP3    H139307   5.679   6.720  15.492  1.8509  0.9746  1.4934
 5964TIP3    H239308   5.658   6.575  15.454 -0.6412  1.7854 -0.5909
 5965TIP3   OH239309   4.232   6.602   2.442  0.4617  0.0144  0.0696
 5965TIP3    H139310   4.222   6.689   2.403  1.8156  0.1436 -0.0415
 5965TIP3    H239311   4.220   6.542   2.368  0.2386  0.1309  0.0081
 5966TIP3   OH239312   4.370   0.808   4.737 -0.2599  0.6984  0.0487
 5966TIP3    H139313   4.449   0.795   4.685  0.0047  1.9634  0.0994
 5966TIP3    H239314   4.384   0.892   4.781 -2.3994  1.9244 -1.4105
 5967TIP3   OH239315   4.822   3.451   4.903 -0.5865 -0.1776  0.4113
 5967TIP3    H139316   4.908   3.446   4.944 -0.2344  1.3715 -0.0827
 5967TIP3    H239317   4.808   3.363   4.867 -0.0421 -0.9880  2.0729
 5968TIP3   OH239318   5.678   4.003   5.160  0.0743 -0.4737 -0.7214
 5968TIP3    H139319   5.616   3.930   5.166 -0.4187  0.0424  1.0444
 5968TIP3    H239320   5.624   4.081   5.167  0.9317 -0.0189  1.4598
 5969TIP3   OH239321   5.856   0.937  15.657  0.3198 -0.3117 -0.0714
 5969TIP3    H139322   5.877   0.877  15.585  1.4096 -0.9438  0.7356
 5969TIP3    H239323   5.898   1.019  15.632  1.3373 -0.7396  0.1617
 5970TIP3   OH239324   5.619   5.964   4.016 -0.4746  0.7257  0.6233
 5970TIP3    H139325   5.664   6.041   3.983  0.9552 -0.0857  0.6007
 5970TIP3    H239326   5.586   5.920   3.938 -0.1521  0.6359  0.5371
 5971TIP3   OH239327   3.927   5.419   3.792  0.7781  0.1916  0.2210
 5971TIP3    H139328   4.021   5.404   3.786  0.4442 -2.7719  0.8422
 5971TIP3    H239329   3.904   5.396   3.882 -0.7187 -0.6218 -0.3204
 5972TIP3   OH239330   3.184   0.403  15.920  0.4315  0.3465 -0.0915
 5972TIP3    H139331   3.114   0.396  15.985  0.2480  1.4853 -0.1437
 5972TIP3    H239332   3.155   0.472  15.861  0.3617 -1.0152 -1.7053
 5973TIP3   OH239333   4.686   3.608   5.093 -0.2107 -0.3389 -0.4600
 5973TIP3    H139334   4.605   3.560   5.109 -1.1956  0.8545 -1.5808
 5973TIP3    H239335   4.719   3.572   5.011  1.3526 -1.9909  0.8227
 5974TIP3   OH239336   3.616   6.783  11.339 -0.3182 -0.1769 -0.0758
 5974TIP3    H139337   3.646   6.780  11.248 -0.4719 -1.3188 -0.1053
 5974TIP3    H239338   3.522   6.799  11.334 -0.6166 -1.7774 -0.2094
 5975TIP3   OH239339   4.792   5.415  13.861  0.1798 -0.1317 -0.1764
 5975TIP3    H139340   4.853   5.351  13.825 -0.1595 -1.0813  0.8567
 5975TIP3    H239341   4.847   5.470  13.917  0.1340 -0.9543  0.7142
 5976TIP3   OH239342   5.081   5.416  15.145  0.7695 -0.2870 -0.1242
 5976TIP3    H139343   5.084   5.326  15.110 -0.7781 -1.0522  1.5537
 5976TIP3    H239344   5.173   5.441  15.153  1.3185 -2.3646  0.8734
 5977TIP3   OH239345   5.953   1.059  16.733  0.1426 -0.4034 -0.3479
 5977TIP3    H139346   5.945   0.998  16.659 -0.7177 -0.0553 -0.5481
 5977TIP3    H239347   5.993   1.137  16.695  1.3903 -0.8863 -0.0596
 5978TIP3   OH239348   0.406   1.834   3.543  0.3791 -0.1699 -0.3864
 5978TIP3    H139349   0.344   1.875   3.482 -0.5669 -0.9451  0.0311
 5978TIP3    H239350   0.460   1.778   3.488  1.5905  1.4537 -0.9466
 5979TIP3   OH239351   3.957   5.692   0.267  0.2208 -0.0886 -0.3590
 5979TIP3    H139352   3.928   5.730   0.184 -1.3249 -1.2207 -0.3686
 5979TIP3    H239353   3.952   5.765   0.329  1.2537  0.7359 -1.1942
 5980TIP3   OH239354   0.587   1.474  13.711  0.2236  0.3399  0.1675
 5980TIP3    H139355   0.505   1.512  13.743 -0.1270 -1.0753  1.0494
 5980TIP3    H239356   0.564   1.385  13.687  1.2844  0.2687 -0.6689
 5981TIP3   OH239357   6.391   3.137   1.768 -0.6287 -0.2449 -0.6161
 5981TIP3    H139358   6.481   3.103   1.767 -0.9196 -1.2482  1.8991
 5981TIP3    H239359   6.390   3.200   1.840 -2.3946 -1.7320  0.7562
 5982TIP3   OH239360   2.320   4.020   3.724  0.1409  0.5234  0.4131
 5982TIP3    H139361   2.297   3.930   3.746  0.6485 -0.1694 -1.6978
 5982TIP3    H239362   2.285   4.034   3.636  0.1438  2.3816  0.6499
 5983TIP3   OH239363   1.432   3.978  16.530 -0.0741  0.0069  0.4668
 5983TIP3    H139364   1.393   4.064  16.516  1.0424  0.4191 -0.2345
 5983TIP3    H239365   1.443   3.942  16.442 -0.5318 -0.8594  0.7526
 5984TIP3   OH239366   1.663   2.737   3.269  0.0887  0.5977 -0.3091
 5984TIP3    H139367   1.745   2.785   3.273 -0.8596  2.3967 -1.2608
 5984TIP3    H239368   1.660   2.701   3.180 -0.6251  1.4766 -0.6554
 5985TIP3   OH239369   1.986   6.407   1.699  0.2176 -0.0868  0.2822
 5985TIP3    H139370   1.908   6.461   1.703  1.0370  1.1379  0.3309
 5985TIP3    H239371   1.993   6.381   1.607 -1.5824 -2.3208  0.6797
 5986TIP3   OH239372   3.196   2.072   3.432  0.1115 -0.1325 -0.2419
 5986TIP3    H139373   3.169   2.046   3.344 -1.5461 -0.5739  0.3578
 5986TIP3    H239374   3.270   2.014   3.453  1.1104  0.5720 -1.6446
 5987TIP3   OH239375   5.814   1.705   4.430 -0.1799  0.2449 -0.2347
 5987TIP3    H139376   5.834   1.666   4.515  1.1872 -1.4437 -1.2760
 5987TIP3    H239377   5.873   1.780   4.424  1.1960 -0.8233 -0.5025
 5988TIP3   OH239378   0.068   5.846  12.990  0.6783  0.2047  0.2248
 5988TIP3    H139379   0.036   5.770  13.039 -0.6636  1.3997  1.2918
 5988TIP3    H239380   0.129   5.888  13.050  0.5765  0.5640  0.0768
 5989TIP3   OH239381   2.283   3.830  16.667  0.3827 -0.0579 -0.5741
 5989TIP3    H139382   2.376   3.854  16.670  0.5867 -0.7915  2.1656
 5989TIP3    H239383   2.258   3.821  16.759 -2.3483 -0.2229 -1.2394
 5990TIP3   OH239384   0.484   2.903   4.695  0.5383  0.6360 -0.3838
 5990TIP3    H139385   0.448   2.917   4.782  0.2525 -1.6040 -0.0665
 5990TIP3    H239386   0.463   2.982   4.647 -2.1879  0.6601  0.6521
 5991TIP3   OH239387   3.904   3.442  14.612 -0.1328 -0.4967  0.1616
 5991TIP3    H139388   3.939   3.418  14.526 -0.9749 -0.8082 -0.1064
 5991TIP3    H239389   3.951   3.521  14.636  0.3895 -0.6230 -0.4118
 5992TIP3   OH239390   0.959   2.416   1.668 -0.0652 -0.1060  0.0514
 5992TIP3    H139391   0.974   2.406   1.574 -1.3269  1.1927 -0.3325
 5992TIP3    H239392   0.865   2.436   1.675 -0.1173 -0.7270  1.6452
 5993TIP3   OH239393   3.399   5.515   6.430  0.1240  0.0140 -0.5477
 5993TIP3    H139394   3.430   5.438   6.383  0.4766 -0.4580  0.4170
 5993TIP3    H239395   3.390   5.582   6.363 -0.3040 -0.8883 -1.4324
 5994TIP3   OH239396   6.199   6.034  12.297 -0.7759 -0.1617  0.3140
 5994TIP3    H139397   6.222   5.998  12.383  0.2258  1.1935  0.6489
 5994TIP3    H239398   6.168   6.123  12.316  0.1611  0.4186 -0.7808
 5995TIP3   OH239399   3.043   3.678  12.238  0.2908 -0.1354  0.1357
 5995TIP3    H139400   3.064   3.770  12.219  0.5207 -0.2270 -0.0584
 5995TIP3    H239401   3.105   3.628  12.184  0.2169 -0.4031  0.2999
 5996TIP3   OH239402   1.094   6.446   5.587 -0.0171 -0.4583  0.1711
 5996TIP3    H139403   1.055   6.372   5.541 -0.4155 -0.1467 -0.0047
 5996TIP3    H239404   1.066   6.523   5.536 -0.2884 -0.1276  0.8082
 5997TIP3   OH239405   0.076   0.422  16.659  0.0377 -0.1943 -0.2750
 5997TIP3    H139406   0.151   0.482  16.664  0.3486 -0.5642 -0.4712
 5997TIP3    H239407   0.000   0.477  16.676  0.1574  0.5797 -2.0805
 5998TIP3   OH239408   1.291   3.211  11.704  0.2025  0.2330 -0.3932
 5998TIP3    H139409   1.344   3.138  11.737 -1.5278 -0.8054  0.2003
 5998TIP3    H239410   1.326   3.228  11.616  2.1625  0.2892  0.3328
 5999TIP3   OH239411   2.230   6.410   4.992  0.5591 -0.0584  0.1448
 5999TIP3    H139412   2.171   6.483   4.972  2.5294  1.4389 -0.4927
 5999TIP3    H239413   2.252   6.422   5.085  1.0792  0.2977 -0.0262
 6000TIP3   OH239414   6.165   6.616  11.187  0.2492  0.6650  0.1594
 6000TIP3    H139415   6.078   6.641  11.218 -0.3367 -1.6015  0.5091
 6000TIP3    H239416   6.207   6.577  11.264 -0.3605 -2.9154 -1.1408
 6001TIP3   OH239417   2.216   3.146   0.658 -0.4804  0.4043 -0.1420
 6001TIP3    H139418   2.307   3.129   0.635 -0.5655  1.7861 -1.6441
 6001TIP3    H239419   2.200   3.089   0.733  0.5063 -2.6868 -2.0716
 6002TIP3   OH239420   0.802   3.111   3.979 -0.3414  0.0227 -0.4029
 6002TIP3    H139421   0.879   3.054   3.971 -0.1779  0.2635 -0.5640
 6002TIP3    H239422   0.827   3.192   3.934 -0.1361  0.6742  0.8284
 6003TIP3   OH239423   4.845   1.073  12.835 -0.2841  0.3338  0.0251
 6003TIP3    H139424   4.884   1.073  12.922  0.7027 -1.1133 -0.3879
 6003TIP3    H239425   4.755   1.043  12.848 -0.1168  0.0552  0.5378
 6004TIP3   OH239426   0.052   3.943   4.952  0.3517  0.1433 -0.3371
 6004TIP3    H139427   0.084   3.953   5.041  1.2392 -0.1790 -0.6153
 6004TIP3    H239428   0.035   3.849   4.944 -0.0095  0.2141 -0.4148
 6005TIP3   OH239429   3.122   1.168  10.542  0.6145  0.1994  0.4354
 6005TIP3    H139430   3.187   1.104  10.515  0.1967 -0.6964  1.4797
 6005TIP3    H239431   3.041   1.119  10.551  0.4639  0.6792  2.0325
 6006TIP3   OH239432   6.018   3.012  13.779 -0.2683 -0.4670 -0.7297
 6006TIP3    H139433   6.006   2.935  13.722  1.5109 -0.6866 -0.8774
 6006TIP3    H239434   6.079   3.068  13.730 -0.2218  0.2471  0.1297
 6007TIP3   OH239435   0.694   3.692   1.264  0.3905  0.2878  0.2073
 6007TIP3    H139436   0.649   3.771   1.292 -3.4808 -2.0768  1.4311
 6007TIP3    H239437   0.702   3.639   1.344 -0.2462 -1.8771 -1.0730
 6008TIP3   OH239438   5.663   4.401   4.956  0.5496  0.1787 -0.1787
 6008TIP3    H139439   5.621   4.471   5.005  1.2402  1.0940 -0.8443
 6008TIP3    H239440   5.600   4.379   4.887  0.6223  0.6767 -0.4137
 6009TIP3   OH239441   1.206   2.495  14.571  0.5746  0.1675  0.4738
 6009TIP3    H139442   1.242   2.540  14.647  0.4661  0.2201  0.4949
 6009TIP3    H239443   1.122   2.539  14.555 -0.1497 -0.8711  1.2796
 6010TIP3   OH239444   2.864   3.025  12.325 -0.1496  0.6332 -0.1728
 6010TIP3    H139445   2.861   2.947  12.269  1.1227  0.5012 -0.0847
 6010TIP3    H239446   2.808   3.089  12.280  0.4421  0.3617 -1.3238
 6011TIP3   OH239447   2.969   6.509   1.782 -0.0838 -0.3060  0.3819
 6011TIP3    H139448   2.916   6.494   1.861 -1.0709  2.4507  0.3802
 6011TIP3    H239449   3.001   6.599   1.793 -2.0216  1.0120 -3.2789
 6012TIP3   OH239450   3.317   2.000  12.866 -0.4091  0.0404  0.0259
 6012TIP3    H139451   3.285   1.933  12.805 -0.9262  0.6900 -0.4237
 6012TIP3    H239452   3.400   1.964  12.899  0.0124 -0.1993 -1.2547
 6013TIP3   OH239453   1.280   6.201  14.123  0.0723  0.2073  0.2490
 6013TIP3    H139454   1.317   6.222  14.037  0.9127  0.3220  0.6234
 6013TIP3    H239455   1.254   6.109  14.116  0.5273  0.0913 -0.0113
 6014TIP3   OH239456   6.769   3.118   1.183  0.1744  0.0131 -0.4490
 6014TIP3    H139457   6.799   3.028   1.176 -1.0114 -0.4532  0.0928
 6014TIP3    H239458   6.685   3.119   1.137 -0.5637  0.4480  0.8375
 6015TIP3   OH239459   3.485   3.377   4.252 -0.1385  0.0151 -0.0721
 6015TIP3    H139460   3.513   3.456   4.298 -0.0674 -1.0174  1.7197
 6015TIP3    H239461   3.566   3.329   4.235 -0.3603 -0.6734  0.7699
 6016TIP3   OH239462   4.336   5.016  11.992  0.3972 -0.2310 -0.3817
 6016TIP3    H139463   4.262   4.957  12.010  0.2465 -0.6442 -2.1795
 6016TIP3    H239464   4.318   5.094  12.045 -0.4589 -0.9766  0.4688
 6017TIP3   OH239465   3.673   1.313   0.617 -0.1679  0.0375 -0.8764
 6017TIP3    H139466   3.604   1.344   0.559  0.3384 -0.4151 -1.7563
 6017TIP3    H239467   3.654   1.220   0.629  0.4779 -0.1875 -1.4514
 6018TIP3   OH239468   3.579   6.422  14.281 -0.5997 -0.0790 -0.2933
 6018TIP3    H139469   3.566   6.493  14.343  1.2706 -0.6477  0.8390
 6018TIP3    H239470   3.522   6.444  14.207 -0.4989  2.3029  0.2464
 6019TIP3   OH239471   2.396   5.124   2.277  0.2035  0.1650  0.5058
 6019TIP3    H139472   2.482   5.115   2.237  0.2132  0.6601  0.4023
 6019TIP3    H239473   2.412   5.125   2.371  0.2575 -0.2329  0.5043
 6020TIP3   OH239474   5.994   2.303   3.299  0.2016 -0.3637  0.3310
 6020TIP3    H139475   6.007   2.352   3.380  0.1126  0.5504 -0.1941
 6020TIP3    H239476   6.080   2.265   3.280  0.6437  0.7220  0.0369
 6021TIP3   OH239477   0.991   2.757   0.125 -0.3778  1.0944  0.2969
 6021TIP3    H139478   0.937   2.716   0.192  1.0333  2.0833  2.1133
 6021TIP3    H239479   1.036   2.684   0.082 -0.6030  0.5097  1.0413
 6022TIP3   OH239480   3.217   0.640   3.604 -0.4213  0.2230  0.5691
 6022TIP3    H139481   3.161   0.590   3.662  1.6340  0.0887  2.6058
 6022TIP3    H239482   3.242   0.717   3.656  0.5427  0.7208 -0.5822
 6023TIP3   OH239483   5.853   4.566   4.241  0.3219 -0.0543 -0.0615
 6023TIP3    H139484   5.767   4.608   4.249  1.3151  1.9534  0.5547
 6023TIP3    H239485   5.865   4.521   4.324  0.0975  0.1165  0.0658
 6024TIP3   OH239486   5.887   4.048   3.046 -0.2579 -0.0924  0.4041
 6024TIP3    H139487   5.853   4.136   3.030 -0.9463  0.0481  2.3286
 6024TIP3    H239488   5.896   4.043   3.142  0.1644 -1.9617  0.3016
 6025TIP3   OH239489   3.914   6.064   0.928 -0.6536 -0.8405  0.1843
 6025TIP3    H139490   3.992   6.025   0.968 -0.6223 -0.4267  0.5370
 6025TIP3    H239491   3.944   6.095   0.843 -0.3253 -0.3397  0.4702
 6026TIP3   OH239492   1.918   4.183  13.959 -0.1055  0.4908  0.1036
 6026TIP3    H139493   1.825   4.201  13.973 -0.7620 -2.0127 -0.5716
 6026TIP3    H239494   1.922   4.138  13.875  1.7613  0.7590 -0.0030
 6027TIP3   OH239495   3.311   1.268   5.042 -0.1138  0.0720 -0.0673
 6027TIP3    H139496   3.392   1.319   5.038  0.0848 -0.2982 -1.4449
 6027TIP3    H239497   3.340   1.177   5.033 -0.6533 -0.0723 -0.4235
 6028TIP3   OH239498   4.535   2.153  16.616 -0.3585  0.3728  0.2942
 6028TIP3    H139499   4.490   2.127  16.696  0.8277  0.3055  0.9571
 6028TIP3    H239500   4.605   2.211  16.645 -0.5673  1.2242 -0.8079
 6029TIP3   OH239501   4.610   6.737   3.285  0.1648 -0.5697  0.5250
 6029TIP3    H139502   4.648   6.772   3.366  1.0968  0.3487 -0.2612
 6029TIP3    H239503   4.518   6.761   3.289  0.6516  1.5368  0.3061
 6030TIP3   OH239504   5.383   4.516  11.781  0.1582 -1.0366  0.7348
 6030TIP3    H139505   5.323   4.466  11.726 -0.2090  0.2351 -0.0793
 6030TIP3    H239506   5.436   4.566  11.719 -1.0198  1.3010  1.4806
 6031TIP3   OH239507   2.198   0.097  14.995 -0.1185 -0.9068 -0.5098
 6031TIP3    H139508   2.119   0.062  14.953 -0.1393  1.4775 -2.6791
 6031TIP3    H239509   2.197   0.190  14.974  1.5438 -0.1407  2.3331
 6032TIP3   OH239510   0.179   1.623   1.055  0.2196 -0.4399  0.2971
 6032TIP3    H139511   0.148   1.650   0.969 -0.8521  1.2028  1.1425
 6032TIP3    H239512   0.218   1.703   1.093  1.6823 -1.4040  0.9193
 6033TIP3   OH239513   5.740   1.044   4.837 -0.3102  0.4997  0.2265
 6033TIP3    H139514   5.767   1.031   4.746 -1.8624  1.0630 -0.3569
 6033TIP3    H239515   5.684   1.122   4.834 -0.9004  0.1562  1.5526
 6034TIP3   OH239516   3.115   0.307   4.658 -0.4641 -0.2445 -0.7929
 6034TIP3    H139517   3.036   0.325   4.709  0.5588 -0.0443  0.8135
 6034TIP3    H239518   3.182   0.287   4.724  1.0031  0.2848 -2.0524
 6035TIP3   OH239519   3.143   0.591   3.348  0.0396 -0.0196 -0.6031
 6035TIP3    H139520   3.157   0.605   3.441 -0.3269  0.1073 -0.5691
 6035TIP3    H239521   3.092   0.667   3.319  0.9678  0.4363 -1.1033
 6036TIP3   OH239522   4.173   1.078   4.689 -0.0811 -0.0735  0.3762
 6036TIP3    H139523   4.266   1.088   4.668 -0.3348 -0.1772 -0.8639
 6036TIP3    H239524   4.172   1.048   4.780  1.0952 -0.0765  0.4044
 6037TIP3   OH239525   5.759   1.412   3.580  0.5476  0.2446 -0.1945
 6037TIP3    H139526   5.680   1.406   3.526  0.4999  1.2861 -0.2663
 6037TIP3    H239527   5.731   1.458   3.659  1.3778  1.9854 -0.8680
 6038TIP3   OH239528   5.347   4.819  14.501 -0.0427  0.1455  0.0452
 6038TIP3    H139529   5.264   4.866  14.492 -1.1849 -1.5417  1.3034
 6038TIP3    H239530   5.353   4.767  14.421  0.5937  1.3759 -0.7482
 6039TIP3   OH239531   1.610   3.398  14.972  0.2434  0.3783  0.5637
 6039TIP3    H139532   1.698   3.382  14.937  0.2247  0.8284  0.3092
 6039TIP3    H239533   1.592   3.321  15.028  0.5433 -0.0170  0.1232
 6040TIP3   OH239534   6.727   1.393  13.164 -0.1481  0.0264 -0.0256
 6040TIP3    H139535   6.783   1.361  13.234 -0.5456 -1.2584 -0.2583
 6040TIP3    H239536   6.686   1.471  13.199 -1.3089 -1.2741  1.6892
 6041TIP3   OH239537   3.227   2.521  15.505 -0.4685  0.0771 -0.2351
 6041TIP3    H139538   3.165   2.580  15.462 -0.1446 -0.6345 -1.7122
 6041TIP3    H239539   3.260   2.466  15.435  1.8974  0.4763  0.4933
 6042TIP3   OH239540   3.393   1.980   2.834  0.2297 -0.0373 -0.1449
 6042TIP3    H139541   3.472   1.958   2.784 -0.4853  0.2578 -1.4387
 6042TIP3    H239542   3.425   2.037   2.904  0.8793  2.5765 -2.3688
 6043TIP3   OH239543   6.214   2.167   3.238 -0.0242 -0.5320 -0.7484
 6043TIP3    H139544   6.251   2.145   3.153  2.8046  4.7778 -1.2831
 6043TIP3    H239545   6.283   2.145   3.301 -0.5841 -0.9317 -0.2606
 6044TIP3   OH239546   1.351   0.903  14.042  0.4773 -0.6214  0.4491
 6044TIP3    H139547   1.354   0.937  14.131  0.7199  0.2740  0.1132
 6044TIP3    H239548   1.371   0.810  14.051 -0.5147 -0.7553  1.4221
 6045TIP3   OH239549   6.093   4.045  16.927 -0.1271  0.5653  0.5217
 6045TIP3    H139550   6.010   4.005  16.901 -0.3840  0.9155  0.8039
 6045TIP3    H239551   6.092   4.131  16.887  0.2895  0.4149  0.1810
 6046TIP3   OH239552   0.756   2.681   4.101  0.0012  0.1908  0.0769
 6046TIP3    H139553   0.716   2.768   4.104 -2.1695 -0.6342 -1.8423
 6046TIP3    H239554   0.819   2.681   4.173 -1.5623  2.5628  1.5950
 6047TIP3   OH239555   4.014   3.992   4.356 -0.0688 -0.2866  0.2034
 6047TIP3    H139556   4.005   4.061   4.422  0.3930  0.2226 -0.2565
 6047TIP3    H239557   3.997   4.036   4.273 -0.3373 -0.8577 -0.0543
 6048TIP3   OH239558   0.647   3.717  15.312  0.1697  0.3759 -0.4003
 6048TIP3    H139559   0.673   3.690  15.224  1.8147  1.0876 -0.1629
 6048TIP3    H239560   0.616   3.807  15.303 -1.1944 -0.0863 -0.4928
 6049TIP3   OH239561   3.928   4.670  12.275  0.1373 -0.1426  0.8537
 6049TIP3    H139562   3.849   4.688  12.224  0.6597 -0.2667 -0.0287
 6049TIP3    H239563   3.990   4.634  12.211  0.5076 -1.1732  1.7662
 6050TIP3   OH239564   2.352   0.800   3.112 -0.0146 -0.2686 -0.3345
 6050TIP3    H139565   2.336   0.713   3.149  0.4151 -0.5979 -0.9022
 6050TIP3    H239566   2.265   0.833   3.090 -0.1715 -0.5916 -0.2079
 6051TIP3   OH239567   3.526   0.708   3.720 -0.1330  0.0418 -0.3254
 6051TIP3    H139568   3.523   0.619   3.755  1.7878 -0.3247 -0.9785
 6051TIP3    H239569   3.567   0.699   3.635  0.9483  1.6574 -0.0214
 6052TIP3   OH239570   1.048   2.545  15.537  0.5422 -0.3191 -0.1711
 6052TIP3    H139571   1.047   2.593  15.619  2.1300 -1.2657  0.4361
 6052TIP3    H239572   1.095   2.603  15.476  0.7206 -0.2667  0.0147
 6053TIP3   OH239573   0.577   4.222  11.755  0.5030 -0.2957 -0.2020
 6053TIP3    H139574   0.629   4.199  11.678  0.5730 -0.2081 -0.1817
 6053TIP3    H239575   0.641   4.248  11.821  0.4746 -0.9064  0.0732
 6054TIP3   OH239576   4.265   1.707   3.506 -0.0270  0.2115 -0.2936
 6054TIP3    H139577   4.314   1.786   3.527  1.0156 -0.7048  0.8533
 6054TIP3    H239578   4.237   1.672   3.590 -1.8407  0.1690 -0.8717
 6055TIP3   OH239579   2.264   0.911  14.714  0.0993  0.2219 -0.4525
 6055TIP3    H139580   2.176   0.924  14.751 -0.4524 -1.0538 -1.2443
 6055TIP3    H239581   2.275   0.984  14.653  0.8540  2.1219  1.7954
 6056TIP3   OH239582   0.891   4.400   2.259 -0.0918 -0.3880 -0.3638
 6056TIP3    H139583   0.967   4.430   2.208 -1.3821 -0.3849 -2.4046
 6056TIP3    H239584   0.881   4.308   2.236 -2.0988  0.1719 -2.1218
 6057TIP3   OH239585   4.661   0.517   3.264 -0.0999 -0.7817  0.8180
 6057TIP3    H139586   4.622   0.565   3.191  1.3314 -0.5587  0.1628
 6057TIP3    H239587   4.670   0.583   3.333  1.1059 -0.2569  0.2026
 6058TIP3   OH239588   1.288   0.515  16.271 -0.0472 -0.3209 -0.2019
 6058TIP3    H139589   1.361   0.461  16.304 -0.5232 -0.5397  0.5123
 6058TIP3    H239590   1.210   0.475  16.309 -0.3155  1.7746  1.6241
 6059TIP3   OH239591   4.659   4.553   5.433 -0.6288 -0.1154  0.4700
 6059TIP3    H139592   4.581   4.542   5.488 -0.2292  0.4384  1.1691
 6059TIP3    H239593   4.677   4.466   5.398 -1.7500 -0.1847  0.0314
 6060TIP3   OH239594   0.966   4.698  14.173 -0.0103  0.0741  0.2769
 6060TIP3    H139595   0.876   4.669  14.190  0.3604 -1.8017 -0.7276
 6060TIP3    H239596   1.000   4.724  14.258 -1.4284  0.6512  0.6950
 6061TIP3   OH239597   5.972   1.099   4.993  0.3615 -0.0593  0.6890
 6061TIP3    H139598   5.954   1.165   5.060  0.9014  0.5640  0.2346
 6061TIP3    H239599   5.888   1.086   4.949  0.2280  0.2568  0.8473
 6062TIP3   OH239600   4.691   0.878   0.505  0.0804 -0.1865 -0.3309
 6062TIP3    H139601   4.760   0.812   0.498  1.8963  1.3590  1.4596
 6062TIP3    H239602   4.624   0.838   0.559 -0.0335 -1.3948 -1.3240
 6063TIP3   OH239603   3.845   0.407  13.341 -0.5591  0.1563 -0.0923
 6063TIP3    H139604   3.865   0.327  13.293  0.2156  0.4647 -0.2888
 6063TIP3    H239605   3.828   0.472  13.273 -0.3136  0.3803  0.0641
 6064TIP3   OH239606   5.579   3.750  11.376 -0.5055  0.0762 -0.1485
 6064TIP3    H139607   5.516   3.693  11.420 -1.7660 -0.6012 -2.6357
 6064TIP3    H239608   5.583   3.828  11.431 -2.4480 -0.4537  0.8311
 6065TIP3   OH239609   6.427   4.288  10.871 -0.3611  0.1386 -0.0821
 6065TIP3    H139610   6.339   4.306  10.837  0.0108  2.7602  0.1108
 6065TIP3    H239611   6.481   4.277  10.792 -0.2713  2.0558 -0.3387
 6066TIP3   OH239612   3.119   4.682   2.450 -0.1915 -0.2568  0.2372
 6066TIP3    H139613   3.090   4.772   2.432 -3.9796 -0.5461  3.4643
 6066TIP3    H239614   3.205   4.692   2.490 -0.1435  1.8162 -0.2630
 6067TIP3   OH239615   6.733   1.824   5.235  0.0719 -0.0960  0.5023
 6067TIP3    H139616   6.777   1.748   5.273 -0.7841 -0.4498  0.8261
 6067TIP3    H239617   6.704   1.795   5.149  0.6855  0.2211  0.1803
 6068TIP3   OH239618   5.510   4.212   2.863 -0.4198  0.2295  0.2515
 6068TIP3    H139619   5.429   4.236   2.818 -0.0780 -1.4608 -1.4148
 6068TIP3    H239620   5.578   4.265   2.821 -0.3793  0.1180  0.1754
 6069TIP3   OH239621   2.486   2.978   3.865  0.0047  0.3498 -0.0772
 6069TIP3    H139622   2.565   2.933   3.894 -0.2552 -0.7917 -1.0463
 6069TIP3    H239623   2.478   2.956   3.772  0.3012  3.1297 -0.8344
 6070TIP3   OH239624   3.922   4.212   2.020 -0.4035  0.0017  0.2678
 6070TIP3    H139625   3.979   4.287   2.036 -1.1283  0.2299  1.8948
 6070TIP3    H239626   3.879   4.232   1.937  0.0398  0.9725  0.2539
 6071TIP3   OH239627   1.336   0.833   0.054 -0.0787 -0.4469 -0.3452
 6071TIP3    H139628   1.418   0.880   0.069 -0.3617  0.5287 -1.6743
 6071TIP3    H239629   1.346   0.751   0.103  1.1773  0.1875  0.5137
 6072TIP3   OH239630   2.773   1.539  13.013 -0.4199  0.6323  0.1164
 6072TIP3    H139631   2.855   1.569  12.973 -0.4834 -2.1514 -2.4961
 6072TIP3    H239632   2.800   1.466  13.069 -0.9380  1.2260  1.1802
 6073TIP3   OH239633   2.406   5.602   4.505 -0.6156  0.2708 -0.1846
 6073TIP3    H139634   2.417   5.646   4.421  1.0588 -0.3563 -0.3241
 6073TIP3    H239635   2.417   5.671   4.571 -1.8995  0.7550 -0.4455
 6074TIP3   OH239636   0.411   2.181   2.152 -0.0518 -0.2712 -0.1859
 6074TIP3    H139637   0.339   2.167   2.090  1.0199 -0.9463 -1.3220
 6074TIP3    H239638   0.469   2.242   2.107  1.6747 -2.1904 -0.7142
 6075TIP3   OH239639   6.666   5.046   5.368  0.1949  0.0980  0.5859
 6075TIP3    H139640   6.744   5.007   5.328 -0.8826 -1.4424 -0.0892
 6075TIP3    H239641   6.676   5.028   5.462  1.9584  2.3476  0.9136
 6076TIP3   OH239642   1.461   3.411   5.024  0.2288  0.2381  0.1640
 6076TIP3    H139643   1.529   3.464   4.984 -0.9366  2.1298  0.5628
 6076TIP3    H239644   1.483   3.411   5.117 -1.2180  2.4214  0.5822
 6077TIP3   OH239645   2.327   2.494  15.848  0.3826 -0.0018 -0.0307
 6077TIP3    H139646   2.376   2.433  15.903  1.0326  0.6950  0.1936
 6077TIP3    H239647   2.334   2.458  15.760 -1.2381 -1.4851  0.4099
 6078TIP3   OH239648   5.600   2.966  10.914 -0.2378 -0.0301  0.2525
 6078TIP3    H139649   5.600   3.031  10.985  0.6952  0.4029 -0.1262
 6078TIP3    H239650   5.667   2.998  10.853 -0.9100 -0.4804 -0.7466
 6079TIP3   OH239651   4.680   6.205  15.762  0.4319  0.2753  0.2040
 6079TIP3    H139652   4.616   6.139  15.735  0.8061  0.4783 -1.2929
 6079TIP3    H239653   4.694   6.258  15.683  1.7607  0.7910  0.7587
 6080TIP3   OH239654   5.059   3.541   0.959  0.2435  0.1103 -0.2675
 6080TIP3    H139655   5.004   3.501   0.893  0.0652 -0.7650  0.3964
 6080TIP3    H239656   4.998   3.581   1.021  0.2483 -2.0483  1.2198
 6081TIP3   OH239657   0.768   4.679  16.234 -0.8680 -0.0305  0.5361
 6081TIP3    H139658   0.808   4.726  16.161  0.1691 -0.2952  0.9126
 6081TIP3    H239659   0.716   4.610  16.194 -2.4254  1.3803 -0.0372
 6082TIP3   OH239660   4.211   2.256  12.301 -0.1359  0.0835 -0.0182
 6082TIP3    H139661   4.282   2.256  12.365 -0.3287 -1.3026  0.2297
 6082TIP3    H239662   4.134   2.283  12.351  0.0726  0.8691 -0.1163
 6083TIP3   OH239663   0.078   2.099   0.184 -0.2200  0.2510  0.3117
 6083TIP3    H139664   0.173   2.111   0.192 -0.3286  1.4971 -0.1490
 6083TIP3    H239665   0.053   2.148   0.107 -1.6617  2.4846  2.0698
 6084TIP3   OH239666   2.694   3.566   2.099  0.0599 -0.1620  0.3083
 6084TIP3    H139667   2.714   3.541   2.190 -1.0328 -1.1460  0.3124
 6084TIP3    H239668   2.724   3.656   2.091  1.2264 -0.4360  1.3027
 6085TIP3   OH239669   3.762   1.823  15.047  0.0057  0.1643 -0.2021
 6085TIP3    H139670   3.721   1.747  15.088 -0.7017  0.6153 -0.0671
 6085TIP3    H239671   3.760   1.891  15.114  0.0449  0.5038 -0.5415
 6086TIP3   OH239672   2.968   0.421  12.627  0.6401  0.2499 -0.6490
 6086TIP3    H139673   2.931   0.484  12.565  1.4693  1.5575  0.1364
 6086TIP3    H239674   2.916   0.341  12.613 -1.5926  1.5794 -0.5080
 6087TIP3   OH239675   1.852   2.447   4.793  0.6484 -0.1482 -0.0195
 6087TIP3    H139676   1.822   2.489   4.874  0.0603 -0.6663  0.0356
 6087TIP3    H239677   1.855   2.519   4.729 -1.3181 -0.1675 -0.1880
 6088TIP3   OH239678   2.340   4.491  12.128 -0.0260 -0.3227  0.0485
 6088TIP3    H139679   2.406   4.506  12.196 -0.7926  1.0533  0.5392
 6088TIP3    H239680   2.368   4.410  12.085  2.3536  0.5426 -0.1971
 6089TIP3   OH239681   0.682   3.173   3.333  0.3124  0.7171 -0.1056
 6089TIP3    H139682   0.614   3.235   3.308  0.1336  1.5074  2.0726
 6089TIP3    H239683   0.644   3.087   3.314 -0.6472  1.1954 -0.4083
 6090TIP3   OH239684   2.490   5.888  14.988 -0.0635 -0.0361  0.0693
 6090TIP3    H139685   2.531   5.897  14.902  0.7041  3.7791  0.6291
 6090TIP3    H239686   2.397   5.875  14.970  0.2313 -0.2945 -1.3358
 6091TIP3   OH239687   2.245   4.384  13.474  0.1418 -0.6094  0.0754
 6091TIP3    H139688   2.173   4.412  13.418 -1.0186 -2.8093  0.3410
 6091TIP3    H239689   2.323   4.426  13.436 -1.0709  0.7190 -1.0515
 6092TIP3   OH239690   4.975   3.249   5.497 -0.1523  0.0498 -0.3770
 6092TIP3    H139691   4.890   3.255   5.540  0.3051 -0.1061  0.5920
 6092TIP3    H239692   4.980   3.327   5.442 -0.8825  0.1040 -0.3787
 6093TIP3   OH239693   1.758   1.304  12.807  0.7634 -0.0490 -0.5480
 6093TIP3    H139694   1.821   1.247  12.762  0.0754 -1.2650 -0.0142
 6093TIP3    H239695   1.676   1.255  12.806  0.5752  0.1008  1.4942
 6094TIP3   OH239696   1.313   6.405   3.338  0.2775  0.6765 -0.4687
 6094TIP3    H139697   1.248   6.412   3.408  0.2193 -0.7312 -0.3408
 6094TIP3    H239698   1.302   6.315   3.305  1.8363  0.5706 -0.7651
 6095TIP3   OH239699   2.491   1.687   4.207 -0.3503  0.2817  1.1142
 6095TIP3    H139700   2.547   1.644   4.143  2.1243  2.9059  1.3577
 6095TIP3    H239701   2.408   1.640   4.201  1.4238 -2.9900 -0.1580
 6096TIP3   OH239702   4.412   2.101  15.485 -0.2919 -0.0216  0.4683
 6096TIP3    H139703   4.403   2.010  15.457 -1.1448 -0.5437  2.2767
 6096TIP3    H239704   4.461   2.144  15.414  1.8552 -2.3057  0.4484
 6097TIP3   OH239705   5.152   2.751   1.184 -0.2808 -0.0651  0.2200
 6097TIP3    H139706   5.154   2.742   1.089  0.2965  0.6787  0.1499
 6097TIP3    H239707   5.090   2.822   1.200 -0.3373 -0.1532  0.3915
 6098TIP3   OH239708   3.641   2.713   4.494  0.2878  0.1353  0.1337
 6098TIP3    H139709   3.561   2.764   4.485  0.9261  1.5909  2.1047
 6098TIP3    H239710   3.655   2.707   4.588  2.8271  0.4485 -0.1635
 6099TIP3   OH239711   1.677   0.768  12.601  0.1652 -0.1392 -0.4656
 6099TIP3    H139712   1.681   0.751  12.507  1.0092 -0.2418 -0.4177
 6099TIP3    H239713   1.585   0.788  12.618  0.2409  1.1987 -1.5307
 6100TIP3   OH239714   4.966   5.108  14.100  0.1520  0.0271 -0.2383
 6100TIP3    H139715   4.931   5.037  14.154  0.0726 -0.2805 -0.6929
 6100TIP3    H239716   5.058   5.113  14.125  0.2737 -0.5660 -0.5607
 6101TIP3   OH239717   2.536   5.453  12.427  0.1926  0.3876  0.2715
 6101TIP3    H139718   2.470   5.519  12.403  1.0622  1.1386 -0.0902
 6101TIP3    H239719   2.609   5.469  12.367  1.3464  0.6016  1.6786
 6102TIP3   OH239720   2.341   4.085  10.577  0.2844 -0.1312  0.0113
 6102TIP3    H139721   2.357   4.119  10.489  0.3068 -0.6670 -0.1965
 6102TIP3    H239722   2.405   4.130  10.632 -0.2943  0.8426 -0.0923
 6103TIP3   OH239723   0.856   4.494  10.765  0.3514  0.1333  0.1038
 6103TIP3    H139724   0.782   4.555  10.763  0.5108  0.4875  2.2688
 6103TIP3    H239725   0.827   4.419  10.713 -1.0603  0.7432 -0.0439
 6104TIP3   OH239726   1.002   0.460  16.765  0.5056 -0.0788  0.1459
 6104TIP3    H139727   0.942   0.473  16.839 -0.2766  0.8371 -0.6075
 6104TIP3    H239728   1.024   0.367  16.767 -0.9994 -0.4569  0.4320
 6105TIP3   OH239729   0.650   6.723  11.270  0.4945  0.4950  0.5031
 6105TIP3    H139730   0.630   6.730  11.364  0.3230  0.5685  0.4608
 6105TIP3    H239731   0.650   6.813  11.239  0.6772  0.4789  0.4582
 6106TIP3   OH239732   2.382   4.565   3.216  0.9479  0.4973  0.2603
 6106TIP3    H139733   2.358   4.648   3.175  1.7008  1.1147  1.0038
 6106TIP3    H239734   2.462   4.585   3.265  2.6264 -1.2610 -1.5759
 6107TIP3   OH239735   1.009   5.032   2.876  0.0314  0.0241  0.4532
 6107TIP3    H139736   1.062   5.018   2.797 -0.6981  0.2840 -0.0999
 6107TIP3    H239737   1.062   4.997   2.947  0.7974 -0.0315 -0.1255
 6108TIP3   OH239738   3.906   6.493  12.876  0.1784  0.4225 -0.0176
 6108TIP3    H139739   3.876   6.505  12.786  1.6558  1.0616 -0.4432
 6108TIP3    H239740   3.951   6.575  12.898  1.0270 -0.2477  0.8239
 6109TIP3   OH239741   1.294   0.954  15.610 -0.5074 -0.0140  0.4943
 6109TIP3    H139742   1.314   0.960  15.516  1.5632 -2.5256  0.6623
 6109TIP3    H239743   1.310   1.041  15.644  0.5833  0.4861 -1.1822
 6110TIP3   OH239744   0.759   4.525   2.460  0.4233  0.2858 -0.1813
 6110TIP3    H139745   0.671   4.544   2.430 -0.8188 -1.2594  2.1666
 6110TIP3    H239746   0.807   4.502   2.380 -2.4193 -2.7439 -1.2742
 6111TIP3   OH239747   0.081   2.374  12.014  0.1698 -0.6828  0.1183
 6111TIP3    H139748   0.129   2.294  12.038  1.9820 -0.2029 -1.5823
 6111TIP3    H239749   0.139   2.445  12.041 -0.1767 -0.0388 -0.7899
 6112TIP3   OH239750   2.414   4.308   5.302  0.3196 -0.1574 -0.7726
 6112TIP3    H139751   2.380   4.365   5.233 -0.6676 -0.7013 -0.7587
 6112TIP3    H239752   2.379   4.345   5.383 -1.1093 -1.2815 -0.8365
 6113TIP3   OH239753   6.001   3.863  15.358  0.1720 -0.2946 -0.1171
 6113TIP3    H139754   5.952   3.801  15.412  0.6382  0.5054  1.2698
 6113TIP3    H239755   5.952   3.945  15.364  0.1289 -0.2338 -1.0759
 6114TIP3   OH239756   6.750   5.867  16.817  0.3457 -0.3110 -0.1718
 6114TIP3    H139757   6.793   5.915  16.888 -0.8639 -1.3888  1.3605
 6114TIP3    H239758   6.781   5.777  16.826  0.8894 -0.2925 -1.6186
 6115TIP3   OH239759   0.893   6.474  11.770 -0.0366 -0.1414  0.2754
 6115TIP3    H139760   0.957   6.481  11.841 -0.2852 -1.7354  0.7004
 6115TIP3    H239761   0.846   6.557  11.772  0.3203  0.0570  1.6281
 6116TIP3   OH239762   2.480   4.298  16.815 -0.3887  0.2777  0.7005
 6116TIP3    H139763   2.456   4.325  16.726 -0.1005 -0.4382  0.4021
 6116TIP3    H239764   2.472   4.379  16.866  1.2020  1.1460 -0.3199
 6117TIP3   OH239765   4.654   0.655  15.459 -0.1018  0.8492 -0.2698
 6117TIP3    H139766   4.576   0.630  15.507  0.4543  0.0249  0.2365
 6117TIP3    H239767   4.636   0.743  15.427 -1.9581  0.0121 -1.7019
 6118TIP3   OH239768   3.582   5.127   6.509  0.1251  0.1520  0.4407
 6118TIP3    H139769   3.582   5.039   6.471  0.2958  0.4571 -0.2684
 6118TIP3    H239770   3.542   5.182   6.443 -0.2497  0.5661  1.0033
 6119TIP3   OH239771   1.312   1.590   2.588 -0.3131  0.5257 -0.2299
 6119TIP3    H139772   1.382   1.562   2.648 -1.2434  3.8174  2.7142
 6119TIP3    H239773   1.241   1.527   2.603 -0.5098  1.2363  2.2663
 6120TIP3   OH239774   2.793   6.301  10.973 -0.1891 -0.2894 -0.3536
 6120TIP3    H139775   2.814   6.210  10.954  0.6104  0.1475 -1.6380
 6120TIP3    H239776   2.764   6.337  10.890 -0.6274  0.6085  0.1736
 6121TIP3   OH239777   3.587   4.549   3.854 -0.0419  0.1561  0.1707
 6121TIP3    H139778   3.595   4.512   3.766  0.4293  0.2141  0.1861
 6121TIP3    H239779   3.502   4.593   3.854 -1.2478 -2.0323  0.5570
 6122TIP3   OH239780   1.865   0.774  13.217  0.2794  0.0766  0.1619
 6122TIP3    H139781   1.783   0.823  13.220 -0.1626 -0.5389 -1.0806
 6122TIP3    H239782   1.931   0.839  13.196  0.2050  0.6575  1.6049
 6123TIP3   OH239783   5.920   6.443  15.334 -0.3466  0.2222  0.5736
 6123TIP3    H139784   5.960   6.505  15.396  0.3152  1.0344 -0.6266
 6123TIP3    H239785   5.831   6.478  15.320 -1.3856 -1.2818  2.8222
 6124TIP3   OH239786   5.314   5.616  13.702 -0.2364  0.2035 -0.4585
 6124TIP3    H139787   5.330   5.680  13.634  3.6373  0.2851  0.3370
 6124TIP3    H239788   5.298   5.534  13.655  0.2748  0.6607 -1.4460
 6125TIP3   OH239789   2.249   6.067   5.512  0.0298  0.6650 -0.5405
 6125TIP3    H139790   2.299   6.146   5.527  0.6102 -0.0513  1.7425
 6125TIP3    H239791   2.161   6.088   5.544 -0.2585  0.8561 -1.4198
 6126TIP3   OH239792   5.907   3.147  14.835 -0.5952  0.0560 -0.7233
 6126TIP3    H139793   5.901   3.054  14.815 -2.1501 -0.2744  0.9988
 6126TIP3    H239794   5.839   3.162  14.900 -0.6452  2.4970 -1.2431
 6127TIP3   OH239795   1.373   1.461   6.315  0.2795  0.2036 -0.5028
 6127TIP3    H139796   1.371   1.472   6.220  1.0247  2.0147 -0.3355
 6127TIP3    H239797   1.378   1.549   6.350  2.2867 -0.4827  1.1568
 6128TIP3   OH239798   0.215   5.243  15.832  0.0218 -0.3169 -0.0395
 6128TIP3    H139799   0.185   5.304  15.764  0.9479 -0.8221 -0.9388
 6128TIP3    H239800   0.149   5.249  15.901 -0.0166  1.5385 -0.1912
 6129TIP3   OH239801   4.067   3.464   1.633  0.7207  0.3872 -0.4488
 6129TIP3    H139802   4.087   3.393   1.572 -1.2743 -0.0528 -0.6542
 6129TIP3    H239803   3.992   3.433   1.683  1.3142  1.4044  1.1402
 6130TIP3   OH239804   4.992   1.129  15.035  0.0493 -0.2163 -0.1415
 6130TIP3    H139805   4.909   1.102  14.998  0.3120  0.0810 -0.9653
 6130TIP3    H239806   5.018   1.205  14.983  0.5677  0.0286  0.4644
 6131TIP3   OH239807   3.889   6.657   1.548 -0.0254 -0.0269  0.7377
 6131TIP3    H139808   3.903   6.587   1.484 -3.1098 -0.1285  0.0244
 6131TIP3    H239809   3.922   6.736   1.505  1.2559 -0.6250  0.5594
 6132TIP3   OH239810   3.211   4.950  11.434  0.0981 -0.5928  0.1561
 6132TIP3    H139811   3.145   4.897  11.388  1.2624  0.1104 -2.5502
 6132TIP3    H239812   3.165   4.983  11.511 -2.3025 -1.2501 -0.8719
 6133TIP3   OH239813   5.996   2.812   0.382  0.0505  0.0628 -0.3025
 6133TIP3    H139814   5.935   2.884   0.396 -0.6453 -0.4374 -0.6964
 6133TIP3    H239815   5.996   2.798   0.287  0.5981 -0.1014 -0.2826
 6134TIP3   OH239816   6.146   2.852  16.221  0.2270 -0.0268 -0.9424
 6134TIP3    H139817   6.193   2.934  16.212 -0.7447  0.3923 -2.6484
 6134TIP3    H239818   6.116   2.852  16.312  2.1909  0.3748 -0.2466
 6135TIP3   OH239819   5.209   6.202  14.097  0.6668  0.6017 -0.2806
 6135TIP3    H139820   5.189   6.194  14.190  0.6907 -0.5491 -0.3608
 6135TIP3    H239821   5.293   6.157  14.086 -0.0735 -0.6425 -1.1032
 6136TIP3   OH239822   5.543   0.994  12.113 -0.3742  0.3054  0.0845
 6136TIP3    H139823   5.581   1.050  12.181 -1.5429  0.8029  0.3483
 6136TIP3    H239824   5.511   1.055  12.047  0.0673 -0.1459 -0.5603
 6137TIP3   OH239825   2.500   0.460   0.270 -0.2223 -0.0227 -0.5424
 6137TIP3    H139826   2.457   0.500   0.346  0.4626 -0.7323  0.2506
 6137TIP3    H239827   2.564   0.525   0.242  0.3088 -0.1898  0.2222
 6138TIP3   OH239828   5.160   0.407  11.587 -0.0639 -0.3595 -0.4678
 6138TIP3    H139829   5.065   0.401  11.581 -0.1148  0.3863 -0.5276
 6138TIP3    H239830   5.191   0.317  11.578 -0.9058 -1.0094  2.3333
 6139TIP3   OH239831   1.291   2.481  11.208  0.0541 -0.5156 -0.2875
 6139TIP3    H139832   1.246   2.417  11.263 -0.4694 -0.0102 -0.1246
 6139TIP3    H239833   1.273   2.565  11.248  1.0865 -0.2918 -0.2705
 6140TIP3   OH239834   0.782   2.988   2.375  0.0565 -0.0648 -0.2476
 6140TIP3    H139835   0.804   3.066   2.426  0.7312 -1.1215  1.1450
 6140TIP3    H239836   0.763   2.921   2.441 -3.4372 -0.3826 -1.3442
 6141TIP3   OH239837   1.350   5.273   2.221 -0.1809 -0.1833 -0.2684
 6141TIP3    H139838   1.384   5.361   2.238  0.7986 -0.9971  2.5339
 6141TIP3    H239839   1.428   5.219   2.211 -0.6514 -1.2625  1.4175
 6142TIP3   OH239840   6.593   3.083  10.646  0.5282  0.5121  0.0875
 6142TIP3    H139841   6.544   3.163  10.628  0.1254  0.1461 -0.4850
 6142TIP3    H239842   6.677   3.096  10.602 -0.3318 -0.2427 -1.9141
 6143TIP3   OH239843   4.166   5.455   3.206  0.3002  0.0539  0.3914
 6143TIP3    H139844   4.118   5.507   3.142 -1.3531  0.2831  1.7353
 6143TIP3    H239845   4.100   5.396   3.243  1.3687 -0.5722  1.3437
 6144TIP3   OH239846   0.569   5.012   2.115 -0.0953 -0.3759  0.3631
 6144TIP3    H139847   0.551   4.981   2.026 -0.8561  1.0198  0.0055
 6144TIP3    H239848   0.539   4.941   2.172 -1.5019 -0.4560 -0.4365
 6145TIP3   OH239849   4.154   5.539  13.046 -0.1853 -0.0229  0.3147
 6145TIP3    H139850   4.072   5.539  13.096  0.1663  1.0999  0.9299
 6145TIP3    H239851   4.128   5.564  12.957 -0.4892  0.5306  0.5542
 6146TIP3   OH239852   0.542   0.453   2.665  0.1804 -0.4821  0.0943
 6146TIP3    H139853   0.484   0.421   2.596  0.2649 -1.1766  0.3473
 6146TIP3    H239854   0.624   0.406   2.652  0.0059 -1.0576  1.0326
 6147TIP3   OH239855   2.700   3.109   5.498 -0.2719  0.1164 -0.0788
 6147TIP3    H139856   2.679   3.164   5.422  0.9630 -0.3168 -0.7491
 6147TIP3    H239857   2.627   3.125   5.559 -2.1138 -0.6930 -1.9404
 6148TIP3   OH239858   4.795   3.897  14.060  0.7667 -0.0491  0.0129
 6148TIP3    H139859   4.740   3.836  14.108 -0.4066  0.6141 -0.4372
 6148TIP3    H239860   4.775   3.983  14.098  0.0507  0.4501 -1.3733
 6149TIP3   OH239861   6.612   4.618   1.598  0.4262 -0.2829  0.0436
 6149TIP3    H139862   6.610   4.620   1.694  0.2402  0.4295  0.0302
 6149TIP3    H239863   6.526   4.649   1.571  0.6206 -0.0758 -0.3567
 6150TIP3   OH239864   3.321   6.658   5.354  0.0726 -0.2431  0.4074
 6150TIP3    H139865   3.239   6.634   5.397  0.8479  1.8391  3.3968
 6150TIP3    H239866   3.309   6.749   5.328  1.5219  0.2210  1.2632
 6151TIP3   OH239867   4.538   0.306   5.755 -0.3578  0.1214  0.2912
 6151TIP3    H139868   4.488   0.319   5.836 -1.0674  1.6442 -0.3346
 6151TIP3    H239869   4.564   0.395   5.729 -0.9275 -0.2233 -1.6139
 6152TIP3   OH239870   4.733   2.920  12.338 -0.2371 -0.0347 -0.1022
 6152TIP3    H139871   4.742   2.927  12.243 -0.4432 -2.3951 -0.3675
 6152TIP3    H239872   4.803   2.861  12.364 -0.8650 -0.3086  1.0261
 6153TIP3   OH239873   0.878   3.485   4.247 -0.1577  0.4170  0.4010
 6153TIP3    H139874   0.906   3.400   4.213  1.2962  0.3375  1.6694
 6153TIP3    H239875   0.793   3.469   4.286 -0.4876 -0.1517 -0.5296
 6154TIP3   OH239876   2.801   1.409  13.292  0.2381 -0.2708  0.5393
 6154TIP3    H139877   2.738   1.441  13.356  0.4744  1.8839 -0.2254
 6154TIP3    H239878   2.880   1.392  13.342  0.4386  1.4330  0.8564
 6155TIP3   OH239879   5.995   2.744   2.116  0.0266 -0.8514  0.3977
 6155TIP3    H139880   6.060   2.677   2.139  2.7783  1.5210  0.1730
 6155TIP3    H239881   6.011   2.815   2.177 -3.2734 -0.5606  1.0882
 6156TIP3   OH239882   3.695   1.839  10.454  0.3790  0.0043 -0.1697
 6156TIP3    H139883   3.605   1.815  10.432 -0.0419  0.7326  0.6997
 6156TIP3    H239884   3.730   1.876  10.373 -0.9828  2.2127  0.1711
 6157TIP3   OH239885   5.999   4.128   0.559 -0.0153 -0.1388 -0.1093
 6157TIP3    H139886   6.082   4.149   0.515  0.6925 -2.7341 -0.1533
 6157TIP3    H239887   5.948   4.082   0.492 -1.9163  2.0888 -0.3354
 6158TIP3   OH239888   1.472   2.376  12.965  0.3568  0.2673 -0.2717
 6158TIP3    H139889   1.522   2.414  13.037  0.7876 -0.2395 -0.2973
 6158TIP3    H239890   1.435   2.295  13.001  0.3307  0.1628 -0.5289
 6159TIP3   OH239891   0.964   1.713   5.563 -0.8523  0.0506 -0.1233
 6159TIP3    H139892   0.896   1.716   5.630 -0.5159  0.2414  0.2207
 6159TIP3    H239893   0.918   1.693   5.482 -1.3586  0.4877  0.0477
 6160TIP3   OH239894   3.711   4.632  14.685  0.0004  0.1459  0.5138
 6160TIP3    H139895   3.631   4.580  14.696  0.8062 -1.6830 -1.6049
 6160TIP3    H239896   3.770   4.576  14.636  1.9453  2.1306  0.4200
 6161TIP3   OH239897   6.426   1.022   0.589 -0.2373  0.0485  0.3314
 6161TIP3    H139898   6.517   0.994   0.598  0.1026  0.7909 -0.6970
 6161TIP3    H239899   6.385   0.953   0.537  0.4524  1.0635 -1.6692
 6162TIP3   OH239900   0.482   6.594   5.341  0.3206 -0.7793 -0.9948
 6162TIP3    H139901   0.552   6.531   5.323  0.4706 -0.1623 -2.8127
 6162TIP3    H239902   0.418   6.545   5.393  1.5895 -1.6686 -0.2171
 6163TIP3   OH239903   6.367   3.801   0.178  0.2070  0.0609 -0.4184
 6163TIP3    H139904   6.309   3.872   0.150 -0.8663 -0.6126  0.0134
 6163TIP3    H239905   6.399   3.762   0.097  0.6710  0.9192 -0.6609
 6164TIP3   OH239906   3.144   2.175   2.268  0.1540 -0.2712  0.7745
 6164TIP3    H139907   3.124   2.081   2.263  0.0916 -0.2867  1.3384
 6164TIP3    H239908   3.204   2.183   2.341  0.3387  0.1037  0.5849
 6165TIP3   OH239909   0.300   3.141   0.709  0.1995 -0.1424 -0.2423
 6165TIP3    H139910   0.285   3.227   0.670 -1.2768 -0.8476 -1.3240
 6165TIP3    H239911   0.295   3.156   0.804 -3.6205  0.4445 -0.4084
 6166TIP3   OH239912   5.477   6.521   3.245 -0.4178  0.3930  0.5423
 6166TIP3    H139913   5.435   6.599   3.283 -1.2393 -0.5487  1.6517
 6166TIP3    H239914   5.479   6.458   3.317 -0.5925 -0.9271 -0.5773
 6167TIP3   OH239915   2.935   5.934  13.463 -0.0714 -0.9041  0.5653
 6167TIP3    H139916   2.852   5.911  13.422 -0.0288  0.0840 -0.1109
 6167TIP3    H239917   2.983   5.982  13.395  1.2781 -1.9197  0.7561
 6168TIP3   OH239918   0.677   3.889  14.820 -0.2869  0.5825 -0.2792
 6168TIP3    H139919   0.609   3.920  14.880 -1.2180 -1.6226 -0.1423
 6168TIP3    H239920   0.754   3.877  14.876 -0.4453  0.8262 -0.0033
 6169TIP3   OH239921   4.090   6.675  13.442 -0.7187 -0.5819  0.0649
 6169TIP3    H139922   4.175   6.698  13.478 -2.3995  3.8997  1.9850
 6169TIP3    H239923   4.096   6.697  13.349  0.1742 -0.0600  0.2374
 6170TIP3   OH239924   2.736   6.323   0.360 -0.2948  0.4554  0.4594
 6170TIP3    H139925   2.707   6.411   0.338  0.0953  0.5184  0.1815
 6170TIP3    H239926   2.723   6.272   0.281 -0.9310  0.1529  0.7537
 6171TIP3   OH239927   6.280   4.113  12.029  0.1460 -0.0604 -0.1972
 6171TIP3    H139928   6.262   4.024  11.997 -1.3517 -0.6897  2.1494
 6171TIP3    H239929   6.363   4.105  12.075 -0.1391 -0.3373  0.2767
 6172TIP3   OH239930   4.975   4.946   5.332  0.4094 -0.3587  0.5435
 6172TIP3    H139931   4.972   5.037   5.302  0.6298 -0.8966 -1.1984
 6172TIP3    H239932   4.889   4.911   5.310  0.7824 -0.9317 -0.0335
 6173TIP3   OH239933   4.944   5.987   0.511  0.3318  0.3097  0.2071
 6173TIP3    H139934   4.910   6.071   0.544  0.6401  0.2023  0.8210
 6173TIP3    H239935   5.036   6.004   0.493 -0.1309  0.7682 -2.0407
 6174TIP3   OH239936   2.791   6.276   5.371 -1.2110 -0.5091 -0.2405
 6174TIP3    H139937   2.804   6.217   5.445  0.1592 -0.5984 -0.5274
 6174TIP3    H239938   2.764   6.359   5.410  0.8617 -0.1347  0.4954
 6175TIP3   OH239939   4.868   1.236   1.570  0.2465 -0.1788  0.7053
 6175TIP3    H139940   4.791   1.217   1.517  1.1681 -1.7396 -0.1701
 6175TIP3    H239941   4.880   1.157   1.624 -0.4116  1.1877  2.9864
 6176TIP3   OH239942   4.636   3.784   3.454 -0.2379 -0.5760 -0.3136
 6176TIP3    H139943   4.628   3.697   3.494 -0.2101 -2.0522 -3.2828
 6176TIP3    H239944   4.546   3.807   3.429  0.0229 -0.6941 -1.3683
 6177TIP3   OH239945   6.640   2.331   3.539 -0.4281  0.9662  0.2621
 6177TIP3    H139946   6.662   2.373   3.622 -0.4712  1.0158  0.2479
 6177TIP3    H239947   6.686   2.247   3.542  1.1434  1.7689 -0.4906
 6178TIP3   OH239948   4.261   6.509  13.662 -0.1325  0.3713  0.0061
 6178TIP3    H139949   4.185   6.562  13.688  0.2945  1.2435 -0.4601
 6178TIP3    H239950   4.224   6.436  13.612 -0.6382  1.1068 -0.7215
 6179TIP3   OH239951   1.734   6.207  11.162 -0.3414 -0.3604 -0.2949
 6179TIP3    H139952   1.664   6.210  11.097 -0.2259 -0.8451 -0.4416
 6179TIP3    H239953   1.731   6.294  11.203 -1.7663 -0.7226  0.4688
 6180TIP3   OH239954   3.443   0.784  13.987  0.9162 -0.3811  0.0406
 6180TIP3    H139955   3.363   0.786  14.039  1.4850  0.0855  0.9163
 6180TIP3    H239956   3.463   0.876  13.969  1.4325 -0.4764  0.1043
 6181TIP3   OH239957   6.210   5.658  15.568 -0.0769  0.4076  0.5985
 6181TIP3    H139958   6.224   5.629  15.478 -0.0639 -0.0198  0.7368
 6181TIP3    H239959   6.159   5.588  15.608  0.9856 -0.0178  1.2748
 6182TIP3   OH239960   0.267   2.323   2.576  0.3244 -0.5179  0.4978
 6182TIP3    H139961   0.362   2.323   2.572  0.3229  0.0459  0.4096
 6182TIP3    H239962   0.247   2.335   2.669  0.3544  1.8335  0.2648
 6183TIP3   OH239963   1.772   3.653   1.832  0.5881  0.4616  0.3530
 6183TIP3    H139964   1.773   3.560   1.811 -1.1573  0.1227  1.5207
 6183TIP3    H239965   1.778   3.656   1.928 -1.6963  1.3677  0.5437
 6184TIP3   OH239966   2.427   5.469  15.353  0.5808 -0.1506 -0.4614
 6184TIP3    H139967   2.384   5.384  15.347  0.4627 -0.2089  0.9178
 6184TIP3    H239968   2.484   5.473  15.276  0.8510 -1.6172 -0.3516
 6185TIP3   OH239969   0.031   5.813  11.213  0.4652 -0.0117 -0.4026
 6185TIP3    H139970   0.088   5.764  11.154  0.9670 -0.2751  0.2823
 6185TIP3    H239971   0.053   5.905  11.198  1.0037 -0.1087 -0.2103
 6186TIP3   OH239972   3.753   4.820  16.789  0.4612  1.0011  0.6624
 6186TIP3    H139973   3.830   4.774  16.823 -0.4839  0.2477  1.8398
 6186TIP3    H239974   3.679   4.774  16.827 -0.7053  0.0190 -2.4998
 6187TIP3   OH239975   1.772   4.926  10.236 -0.1933  0.3680  0.0196
 6187TIP3    H139976   1.728   4.928  10.321  0.9164 -0.6874  0.6691
 6187TIP3    H239977   1.742   4.844  10.196 -0.4674  0.7061 -0.4634
 6188TIP3   OH239978   3.076   0.033  13.349 -0.3131 -0.2062 -0.1740
 6188TIP3    H139979   3.001   0.087  13.323 -1.4952 -1.3921  0.6423
 6188TIP3    H239980   3.089  -0.027  13.275 -0.2262 -0.0593 -0.2782
 6189TIP3   OH239981   2.367   4.578  16.176 -0.4284  0.4119 -0.1558
 6189TIP3    H139982   2.296   4.580  16.240 -0.5513 -1.1522 -0.1955
 6189TIP3    H239983   2.388   4.670  16.159 -1.5764  0.8679  0.8097
 6190TIP3   OH239984   6.566   5.013  11.335  0.0781 -0.2177 -0.3118
 6190TIP3    H139985   6.658   5.036  11.350 -0.0776  0.7220 -0.7628
 6190TIP3    H239986   6.532   4.994  11.422  0.7161 -0.6543 -0.1480
 6191TIP3   OH239987   2.481   6.257   5.639 -0.7172  0.4225 -0.3179
 6191TIP3    H139988   2.412   6.267   5.705 -0.8320  0.4197 -0.4361
 6191TIP3    H239989   2.561   6.242   5.689 -1.2422 -2.6337 -0.2024
 6192TIP3   OH239990   3.531   4.406   1.270 -0.2193  0.2135  0.2707
 6192TIP3    H139991   3.462   4.387   1.206 -0.1171 -0.4352  0.3483
 6192TIP3    H239992   3.549   4.322   1.311 -0.0123  0.5525  0.8859
 6193TIP3   OH239993   3.911   1.419  14.930  0.5576 -0.4227 -0.6588
 6193TIP3    H139994   3.914   1.335  14.884 -0.5094 -1.3159  0.8099
 6193TIP3    H239995   3.987   1.418  14.989  0.9499 -0.0289 -1.1478
 6194TIP3   OH239996   5.884   5.779   5.347  0.2515  0.2321 -0.4145
 6194TIP3    H139997   5.826   5.855   5.356  1.5053  1.2741 -0.7825
 6194TIP3    H239998   5.926   5.770   5.433  0.2427  0.0811 -0.4262
 6195TIP3   OH239999   6.132   0.528   1.455  0.8133  0.0666 -0.0112
 6195TIP3    H140000   6.222   0.560   1.462  1.6688 -2.2609  0.4195
 6195TIP3    H240001   6.139   0.447   1.405 -0.5584 -1.7671  2.5105
 6196TIP3   OH240002   3.826   5.344   3.550  0.5392 -0.0946  0.1952
 6196TIP3    H140003   3.876   5.363   3.629  0.8444 -0.7720  0.1798
 6196TIP3    H240004   3.786   5.259   3.567 -0.0327  0.1171 -0.0759
 6197TIP3   OH240005   3.288   2.388  12.714  0.0646  0.1203  0.1781
 6197TIP3    H140006   3.266   2.481  12.726 -1.1728 -0.3242  1.7378
 6197TIP3    H240007   3.363   2.374  12.772  0.2238  0.1273 -0.0246
 6198TIP3   OH240008   4.447   3.043   3.054 -0.4628 -0.6555  0.1043
 6198TIP3    H140009   4.517   3.005   3.001 -0.0414  0.4909 -0.2054
 6198TIP3    H240010   4.386   3.081   2.991 -1.2618 -1.4421  0.3794
 6199TIP3   OH240011   0.135   0.207   3.949 -0.6025 -0.3720 -0.5816
 6199TIP3    H140012   0.075   0.277   3.975 -0.6567 -0.3379 -0.8025
 6199TIP3    H240013   0.136   0.148   4.024 -1.9920 -1.0987 -1.1086
 6200TIP3   OH240014   0.021   3.109  16.649  0.6500  0.4850 -0.1600
 6200TIP3    H140015   0.116   3.096  16.640  0.4292 -1.9390  0.2005
 6200TIP3    H240016  -0.000   3.071  16.734 -0.9314 -1.4056 -1.2912
 6201TIP3   OH240017   1.390   5.316  15.195  0.2764  0.1137  0.8227
 6201TIP3    H140018   1.406   5.354  15.281 -0.0248  0.6545  0.6453
 6201TIP3    H240019   1.464   5.257  15.181 -0.0252 -0.5026  1.7384
 6202TIP3   OH240020   3.375   4.711   4.472  0.4105  0.8580 -0.1640
 6202TIP3    H140021   3.469   4.698   4.483  0.6797  0.7684 -2.1625
 6202TIP3    H240022   3.353   4.781   4.534  2.4684  3.2121 -1.9008
 6203TIP3   OH240023   1.309   1.402   0.677  0.2408  0.1514  0.3628
 6203TIP3    H140024   1.248   1.389   0.605  1.7196  1.2909 -1.2059
 6203TIP3    H240025   1.351   1.317   0.689  0.1141 -0.0014 -0.2648
 6204TIP3   OH240026   5.279   6.648   5.715 -1.0483  0.7772 -0.2309
 6204TIP3    H140027   5.374   6.658   5.714 -0.3172 -3.3781  2.6634
 6204TIP3    H240028   5.253   6.677   5.802 -2.2165  0.4810 -0.4648
 6205TIP3   OH240029   0.423   2.667   1.207  0.2002 -0.3683 -0.1759
 6205TIP3    H140030   0.448   2.726   1.137 -0.4915  1.2752  0.8948
 6205TIP3    H240031   0.505   2.640   1.247  0.5613 -0.8196 -1.1951
 6206TIP3   OH240032   6.588   3.805   0.341  0.0580 -0.0350 -0.0326
 6206TIP3    H140033   6.606   3.713   0.359  0.9730 -0.3763 -2.3218
 6206TIP3    H240034   6.504   3.804   0.294  0.9276  0.0542 -1.6555
 6207TIP3   OH240035   2.341   4.612   2.452  0.2148 -0.4198 -0.3529
 6207TIP3    H140036   2.284   4.666   2.397 -0.5677 -1.1372 -0.2708
 6207TIP3    H240037   2.388   4.557   2.390 -0.2600 -0.8405 -0.3470
 6208TIP3   OH240038   3.217   2.219   3.060 -0.3621 -0.3533 -0.1407
 6208TIP3    H140039   3.185   2.143   3.108  0.6956 -1.8183 -1.6386
 6208TIP3    H240040   3.157   2.228   2.985  0.6083 -0.9447 -1.0211
 6209TIP3   OH240041   2.405   0.363  15.928  0.2719 -0.1744  0.0892
 6209TIP3    H140042   2.389   0.422  15.854 -2.8829 -0.1310  0.6534
 6209TIP3    H240043   2.375   0.413  16.004 -0.5757 -1.7404  0.8188
 6210TIP3   OH240044   0.093   2.490  16.319 -0.1242 -0.3821  0.2003
 6210TIP3    H140045   0.184   2.463  16.330  0.2759  0.2573 -1.2152
 6210TIP3    H240046   0.099   2.575  16.275 -1.3870  0.6529  1.9561
 6211TIP3   OH240047   5.651   4.181   6.450 -0.4831 -0.4787 -0.2986
 6211TIP3    H140048   5.665   4.122   6.376  0.7961 -2.0099  1.0715
 6211TIP3    H240049   5.669   4.126   6.527 -0.3134  1.4321  1.0778
 6212TIP3   OH240050   4.219   5.367  15.601  0.1304  0.0537 -0.0004
 6212TIP3    H140051   4.302   5.328  15.627 -0.0420 -0.2416  0.1125
 6212TIP3    H240052   4.243   5.439  15.543  0.4162 -0.7810 -0.9469
 6213TIP3   OH240053   4.745   1.748  10.455 -0.1062 -0.8670  0.6303
 6213TIP3    H140054   4.724   1.782  10.542 -2.7718  1.7348 -0.8442
 6213TIP3    H240055   4.818   1.802  10.425 -1.0712  0.2237  0.1980
 6214TIP3   OH240056   2.356   3.366   4.411 -0.6145  0.6600 -0.4925
 6214TIP3    H140057   2.312   3.389   4.329  0.2814  1.8348 -0.6842
 6214TIP3    H240058   2.366   3.450   4.457  1.1025  0.4032 -0.3223
 6215TIP3   OH240059   0.172   5.107   2.229  0.2341  0.1640 -0.3531
 6215TIP3    H140060   0.092   5.159   2.221  0.7128  0.9375 -0.2025
 6215TIP3    H240061   0.241   5.164   2.196  0.4063 -1.4308 -3.0524
 6216TIP3   OH240062   1.232   6.610   2.113  0.0300  0.1260  0.3803
 6216TIP3    H140063   1.188   6.547   2.170 -0.6834 -0.5804 -0.8899
 6216TIP3    H240064   1.178   6.612   2.034  1.8494 -0.2002 -0.9367
 6217TIP3   OH240065   2.541   0.136   4.720 -0.3747 -0.0598  0.0771
 6217TIP3    H140066   2.486   0.143   4.798 -0.4170 -0.5935  0.1009
 6217TIP3    H240067   2.522   0.215   4.669 -1.0843 -0.1917  0.1340
 6218TIP3   OH240068   2.682   3.304   3.764  0.3766  0.2130 -0.1950
 6218TIP3    H140069   2.767   3.295   3.805  1.2009 -1.3767 -2.1142
 6218TIP3    H240070   2.699   3.302   3.670 -1.5895  1.9883 -0.6946
 6219TIP3   OH240071   4.620   2.617  14.820 -0.1128  0.4236  0.4201
 6219TIP3    H140072   4.709   2.646  14.802 -0.2842 -0.1676 -1.5941
 6219TIP3    H240073   4.565   2.676  14.769 -0.5648 -2.1749 -2.3593
 6220TIP3   OH240074   0.750   1.520  13.929 -0.2803 -0.3994 -0.3521
 6220TIP3    H140075   0.729   1.458  13.999  0.9767  0.5944  0.9538
 6220TIP3    H240076   0.698   1.490  13.854 -2.1076 -1.1458  1.1596
 6221TIP3   OH240077   0.167   6.348   1.310  0.2223 -0.4085 -0.4408
 6221TIP3    H140078   0.090   6.341   1.254  1.0571 -0.4784 -1.6219
 6221TIP3    H240079   0.179   6.260   1.346 -0.4837 -0.2947  0.1059
 6222TIP3   OH240080   5.495   1.020   2.643 -0.3183 -0.5692 -0.0850
 6222TIP3    H140081   5.460   1.100   2.605  1.6978  0.2976 -0.2469
 6222TIP3    H240082   5.433   0.952   2.618 -0.9038  0.5665 -1.8653
 6223TIP3   OH240083   1.085   4.872  10.231 -0.1415 -0.4618  0.5155
 6223TIP3    H140084   0.994   4.900  10.236  0.0827  0.3522  0.2122
 6223TIP3    H240085   1.081   4.782  10.200 -0.8001  0.2125 -1.5634
 6224TIP3   OH240086   2.854   6.563  11.067  0.9159 -0.0099 -0.2445
 6224TIP3    H140087   2.807   6.482  11.046  0.6299 -0.1626  0.9230
 6224TIP3    H240088   2.937   6.533  11.103  0.6521  0.1997  0.5497
 6225TIP3   OH240089   2.033   1.016   0.972  0.4029  0.4692  0.3180
 6225TIP3    H140090   1.981   1.079   0.922  1.8588  0.4513 -1.3079
 6225TIP3    H240091   2.116   1.060   0.988  0.1480  0.3018  2.4355
 6226TIP3   OH240092   3.819   2.373  12.224  0.2659  0.1665  0.3916
 6226TIP3    H140093   3.869   2.417  12.292  0.9066  1.3302 -0.7851
 6226TIP3    H240094   3.729   2.401  12.238  0.1056 -0.9671  1.7768
 6227TIP3   OH240095   6.736   5.691  13.301  0.0925 -0.3782 -0.5142
 6227TIP3    H140096   6.706   5.655  13.218 -0.4820  0.3999 -0.6621
 6227TIP3    H240097   6.829   5.670  13.305 -0.0241 -1.0137 -1.0330
 6228TIP3   OH240098   2.783   1.264   3.682 -0.8224 -0.4974  0.5219
 6228TIP3    H140099   2.695   1.271   3.645  0.0633 -1.0609 -1.8527
 6228TIP3    H240100   2.770   1.221   3.767 -3.0154  1.3674  1.2354
 6229TIP3   OH240101   5.615   2.585  15.261 -0.6620  0.2664  0.5540
 6229TIP3    H140102   5.582   2.658  15.313 -0.8167 -0.0135  0.8585
 6229TIP3    H240103   5.631   2.516  15.325 -0.3931  0.0782  0.2865
 6230TIP3   OH240104   6.484   0.347   2.673 -0.0886 -0.1932 -0.5525
 6230TIP3    H140105   6.510   0.340   2.582  0.5843  0.3710 -0.4113
 6230TIP3    H240106   6.389   0.332   2.672 -0.0643 -0.3256 -1.3201
 6231TIP3   OH240107   2.251   4.487   5.183  0.4224 -0.0248  0.0510
 6231TIP3    H140108   2.201   4.558   5.223 -0.3999  0.0009 -0.9854
 6231TIP3    H240109   2.228   4.491   5.090 -0.8954 -2.6347  0.1819
 6232TIP3   OH240110   4.131   4.595  15.603  0.2872  0.2545 -0.1060
 6232TIP3    H140111   4.133   4.541  15.523 -2.0046  0.9442 -0.6764
 6232TIP3    H240112   4.089   4.539  15.668  0.8874  0.1965  0.2361
 6233TIP3   OH240113   2.157   5.674   0.390 -0.0434 -0.4481  0.0747
 6233TIP3    H140114   2.108   5.740   0.438  0.5061  0.9730 -1.2280
 6233TIP3    H240115   2.203   5.723   0.322  1.4272 -2.0196 -0.1250
 6234TIP3   OH240116   4.359   3.456  10.720  0.1127 -0.5513 -0.2481
 6234TIP3    H140117   4.274   3.414  10.735  0.5614 -1.0348  1.0368
 6234TIP3    H240118   4.377   3.440  10.627 -1.6680  0.4635 -0.8180
 6235TIP3   OH240119   2.385   1.464  14.296  0.2404 -0.7034 -0.0031
 6235TIP3    H140120   2.399   1.516  14.217  0.8181 -1.3815 -0.3524
 6235TIP3    H240121   2.298   1.489  14.326  0.3626  0.2010 -0.3613
 6236TIP3   OH240122   1.140   2.436   0.714 -0.4372 -0.1103 -0.1299
 6236TIP3    H140123   1.101   2.413   0.630  0.5176 -0.3808 -0.5184
 6236TIP3    H240124   1.231   2.408   0.706 -0.4215 -0.4761  1.1325
 6237TIP3   OH240125   5.025   2.739  14.913  0.0074 -0.1027  0.5754
 6237TIP3    H140126   5.084   2.735  14.987  0.4977  1.1577  0.2796
 6237TIP3    H240127   5.012   2.648  14.887 -0.3868 -0.5776  2.3539
 6238TIP3   OH240128   2.367   5.716  11.899 -0.1981  0.1200 -0.2451
 6238TIP3    H140129   2.272   5.706  11.906 -0.1601 -0.7626 -0.8139
 6238TIP3    H240130   2.402   5.637  11.939  0.2779  0.0504 -0.7966
 6239TIP3   OH240131   0.701   5.503   4.627 -0.2549  0.2902 -0.4150
 6239TIP3    H140132   0.720   5.597   4.633  0.2355  0.2040 -0.5654
 6239TIP3    H240133   0.654   5.494   4.544 -1.7828  0.6313  0.3815
 6240TIP3   OH240134   0.331   3.098  13.696  0.0011 -0.0372  0.1637
 6240TIP3    H140135   0.374   3.167  13.645  0.5941 -0.0222  0.6722
 6240TIP3    H240136   0.384   3.020  13.678 -1.1316 -0.5669 -1.0505
 6241TIP3   OH240137   5.673   4.364   5.333 -0.0330 -0.1925 -0.3563
 6241TIP3    H140138   5.731   4.440   5.340  0.2265 -0.4436  0.3296
 6241TIP3    H240139   5.732   4.289   5.339 -0.3534 -0.4490 -0.4154
 6242TIP3   OH240140   0.245   2.167  16.846  0.1759 -0.2980  0.6522
 6242TIP3    H140141   0.282   2.141  16.930  0.3701 -0.2461  0.5832
 6242TIP3    H240142   0.318   2.164  16.785 -0.1720 -1.3417  0.2592
 6243TIP3   OH240143   1.133   5.659  16.956  0.1720  0.2261  0.4353
 6243TIP3    H140144   1.069   5.642  17.026  0.5458 -3.3800  0.1058
 6243TIP3    H240145   1.080   5.684  16.881 -0.6309 -0.1917  0.8475
 6244TIP3   OH240146   1.028   0.275  13.316  0.1124 -0.6377  0.1000
 6244TIP3    H140147   0.933   0.262  13.315 -0.0113  0.1792  0.5093
 6244TIP3    H240148   1.039   0.370  13.314  0.9269 -0.7312 -0.0164
 6245TIP3   OH240149   0.012   6.710  15.521 -0.5167 -0.5403  0.0706
 6245TIP3    H140150   0.007   6.757  15.438 -0.2595 -0.0511  0.3303
 6245TIP3    H240151   0.056   6.770  15.581 -0.8689 -0.8125  0.6155
 6246TIP3   OH240152   3.896   5.508   2.997 -0.6395 -0.7717 -0.4360
 6246TIP3    H140153   3.843   5.551   3.064 -2.1300 -0.7288 -1.5833
 6246TIP3    H240154   3.967   5.571   2.979  0.7816 -1.4750  2.1852
 6247TIP3   OH240155   3.028   3.282   5.432 -0.5012  0.0372  0.4281
 6247TIP3    H140156   2.987   3.368   5.420 -0.4821  0.1878  1.3556
 6247TIP3    H240157   2.980   3.224   5.372 -2.5675  0.0584  1.9224
 6248TIP3   OH240158   2.542   3.995  12.010  0.1508  0.1388 -0.0387
 6248TIP3    H140159   2.498   4.079  12.004  0.2711  0.1221 -1.4952
 6248TIP3    H240160   2.595   4.001  12.090  1.4260  2.0724 -0.9394
 6249TIP3   OH240161   6.605   4.066   4.603  0.6007  0.1878  0.4315
 6249TIP3    H140162   6.543   4.138   4.603  0.0116 -0.2825 -0.7737
 6249TIP3    H240163   6.690   4.107   4.586  0.6392  0.8266  2.0402
 6250TIP3   OH240164   3.457   4.176   1.881 -0.3969  0.5972 -0.0462
 6250TIP3    H140165   3.464   4.166   1.976  1.8403  0.7875 -0.1576
 6250TIP3    H240166   3.541   4.212   1.854 -1.2638  1.2568 -2.0325
 6251TIP3   OH240167   0.907   5.345  11.423 -0.0058 -0.2762  0.2112
 6251TIP3    H140168   0.842   5.281  11.451  0.1244 -0.6771 -0.3764
 6251TIP3    H240169   0.991   5.304  11.441  0.1440 -1.5843 -2.8107
 6252TIP3   OH240170   5.902   1.269   4.145  0.3755 -0.5276 -0.1358
 6252TIP3    H140171   5.867   1.323   4.216 -0.6762  0.4813 -1.3746
 6252TIP3    H240172   5.955   1.202   4.190  0.2486  0.4377  1.5407
 6253TIP3   OH240173   4.282   5.666  16.013  0.0575  0.1188  0.2287
 6253TIP3    H140174   4.250   5.749  16.046 -0.3234  0.0515  0.0278
 6253TIP3    H240175   4.204   5.615  15.992  0.2676 -0.6313  1.1768
 6254TIP3   OH240176   6.650   6.120  11.160 -0.7939  0.3949 -0.3588
 6254TIP3    H140177   6.746   6.116  11.162 -0.7111  1.5115 -1.3081
 6254TIP3    H240178   6.627   6.080  11.076 -1.2236 -0.6298  0.2333
 6255TIP3   OH240179   0.938   0.430   5.633 -0.7134 -0.0047 -0.6223
 6255TIP3    H140180   0.997   0.400   5.702 -0.3562  1.0817 -0.4313
 6255TIP3    H240181   0.986   0.416   5.552 -1.2859 -1.6497 -0.7170
 6256TIP3   OH240182   3.213   2.371   4.278  0.4463 -0.3339 -0.3758
 6256TIP3    H140183   3.177   2.448   4.322  1.0596 -0.4071  0.2824
 6256TIP3    H240184   3.251   2.405   4.198 -1.1342 -0.2680 -1.1384
 6257TIP3   OH240185   2.390   2.106  15.373 -0.4756 -0.2242 -0.0733
 6257TIP3    H140186   2.472   2.155  15.364 -0.1977 -0.9169 -1.5531
 6257TIP3    H240187   2.398   2.062  15.458  0.9320 -0.6966 -0.4169
 6258TIP3   OH240188   5.814   4.548   5.999 -0.0414 -0.1153  0.3495
 6258TIP3    H140189   5.818   4.459   6.034  1.7347 -0.4041 -0.4411
 6258TIP3    H240190   5.792   4.537   5.907  1.2199  0.1473 -0.0068
 6259TIP3   OH240191   0.069   6.153  16.723  0.2945  0.1003 -0.0283
 6259TIP3    H140192   0.090   6.082  16.784 -0.1417 -0.5798 -0.6420
 6259TIP3    H240193   0.127   6.224  16.748 -0.7189  0.2975  1.9804
 6260TIP3   OH240194   5.442   5.952  17.007 -0.3973 -0.1552 -0.1385
 6260TIP3    H140195   5.521   5.969  16.955 -0.0812 -0.3094  0.2787
 6260TIP3    H240196   5.421   6.037  17.047 -0.4226 -0.1223 -0.2207
 6261TIP3   OH240197   3.440   4.150  12.581  0.0387 -0.5357  0.2648
 6261TIP3    H140198   3.370   4.120  12.522  0.3497  1.4892 -1.2446
 6261TIP3    H240199   3.518   4.105  12.549  0.0189 -0.2317 -0.2224
 6262TIP3   OH240200   0.464   1.189   3.938 -0.4268  0.1663 -0.3175
 6262TIP3    H140201   0.438   1.243   4.013 -1.2385  0.4119 -0.7628
 6262TIP3    H240202   0.432   1.237   3.861 -1.4161 -1.0748 -0.7201
 6263TIP3   OH240203   5.286   0.708   3.345  0.0835 -0.2226  0.3124
 6263TIP3    H140204   5.193   0.718   3.366 -0.5922 -3.8689 -0.2551
 6263TIP3    H240205   5.289   0.711   3.250  0.3806 -1.0719  0.2905
 6264TIP3   OH240206   4.947   6.204   0.709 -0.2612  0.5703  0.0176
 6264TIP3    H140207   5.024   6.230   0.759 -1.1405  1.4378  0.9791
 6264TIP3    H240208   4.922   6.283   0.661 -0.0149  0.0280 -1.0301
 6265TIP3   OH240209   6.540   0.810   6.332 -0.0671 -0.4999  0.0332
 6265TIP3    H140210   6.555   0.891   6.284  0.8394 -0.9346 -0.4427
 6265TIP3    H240211   6.572   0.741   6.274  1.6706 -1.0008  1.5067
 6266TIP3   OH240212   2.262   5.083  14.937 -0.7856  0.3982  0.9077
 6266TIP3    H140213   2.339   5.036  14.967 -0.5236  0.6914  0.7016
 6266TIP3    H240214   2.252   5.156  14.998 -0.6481  0.6057  0.6838
 6267TIP3   OH240215   1.969   3.317   4.773 -0.5144  0.1055 -0.1095
 6267TIP3    H140216   2.046   3.357   4.814  0.1096 -0.8786 -0.2651
 6267TIP3    H240217   1.903   3.316   4.842  0.0898 -0.3171  0.4824
 6268TIP3   OH240218   4.540   2.210   3.027 -0.3242 -0.1800 -0.1514
 6268TIP3    H140219   4.594   2.288   3.038  1.3476 -1.4718  1.2175
 6268TIP3    H240220   4.467   2.222   3.088 -1.6176  1.4951 -1.8924
 6269TIP3   OH240221   0.201   1.059   5.347 -0.3095  0.2774  0.0030
 6269TIP3    H140222   0.154   0.985   5.309 -2.0507  1.0363  0.5952
 6269TIP3    H240223   0.294   1.037   5.335 -0.7639 -2.1995  0.5550
 6270TIP3   OH240224   1.110   6.374   5.140  0.0552  0.2597  0.3854
 6270TIP3    H140225   1.138   6.346   5.053 -3.8023  1.6041 -1.5525
 6270TIP3    H240226   1.170   6.444   5.163  1.5065 -0.4945 -0.9489
 6271TIP3   OH240227   5.280   3.341   4.651 -0.2698  0.1035 -0.0743
 6271TIP3    H140228   5.347   3.291   4.697  1.6696  0.6219 -2.1564
 6271TIP3    H240229   5.322   3.369   4.570 -2.6813  1.4141 -0.9842
 6272TIP3   OH240230   1.845   2.007   1.199  0.2093 -0.5241 -0.7556
 6272TIP3    H140231   1.769   1.966   1.241  1.0282  0.8468  2.3245
 6272TIP3    H240232   1.834   2.100   1.216  2.5499 -0.2841 -0.2378
 6273TIP3   OH240233   4.923   6.463  13.460 -0.3039 -0.1166 -0.3195
 6273TIP3    H140234   4.972   6.388  13.495  0.0515  0.1886 -0.1512
 6273TIP3    H240235   4.976   6.539  13.485 -0.5854  0.1779 -0.6214
 6274TIP3   OH240236   3.705   0.924   3.792 -0.7604 -0.4578  0.0488
 6274TIP3    H140237   3.789   0.881   3.808 -0.1922  0.6952  0.2012
 6274TIP3    H240238   3.657   0.862   3.737  0.3586 -0.9350 -0.4111
 6275TIP3   OH240239   5.595   5.292  15.911  0.0572 -0.2553  0.2402
 6275TIP3    H140240   5.606   5.386  15.899 -2.0577  0.1206  0.8332
 6275TIP3    H240241   5.571   5.259  15.825  1.9492 -0.4927 -0.2384
 6276TIP3   OH240242   1.918   3.958   1.074  0.0868 -0.0857  0.7566
 6276TIP3    H140243   1.991   3.921   1.024  0.6888  0.7144  1.0128
 6276TIP3    H240244   1.840   3.922   1.033  0.6112 -0.5825  0.1657
 6277TIP3   OH240245   6.498   3.753  13.978 -0.6397  0.1810  0.9184
 6277TIP3    H140246   6.501   3.844  14.008 -3.7840  1.9977 -3.2266
 6277TIP3    H240247   6.411   3.722  14.001 -0.9153 -0.4368 -0.7612
 6278TIP3   OH240248   4.771   2.626  12.387  0.3756  0.3182 -0.0382
 6278TIP3    H140249   4.723   2.698  12.428  0.0725  0.8141 -1.2163
 6278TIP3    H240250   4.724   2.547  12.413  0.3142  0.6006  0.7192
 6279TIP3   OH240251   6.808   0.825   4.960 -0.1216 -0.5793 -0.2322
 6279TIP3    H140252   6.803   0.871   5.044 -0.5418  1.8329 -1.4826
 6279TIP3    H240253   6.719   0.831   4.924  0.4460  0.0344 -1.6106
 6280TIP3   OH240254   0.351   5.845   3.495 -0.0872  0.2254 -0.2711
 6280TIP3    H140255   0.373   5.915   3.557  1.5922 -0.3115 -0.2023
 6280TIP3    H240256   0.303   5.781   3.548  2.4397 -0.8471  0.9206
 6281TIP3   OH240257   2.617   0.928   1.400  0.3990 -0.5370  0.0383
 6281TIP3    H140258   2.554   0.927   1.328 -0.2143 -1.5478  0.5780
 6281TIP3    H240259   2.598   0.849   1.450  1.3007 -0.2225  0.9038
 6282TIP3   OH240260   4.604   0.191   5.523  0.0324  0.2829  0.6806
 6282TIP3    H140261   4.661   0.268   5.522 -0.2805  0.5293  1.4570
 6282TIP3    H240262   4.547   0.204   5.598 -0.8783 -0.0927  0.0698
 6283TIP3   OH240263   0.858   4.738   3.184  0.1738  0.3277 -0.0499
 6283TIP3    H140264   0.848   4.758   3.091  0.7911 -1.5280 -0.5516
 6283TIP3    H240265   0.891   4.648   3.186  0.8839  0.5897  1.9512
 6284TIP3   OH240266   2.107   5.299  16.411 -0.5084 -0.0106 -0.2962
 6284TIP3    H140267   2.025   5.283  16.366 -1.2114 -0.3311  1.0370
 6284TIP3    H240268   2.113   5.229  16.476  1.6551 -0.9994 -1.4571
 6285TIP3   OH240269   2.282   2.676   4.869 -0.1820 -0.1654  0.0408
 6285TIP3    H140270   2.280   2.755   4.923 -1.2543 -0.5514  0.5807
 6285TIP3    H240271   2.375   2.658   4.857  0.0702  0.5430  0.8398
 6286TIP3   OH240272   1.893   3.813   3.930  0.0015  0.3762  0.3651
 6286TIP3    H140273   1.895   3.812   4.026 -0.5294  0.5971  0.3805
 6286TIP3    H240274   1.918   3.725   3.904 -0.0328  0.2651  0.7083
 6287TIP3   OH240275   2.802   0.309  12.350 -0.6469  0.3440  0.0524
 6287TIP3    H140276   2.794   0.263  12.434 -0.3108 -1.3290 -0.7913
 6287TIP3    H240277   2.746   0.260  12.290 -0.8415  1.4855 -0.7424
 6288TIP3   OH240278   6.311   3.717   5.621 -1.0290 -0.4268 -0.2867
 6288TIP3    H140279   6.381   3.732   5.685 -1.2640  1.5781 -0.4457
 6288TIP3    H240280   6.253   3.792   5.630 -1.9012 -0.8708 -1.8010
 6289TIP3   OH240281   3.176   5.516  14.484  0.1202  0.1219  0.1173
 6289TIP3    H140282   3.179   5.435  14.433 -2.1526 -0.0411  0.1249
 6289TIP3    H240283   3.184   5.488  14.575  0.2231  0.0070  0.0729
 6290TIP3   OH240284   4.720   4.749  10.744 -0.4947 -0.5478 -0.5843
 6290TIP3    H140285   4.713   4.655  10.759  1.0236 -0.3641  2.0633
 6290TIP3    H240286   4.708   4.788  10.831  3.3896  1.2978 -0.6296
 6291TIP3   OH240287   5.756   5.937   4.250  0.0783  0.3498 -0.1551
 6291TIP3    H140288   5.778   5.845   4.236  1.2760  0.8788 -2.0738
 6291TIP3    H240289   5.692   5.958   4.182 -0.2221  0.9462  0.2919
 6292TIP3   OH240290   4.678   2.900  13.117  0.3391 -0.0312  0.6189
 6292TIP3    H140291   4.666   2.993  13.133  1.9470  0.2153  0.5921
 6292TIP3    H240292   4.601   2.858  13.155  0.2331  1.2042  1.8267
 6293TIP3   OH240293   0.533   4.217  16.108 -0.4112  0.3466  0.0975
 6293TIP3    H140294   0.556   4.130  16.141  1.5471  0.7813 -0.0188
 6293TIP3    H240295   0.606   4.273  16.134 -0.5688  1.4844 -1.7316
 6294TIP3   OH240296   2.747   3.539   2.369 -0.4408 -0.2382  0.1332
 6294TIP3    H140297   2.815   3.535   2.436  0.4371  0.9129 -0.6506
 6294TIP3    H240298   2.698   3.620   2.389 -0.2477  0.0501 -0.5311
 6295TIP3   OH240299   2.479   4.857  15.047  0.3547 -0.2319 -0.0368
 6295TIP3    H140300   2.510   4.855  15.138 -2.6308  1.1641  1.1491
 6295TIP3    H240301   2.408   4.792  15.045  1.3277 -1.2984 -1.8307
 6296TIP3   OH240302   3.323   4.993   4.265 -0.3270 -0.1170  0.5373
 6296TIP3    H140303   3.243   4.943   4.282 -0.6250 -0.2708 -1.1842
 6296TIP3    H240304   3.390   4.950   4.319 -0.7755 -1.8399 -0.2151
 6297TIP3   OH240305   0.110   6.492   5.720 -0.0992 -0.1315  0.1265
 6297TIP3    H140306   0.166   6.554   5.673 -1.3317  0.6809 -0.3198
 6297TIP3    H240307   0.138   6.499   5.811 -0.2141  1.1105  0.0817
 6298TIP3   OH240308   0.527   6.124   1.871 -0.6094  0.0133 -0.2301
 6298TIP3    H140309   0.565   6.050   1.823  0.2854  0.4174 -0.1772
 6298TIP3    H240310   0.433   6.117   1.856 -0.7466 -2.1434  1.2006
 6299TIP3   OH240311   2.371   5.616   4.068 -0.2904  0.4877 -0.2752
 6299TIP3    H140312   2.411   5.684   4.013 -1.5345 -0.7853 -2.9680
 6299TIP3    H240313   2.278   5.635   4.065 -0.4938 -0.3673  0.3574
 6300TIP3   OH240314   6.695   3.687   4.653 -0.0379 -0.0136 -0.1305
 6300TIP3    H140315   6.676   3.595   4.669  0.7867 -0.2330 -0.3363
 6300TIP3    H240316   6.771   3.706   4.708 -0.0912  0.4975 -0.2262
 6301TIP3   OH240317   2.793   3.852   3.869 -0.1826 -0.1723 -0.1726
 6301TIP3    H140318   2.829   3.939   3.852 -0.2603  0.1582  1.2548
 6301TIP3    H240319   2.803   3.840   3.963 -0.7103 -1.4775 -0.2665
 6302TIP3   OH240320   3.267   1.846  15.332 -0.0499 -0.0259 -0.5129
 6302TIP3    H140321   3.328   1.919  15.335  0.3314 -0.3189 -1.1025
 6302TIP3    H240322   3.181   1.886  15.316  0.3069  0.2139 -1.9131
 6303TIP3   OH240323   3.107   5.492   2.977  0.2204 -0.1734 -0.0970
 6303TIP3    H140324   3.060   5.540   3.046  0.0350 -1.6369  0.8674
 6303TIP3    H240325   3.072   5.403   2.984  1.3748 -0.7157 -1.0258
 6304TIP3   OH240326   5.851   3.917  16.808 -0.6607  0.4129 -0.4279
 6304TIP3    H140327   5.836   3.823  16.795 -1.2995  0.5157 -0.4796
 6304TIP3    H240328   5.775   3.947  16.858 -2.1535  1.5078 -3.1119
 6305TIP3   OH240329   5.614   6.673  14.349  0.3460  0.1972 -0.0964
 6305TIP3    H140330   5.608   6.617  14.427  0.6218  0.7106  0.2985
 6305TIP3    H240331   5.603   6.613  14.276 -2.8052  0.0663  0.3576
 6306TIP3   OH240332   4.066   4.012   4.076 -0.1413  0.0704 -0.2355
 6306TIP3    H140333   4.109   4.084   4.030 -1.4282  1.7242  0.9858
 6306TIP3    H240334   4.137   3.959   4.111  0.9182  1.9517  0.5937
 6307TIP3   OH240335   1.169   1.859  16.438 -0.4121  0.1669 -0.1487
 6307TIP3    H140336   1.098   1.795  16.445 -0.7691  0.6148  0.4013
 6307TIP3    H240337   1.127   1.937  16.403 -0.4706  0.8495  1.3578
 6308TIP3   OH240338   3.914   4.836  12.548  0.0376  0.8151  0.4283
 6308TIP3    H140339   4.005   4.808  12.534  0.3078  0.8477  1.9949
 6308TIP3    H240340   3.921   4.922  12.590 -0.7110  0.7800  0.6327
 6309TIP3   OH240341   3.930   5.967   5.913 -0.7514  1.3378 -0.4799
 6309TIP3    H140342   4.011   6.016   5.902  0.3696 -0.4048 -0.2350
 6309TIP3    H240343   3.927   5.906   5.839 -0.2022 -0.7661  1.1400
 6310TIP3   OH240344   5.810   0.211   3.867 -0.1146  0.3859  0.1031
 6310TIP3    H140345   5.773   0.209   3.956  2.1451 -0.1674  1.1074
 6310TIP3    H240346   5.740   0.177   3.811 -1.5481  0.5990  1.6746
 6311TIP3   OH240347   5.947   0.163  12.836 -0.5155 -0.0611 -0.5334
 6311TIP3    H140348   6.011   0.215  12.885 -1.4621  0.4715  0.1667
 6311TIP3    H240349   5.986   0.153  12.749  0.5466  0.1888 -0.0992
 6312TIP3   OH240350   2.520   0.347   6.441  0.5438 -0.0462 -0.0098
 6312TIP3    H140351   2.534   0.432   6.399  2.6197 -0.6574 -0.6747
 6312TIP3    H240352   2.448   0.307   6.392  0.7568  0.5899 -0.8649
 6313TIP3   OH240353   6.120   3.449  16.421  0.0597  0.8817  0.1720
 6313TIP3    H140354   6.056   3.498  16.473  0.4663 -0.7266  2.3409
 6313TIP3    H240355   6.179   3.516  16.387 -1.4926  2.1943 -0.0549
 6314TIP3   OH240356   5.055   0.410  15.814  0.4596 -0.6941  0.0777
 6314TIP3    H140357   4.998   0.487  15.816 -0.3070 -1.2762  1.1213
 6314TIP3    H240358   5.029   0.364  15.734  1.6017  0.5896 -1.1081
 6315TIP3   OH240359   1.954   4.304   6.126  0.0513  0.1814  0.0008
 6315TIP3    H140360   1.914   4.369   6.185 -1.1607 -0.1610 -0.4176
 6315TIP3    H240361   1.926   4.220   6.162 -0.9039 -0.0281 -1.1800
 6316TIP3   OH240362   4.536   0.568  12.886  0.4454 -0.5946  0.0547
 6316TIP3    H140363   4.459   0.607  12.927  0.4688 -1.9242  1.4369
 6316TIP3    H240364   4.598   0.641  12.877 -0.9176  0.4674 -1.0169
 6317TIP3   OH240365   4.955   3.520  13.167 -0.3236 -0.3916  0.2971
 6317TIP3    H140366   5.033   3.499  13.219  0.7119  2.7749  0.2538
 6317TIP3    H240367   4.939   3.442  13.115  1.1631 -2.1281  2.2728
 6318TIP3   OH240368   1.469   4.418   3.976  0.1922  0.2059  0.2634
 6318TIP3    H140369   1.492   4.506   4.006  1.6766  0.7147 -2.0885
 6318TIP3    H240370   1.497   4.360   4.046  1.8098  1.4275  0.6917
 6319TIP3   OH240371   5.143   1.607  14.937 -0.3106 -0.4593  0.5352
 6319TIP3    H140372   5.223   1.609  14.885  0.2881 -0.9674  1.4126
 6319TIP3    H240373   5.152   1.680  14.998 -1.9170  1.4120 -1.3244
 6320TIP3   OH240374   4.519   5.073   1.299  0.8060  0.3802  0.3072
 6320TIP3    H140375   4.473   5.065   1.382  1.1549  0.2516  0.4886
 6320TIP3    H240376   4.484   5.153   1.260  0.1781  0.0981  0.2834
 6321TIP3   OH240377   2.144   5.339   1.084 -1.0373 -0.4010  0.2006
 6321TIP3    H140378   2.218   5.326   1.026 -0.4400  4.8594 -0.7603
 6321TIP3    H240379   2.178   5.317   1.171  0.9592 -0.2583 -0.4822
 6322TIP3   OH240380   2.479   6.651   4.814 -0.2420 -0.1958 -0.1215
 6322TIP3    H140381   2.412   6.681   4.875  0.0408  0.5121 -0.1417
 6322TIP3    H240382   2.485   6.557   4.828  0.6825  0.1053  1.8277
 6323TIP3   OH240383   5.842   1.686  15.330 -0.2734 -0.2154 -0.4713
 6323TIP3    H140384   5.834   1.590  15.332  1.3108 -0.3866  0.7511
 6323TIP3    H240385   5.797   1.713  15.250  0.5069 -2.1295 -1.6259
 6324TIP3   OH240386   5.507   1.627   0.285  0.3327 -0.0933  0.1943
 6324TIP3    H140387   5.542   1.708   0.325 -1.8284  0.6426  0.7362
 6324TIP3    H240388   5.585   1.575   0.265  1.7458  1.6403  0.8715
 6325TIP3   OH240389   0.918   2.916   4.318 -0.2431 -0.0491 -0.4602
 6325TIP3    H140390   0.944   2.825   4.304 -0.7145 -0.3221  0.3493
 6325TIP3    H240391   0.898   2.921   4.412  0.5538  1.0909 -0.3250
 6326TIP3   OH240392   6.807   4.326  13.423  0.4732 -0.1096  0.2015
 6326TIP3    H140393   6.756   4.327  13.504 -1.6916 -0.4996 -1.0846
 6326TIP3    H240394   6.827   4.418  13.406 -0.1165  0.0922  0.5512
 6327TIP3   OH240395   0.351   2.869   2.081  0.0769  0.5916 -0.1170
 6327TIP3    H140396   0.272   2.836   2.123  0.6491 -0.9861 -0.2095
 6327TIP3    H240397   0.409   2.892   2.153 -0.2824  1.3123 -0.0512
 6328TIP3   OH240398   2.035   6.147   0.064 -0.0623  0.3028  0.2897
 6328TIP3    H140399   1.951   6.189   0.042 -0.9664 -0.2008  2.5390
 6328TIP3    H240400   2.079   6.212   0.119  0.1365 -0.2361  0.7643
 6329TIP3   OH240401   6.660   0.120   0.303 -0.2309 -0.1147 -0.2134
 6329TIP3    H140402   6.667   0.113   0.398  1.4630 -0.6353 -0.3435
 6329TIP3    H240403   6.692   0.209   0.283  0.0304 -0.2313 -0.3281
 6330TIP3   OH240404   4.445   1.689   1.950 -0.3448 -0.0274 -0.5005
 6330TIP3    H140405   4.441   1.636   1.871  0.1880 -0.7808 -0.0381
 6330TIP3    H240406   4.448   1.780   1.919  0.3656 -0.3327 -1.3526
 6331TIP3   OH240407   6.682   0.928   3.928 -0.0620  0.4351 -0.3552
 6331TIP3    H140408   6.664   0.861   3.993  0.2157 -1.8597 -2.5095
 6331TIP3    H240409   6.598   0.944   3.885  0.4696 -1.0364 -2.0409
 6332TIP3   OH240410   6.620   1.576  11.332  0.2327  0.0535  0.6541
 6332TIP3    H140411   6.663   1.641  11.276  0.1352 -1.2777 -1.0711
 6332TIP3    H240412   6.571   1.521  11.271  2.6160 -3.4423  1.5735
 6333TIP3   OH240413   0.312   2.030   2.559 -0.6505  0.8116 -0.0991
 6333TIP3    H140414   0.372   2.091   2.514  0.4956  0.1412  0.4722
 6333TIP3    H240415   0.238   2.022   2.499  1.3868 -1.0829 -2.6015
 6334TIP3   OH240416   1.224   0.558   5.668 -0.0949  0.0867  0.0897
 6334TIP3    H140417   1.230   0.465   5.646 -1.9118  0.1197 -0.6575
 6334TIP3    H240418   1.236   0.603   5.584 -0.3112  0.4877  0.2755
 6335TIP3   OH240419   3.194   4.386   1.384 -0.6211  0.2436 -0.1177
 6335TIP3    H140420   3.100   4.381   1.399 -0.8718  1.2418 -1.2067
 6335TIP3    H240421   3.220   4.296   1.362 -1.7101  0.3040 -1.8414
 6336TIP3   OH240422   3.645   0.951  12.045 -0.7106 -0.0825  0.0016
 6336TIP3    H140423   3.711   0.896  12.086  0.6783  1.2083 -0.4391
 6336TIP3    H240424   3.694   1.015  11.994 -2.2996  0.8624 -0.4300
 6337TIP3   OH240425   4.222   6.553   4.128 -0.1684  0.0586 -0.0966
 6337TIP3    H140426   4.298   6.588   4.083  0.0965 -0.0116  0.2935
 6337TIP3    H240427   4.158   6.537   4.058  0.2810 -0.1608 -0.4614
 6338TIP3   OH240428   1.979   5.227   5.299 -0.0654  0.4344  0.3733
 6338TIP3    H140429   1.896   5.274   5.308 -0.2681 -0.1559  1.7619
 6338TIP3    H240430   1.967   5.146   5.348  0.6884 -0.5563 -1.0001
 6339TIP3   OH240431   3.374   3.277  16.052  0.5764  0.0378  0.7761
 6339TIP3    H140432   3.322   3.352  16.021  2.2591  0.2183 -1.9449
 6339TIP3    H240433   3.408   3.305  16.137 -1.2178  1.1296  1.1879
 6340TIP3   OH240434   3.873   2.820  11.585  0.7842 -0.1237  0.2409
 6340TIP3    H140435   3.793   2.777  11.555  1.0389 -0.2711 -0.2436
 6340TIP3    H240436   3.861   2.831  11.679 -0.4928  1.3394 -0.0573
 6341TIP3   OH240437   0.326   4.847   2.317  0.5926 -0.3291  0.1475
 6341TIP3    H140438   0.284   4.901   2.250  1.7585  1.5673  0.8544
 6341TIP3    H240439   0.341   4.907   2.390  0.9917 -1.8993  1.4171
 6342TIP3   OH240440   6.663   0.151  10.790 -0.0702 -0.2604 -0.1801
 6342TIP3    H140441   6.579   0.135  10.748  0.3778 -0.3996 -1.0541
 6342TIP3    H240442   6.674   0.077  10.851 -1.2499  0.5529  1.0752
 6343TIP3   OH240443   3.057   4.621   2.876 -0.3459 -0.1275  0.6076
 6343TIP3    H140444   2.971   4.642   2.840 -0.3045 -1.1104 -0.1053
 6343TIP3    H240445   3.039   4.564   2.950 -0.3107 -0.5411  0.3041
 6344TIP3   OH240446   3.108   5.010  16.678  0.1581 -0.2487  0.0181
 6344TIP3    H140447   3.093   4.962  16.597  1.8329 -0.4941 -0.1701
 6344TIP3    H240448   3.203   5.013  16.688  0.0289  0.9548  1.2738
 6345TIP3   OH240449   4.402   5.205   6.179 -0.1297 -0.9364  0.5254
 6345TIP3    H140450   4.376   5.294   6.203  1.2684  0.3647 -2.2874
 6345TIP3    H240451   4.320   5.161   6.156 -0.7698 -0.2105  1.3453
 6346TIP3   OH240452   0.696   5.361  10.906  0.0892  0.5486 -0.4467
 6346TIP3    H140453   0.691   5.387  10.814 -0.4884  0.4715 -0.4409
 6346TIP3    H240454   0.614   5.391  10.944  0.6972  1.3824  0.2608
 6347TIP3   OH240455   6.189   2.755  13.724  0.1953  0.6923  0.0887
 6347TIP3    H140456   6.215   2.729  13.635  0.4151  3.8096 -0.8845
 6347TIP3    H240457   6.095   2.768  13.719 -0.0273 -0.5504  0.7586
 6348TIP3   OH240458   6.022   1.756  14.126 -0.2764  0.2871  0.4544
 6348TIP3    H140459   6.088   1.826  14.133 -0.9314  0.9504  0.1045
 6348TIP3    H240460   6.042   1.697  14.199  1.9231 -0.5767 -0.7435
 6349TIP3   OH240461   2.791   2.468  16.708  0.2358 -0.2290 -0.0291
 6349TIP3    H140462   2.729   2.540  16.717  0.0818 -0.2234 -1.0105
 6349TIP3    H240463   2.739   2.390  16.729 -0.2165 -0.2570 -1.1666
 6350TIP3   OH240464   4.170   1.978   1.487 -0.4294  0.4694 -0.3496
 6350TIP3    H140465   4.170   2.050   1.424 -1.6072  0.6970 -0.1180
 6350TIP3    H240466   4.077   1.963   1.505 -0.1405 -0.2238  0.6130
 6351TIP3   OH240467   0.974   5.771   4.439 -0.3989 -0.1835 -0.2137
 6351TIP3    H140468   0.995   5.820   4.359  2.0492  0.8104  0.9550
 6351TIP3    H240469   1.056   5.729   4.464 -1.6340 -2.1658  0.6925
 6352TIP3   OH240470   6.327   6.075  11.096  0.1041 -0.0301 -0.7128
 6352TIP3    H140471   6.413   6.057  11.136  0.4277  2.1715 -0.3061
 6352TIP3    H240472   6.330   6.168  11.075 -2.0441 -0.0169 -1.0981
 6353TIP3   OH240473   3.178   0.553   3.032  0.5315  0.4068 -0.0231
 6353TIP3    H140474   3.084   0.566   3.027  0.2956 -0.9508  0.3045
 6353TIP3    H240475   3.199   0.562   3.125  0.1656 -2.3487  0.4126
 6354TIP3   OH240476   1.227   5.683   0.753  0.1652  0.6736  0.0217
 6354TIP3    H140477   1.156   5.720   0.805 -1.8825 -0.5216 -1.7650
 6354TIP3    H240478   1.255   5.755   0.696 -0.0282  0.9845  0.3170
 6355TIP3   OH240479   1.712   0.192  14.735 -0.3045  0.1846 -0.0835
 6355TIP3    H140480   1.712   0.180  14.640  0.6332  0.2474 -0.1024
 6355TIP3    H240481   1.637   0.250  14.751 -1.8764 -1.6060 -0.5149
 6356TIP3   OH240482   6.544   5.457   2.857  0.7457  0.5229  0.3133
 6356TIP3    H140483   6.504   5.539   2.826  1.0793  0.0663 -1.3839
 6356TIP3    H240484   6.631   5.457   2.818  0.5471 -0.9135 -0.1490
 6357TIP3   OH240485   2.462   1.013  15.841  0.6127 -0.1659  0.0046
 6357TIP3    H140486   2.484   1.009  15.934 -2.3438  0.6284  0.8329
 6357TIP3    H240487   2.453   1.107  15.822 -1.4839 -0.3808 -0.3088
 6358TIP3   OH240488   4.308   1.809   0.278 -0.5455  0.0496  0.6694
 6358TIP3    H140489   4.363   1.831   0.203 -1.6164  0.4943 -0.0091
 6358TIP3    H240490   4.292   1.893   0.321 -0.8076 -0.0534  0.7752
 6359TIP3   OH240491   3.204   5.958   1.692  0.6502  0.0099  0.2247
 6359TIP3    H140492   3.141   5.945   1.763 -0.2350 -0.9019 -0.6949
 6359TIP3    H240493   3.264   5.883   1.700  0.8343  0.1655  0.3025
 6360TIP3   OH240494   1.412   0.956  11.552  0.0841  0.1179 -0.2502
 6360TIP3    H140495   1.482   0.905  11.512  1.5582  0.9211  1.1670
 6360TIP3    H240496   1.391   0.909  11.633  0.6412  1.0845  0.4815
 6361TIP3   OH240497   5.722   1.371  13.644  0.2800 -0.5726 -0.3036
 6361TIP3    H140498   5.741   1.283  13.677  1.7414  0.1301  0.8706
 6361TIP3    H240499   5.647   1.401  13.695 -2.4263 -2.2826 -2.9609
 6362TIP3   OH240500   6.211   2.471   0.556  0.3756  0.3994  0.4509
 6362TIP3    H140501   6.228   2.523   0.634  0.0631  0.7288  0.3009
 6362TIP3    H240502   6.287   2.412   0.549  1.5576  1.9481 -0.2930
 6363TIP3   OH240503   3.762   1.802   0.571 -0.9953 -0.3653  0.8361
 6363TIP3    H140504   3.744   1.725   0.624  0.7853 -1.2128  0.2844
 6363TIP3    H240505   3.857   1.807   0.567 -1.0766  1.3086  0.0500
 6364TIP3   OH240506   1.635   0.355   0.569  0.5492  0.2844  0.8999
 6364TIP3    H140507   1.723   0.344   0.533  0.2188  0.3651  0.0459
 6364TIP3    H240508   1.621   0.277   0.622  0.1591 -1.0218 -1.0353
 6365TIP3   OH240509   2.028   2.235   1.582  0.0013  0.0804  0.3717
 6365TIP3    H140510   2.029   2.222   1.677  1.4428 -1.2773  0.2140
 6365TIP3    H240511   1.989   2.154   1.547 -1.0641  0.8082 -0.1963
 6366TIP3   OH240512   2.134   1.576   5.492  0.6445  0.0163  0.4347
 6366TIP3    H140513   2.199   1.644   5.507  0.0082  1.5343 -2.8557
 6366TIP3    H240514   2.164   1.531   5.412 -1.4594 -0.3154 -0.2360
 6367TIP3   OH240515   6.528   5.989   6.465  0.1690  0.2842  0.0908
 6367TIP3    H140516   6.575   6.037   6.533 -0.1360  0.4842  0.1607
 6367TIP3    H240517   6.596   5.964   6.402  0.1885  1.8338 -0.5526
 6368TIP3   OH240518   3.063   1.023  15.986  0.3160  0.1830  0.2924
 6368TIP3    H140519   3.096   0.999  15.900  0.0545  0.6726  0.0492
 6368TIP3    H240520   2.977   0.980  15.992 -0.0162  0.7972 -0.0173
 6369TIP3   OH240521   1.037   5.373  16.395 -0.4066  0.1114  0.0364
 6369TIP3    H140522   0.983   5.390  16.471 -2.9850 -0.4071 -1.5694
 6369TIP3    H240523   1.090   5.452  16.385  1.5672 -0.5932  3.4572
 6370TIP3   OH240524   6.649   2.590  11.809  0.1787  0.1588 -0.0929
 6370TIP3    H140525   6.570   2.620  11.853  0.0322  0.5373 -0.6079
 6370TIP3    H240526   6.621   2.571  11.719  0.2234 -1.6969  0.2486
 6371TIP3   OH240527   5.542   6.224  16.144  0.5491  0.6482 -0.1784
 6371TIP3    H140528   5.490   6.145  16.162  3.4429 -1.1613  0.8426
 6371TIP3    H240529   5.539   6.273  16.226  0.3540  0.6287 -0.1705
 6372TIP3   OH240530   5.974   2.193   2.280  0.2421 -0.2559 -0.2111
 6372TIP3    H140531   5.975   2.273   2.228 -0.7005  0.3900  0.7115
 6372TIP3    H240532   5.881   2.177   2.296  0.4925 -0.5674  1.0397
 6373TIP3   OH240533   3.535   0.183  11.723  0.0289 -0.5172  0.2530
 6373TIP3    H140534   3.551   0.213  11.633 -1.4987 -1.1790 -0.2542
 6373TIP3    H240535   3.607   0.223  11.773  0.3688  0.6561 -1.0785
 6374TIP3   OH240536   6.313   4.299  11.458 -0.1859  0.5080 -0.4450
 6374TIP3    H140537   6.344   4.328  11.372  0.0961 -0.8057 -0.8151
 6374TIP3    H240538   6.320   4.376  11.514  2.1570  0.7218 -0.9479
 6375TIP3   OH240539   2.659   0.387  12.726  0.8882  0.1688 -0.5102
 6375TIP3    H140540   2.672   0.300  12.688 -2.5043 -0.3871 -0.7085
 6375TIP3    H240541   2.618   0.438  12.656 -0.6837  0.7006  0.7321
 6376TIP3   OH240542   1.220   1.759   0.857  0.2850  0.1870 -0.0053
 6376TIP3    H140543   1.188   1.699   0.924 -0.5354 -1.1254 -1.5222
 6376TIP3    H240544   1.196   1.718   0.774  0.8599  1.9912 -1.1156
 6377TIP3   OH240545   6.301   0.288   4.648  0.1562  0.5548 -0.2121
 6377TIP3    H140546   6.335   0.275   4.736  0.1663  0.0206 -0.2937
 6377TIP3    H240547   6.208   0.268   4.654  0.6258 -2.3223 -0.8946
 6378TIP3   OH240548   6.148   6.786   5.945  0.4253  0.1107  0.2231
 6378TIP3    H140549   6.190   6.847   6.004  2.1949  0.2233 -1.0820
 6378TIP3    H240550   6.066   6.829   5.921  0.8178  1.1529  0.6952
 6379TIP3   OH240551   5.475   4.195   5.120 -0.7805 -0.0905 -0.1779
 6379TIP3    H140552   5.420   4.266   5.152  0.9088  0.8072  0.8640
 6379TIP3    H240553   5.540   4.237   5.064  0.3028 -0.7572  0.5287
 6380TIP3   OH240554   0.169   4.940   3.284 -0.1333 -0.3429  0.3881
 6380TIP3    H140555   0.250   4.988   3.295 -0.1388 -0.4226  0.7874
 6380TIP3    H240556   0.122   4.952   3.367 -0.2825 -0.7494  0.3656
 6381TIP3   OH240557   5.275   5.096  11.285 -0.3579  0.0514  0.6106
 6381TIP3    H140558   5.184   5.075  11.264 -0.5875  0.7448  0.8963
 6381TIP3    H240559   5.294   5.174  11.233  0.0507 -0.0399  0.6189
 6382TIP3   OH240560   0.528   1.605  14.147 -0.4231 -0.1647 -0.3391
 6382TIP3    H140561   0.574   1.527  14.117 -0.5015  0.0325 -0.9893
 6382TIP3    H240562   0.483   1.577  14.227 -0.6064 -0.8318 -0.6679
 6383TIP3   OH240563   4.131   5.887  16.076 -0.0656  0.5344 -0.0457
 6383TIP3    H140564   4.176   5.969  16.056 -0.3962  0.5538 -0.7180
 6383TIP3    H240565   4.041   5.900  16.044 -0.1271 -0.0790 -0.1315
 6384TIP3   OH240566   4.729   1.814   1.962 -0.8701 -0.2495  0.3408
 6384TIP3    H140567   4.812   1.790   1.920 -0.0707 -1.0679  2.2661
 6384TIP3    H240568   4.716   1.747   2.029 -3.5655 -0.6432 -0.4595
 6385TIP3   OH240569   6.074   6.428  17.012  0.0330 -0.0707 -0.3406
 6385TIP3    H140570   6.163   6.452  16.987  0.8015 -2.1442  0.1433
 6385TIP3    H240571   6.063   6.463  17.100  1.0965 -1.2976  0.3285
 6386TIP3   OH240572   6.793   5.904   2.591 -0.2582 -0.7536 -0.4931
 6386TIP3    H140573   6.698   5.894   2.584 -0.4796  0.5665  0.3068
 6386TIP3    H240574   6.825   5.897   2.501 -1.1547 -0.8317 -0.8088
 6387TIP3   OH240575   6.725   1.821   1.724  0.3762 -0.1599 -0.3698
 6387TIP3    H140576   6.743   1.731   1.697 -0.3880 -0.6873  0.7784
 6387TIP3    H240577   6.720   1.816   1.820 -2.2911  0.5716 -0.3831
 6388TIP3   OH240578   6.569   0.836   3.434 -0.2526 -0.4085  0.4787
 6388TIP3    H140579   6.548   0.750   3.397  2.1764 -0.9204  0.1190
 6388TIP3    H240580   6.616   0.816   3.515  1.0508  0.5404 -0.0157
 6389TIP3   OH240581   1.099   2.503   5.930  0.3498 -0.3399  0.4820
 6389TIP3    H140582   1.117   2.541   6.016  2.1721 -1.2334  0.5536
 6389TIP3    H240583   1.043   2.427   5.948 -1.6525  1.0959  0.5375
 6390TIP3   OH240584   1.495   1.391  13.804  0.6090 -0.2264 -0.1422
 6390TIP3    H140585   1.477   1.404  13.897  0.1370  0.1667 -0.2876
 6390TIP3    H240586   1.445   1.459  13.759  2.5056  0.9851 -0.5608
 6391TIP3   OH240587   4.677   5.478   3.748  0.5073 -0.0018  0.3165
 6391TIP3    H140588   4.680   5.555   3.691 -1.4465 -1.8414 -2.5666
 6391TIP3    H240589   4.755   5.427   3.723 -0.8365 -1.2649 -1.6521
 6392TIP3   OH240590   1.644   6.091  14.536  0.1627  0.4599 -0.3636
 6392TIP3    H140591   1.574   6.094  14.601 -0.7743 -1.5997 -1.1696
 6392TIP3    H240592   1.701   6.020  14.565  0.9131  0.9137 -0.6880
 6393TIP3   OH240593   6.006   1.287  13.067 -0.4144  0.0673 -0.0490
 6393TIP3    H140594   5.998   1.379  13.039 -0.7987 -0.4573 -1.8317
 6393TIP3    H240595   5.959   1.283  13.150  0.7033  1.7407  0.7140
 6394TIP3   OH240596   3.818   6.611  15.793  0.0695  0.0524 -0.2498
 6394TIP3    H140597   3.802   6.654  15.877 -2.6695 -0.8158 -0.2382
 6394TIP3    H240598   3.744   6.638  15.738  0.4642 -1.3716 -1.5554
 6395TIP3   OH240599   1.057   1.918  11.267  0.2260  0.6724 -0.2163
 6395TIP3    H140600   1.132   1.907  11.208 -0.6461 -0.0051 -1.2492
 6395TIP3    H240601   1.010   1.835  11.261  0.1287  0.5628  1.5020
 6396TIP3   OH240602   0.155   6.483   4.695 -0.1433  0.8080 -0.1551
 6396TIP3    H140603   0.129   6.415   4.633  1.0942  0.4937 -0.3633
 6396TIP3    H240604   0.250   6.488   4.686  0.1610  0.3001  2.1560
 6397TIP3   OH240605   0.940   6.622   1.296 -0.3815  0.3836  0.0361
 6397TIP3    H140606   1.013   6.617   1.359  0.3723  1.6460 -0.6902
 6397TIP3    H240607   0.867   6.655   1.348 -0.4789 -0.9186  0.7838
 6398TIP3   OH240608   0.913   1.701  16.463 -0.3514  0.1134  0.2906
 6398TIP3    H140609   0.895   1.607  16.468 -2.9068  0.5041  0.0004
 6398TIP3    H240610   0.842   1.741  16.514  0.0759  1.9218 -0.4835
 6399TIP3   OH240611   2.357   1.666  14.886 -0.3366  0.2464  0.2245
 6399TIP3    H140612   2.371   1.760  14.878  0.8682 -0.0167 -1.0866
 6399TIP3    H240613   2.414   1.640  14.959  0.0913  0.3885 -0.0561
 6400TIP3   OH240614   2.370   2.780  16.185  0.4517  0.0759  0.4256
 6400TIP3    H140615   2.343   2.851  16.242 -2.6280 -0.4510 -0.2260
 6400TIP3    H240616   2.367   2.817  16.097 -0.0975 -0.5452  0.1743
 6401TIP3   OH240617   6.107   1.508   0.224  0.1523  0.0084  0.2087
 6401TIP3    H140618   6.118   1.596   0.259 -1.1734 -0.6623  2.5034
 6401TIP3    H240619   6.015   1.505   0.196  0.9800  0.2960 -2.9124
 6402TIP3   OH240620   5.631   6.525   0.874 -0.0337  0.1511  0.3437
 6402TIP3    H140621   5.632   6.555   0.965 -1.3829 -0.6075  0.6383
 6402TIP3    H240622   5.548   6.558   0.838  1.1889  1.7912 -1.1258
 6403TIP3   OH240623   3.846   5.967   5.113  0.7195  0.5075  0.3375
 6403TIP3    H140624   3.820   5.994   5.025 -0.5914  1.1970  0.9057
 6403TIP3    H240625   3.933   5.929   5.102  0.7887  1.0456 -1.1702
 6404TIP3   OH240626   1.195   6.395  13.836 -0.0347  0.0977  0.3587
 6404TIP3    H140627   1.109   6.364  13.864 -0.1956  1.1611  1.0945
 6404TIP3    H240628   1.178   6.479  13.794  0.6979  0.6108  1.0535
 6405TIP3   OH240629   1.570   5.248   0.184 -0.5113 -0.4545 -0.2986
 6405TIP3    H140630   1.506   5.181   0.161 -0.2973 -2.0928  3.3070
 6405TIP3    H240631   1.641   5.235   0.121 -2.5447 -0.1626 -2.8496
 6406TIP3   OH240632   6.712   4.749  12.646  0.4094 -0.3802  0.2103
 6406TIP3    H140633   6.708   4.787  12.734  1.4810  1.8476 -0.6310
 6406TIP3    H240634   6.656   4.806  12.593 -0.4171 -1.8369 -0.5433
 6407TIP3   OH240635   0.455   0.878  11.166 -0.1705 -0.4231 -0.3044
 6407TIP3    H140636   0.389   0.811  11.179  0.5846 -1.3438 -1.1268
 6407TIP3    H240637   0.536   0.830  11.147  0.8707  0.6413  1.1304
 6408TIP3   OH240638   5.390   6.582  14.767  0.0802  0.1487 -0.2773
 6408TIP3    H140639   5.452   6.645  14.805  0.7678 -0.3815 -0.4971
 6408TIP3    H240640   5.390   6.602  14.674  0.7610 -0.5566 -0.4364
 6409TIP3   OH240641   1.734   4.366  11.467 -0.0451 -0.3851 -0.3522
 6409TIP3    H140642   1.692   4.313  11.399 -0.2758  0.5182 -0.9349
 6409TIP3    H240643   1.785   4.304  11.518  0.6237 -1.0022 -1.7379
 6410TIP3   OH240644   6.326   6.221   1.877 -0.0063  0.5070 -0.1735
 6410TIP3    H140645   6.409   6.259   1.907  0.6481 -1.3909  0.5858
 6410TIP3    H240646   6.302   6.274   1.801  0.9455  2.2482  0.6614
 6411TIP3   OH240647   1.992   2.494   1.405  0.0678 -0.7129  0.4613
 6411TIP3    H140648   1.993   2.552   1.481  0.0572  0.1699 -0.1942
 6411TIP3    H240649   2.072   2.517   1.357 -1.3971  0.8850 -1.3444
 6412TIP3   OH240650   0.056   1.289  12.219  0.7502 -0.4771  0.4122
 6412TIP3    H140651  -0.036   1.308  12.196  0.5633 -0.8503  0.8498
 6412TIP3    H240652   0.056   1.285  12.314  1.3285  0.0425  0.4379
 6413TIP3   OH240653   4.980   3.836   5.367 -0.1040  0.4541 -0.3184
 6413TIP3    H140654   5.065   3.867   5.399  0.2721 -0.7414 -0.0995
 6413TIP3    H240655   4.920   3.908   5.384  0.8489  1.2896 -0.3948
 6414TIP3   OH240656   6.083   5.806  12.961  0.1290  0.1666 -0.4568
 6414TIP3    H140657   6.068   5.724  12.914  1.7405  0.0538 -0.8396
 6414TIP3    H240658   6.017   5.866  12.926 -0.1219 -0.5506 -1.2532
 6415TIP3   OH240659   3.323   6.631   2.142  0.1623 -0.1305  0.3358
 6415TIP3    H140660   3.286   6.641   2.054 -0.3007  2.0803  0.7084
 6415TIP3    H240661   3.323   6.720   2.177 -1.3182 -1.1664  3.2440
 6416TIP3   OH240662   2.222   2.400   4.970  0.4946 -0.2148  0.0090
 6416TIP3    H140663   2.238   2.316   4.928 -1.2032 -0.5951  0.0440
 6416TIP3    H240664   2.225   2.464   4.899 -1.6653 -0.7699 -0.6586
 6417TIP3   OH240665   6.782   6.781  11.398 -0.2065  0.4262  0.0199
 6417TIP3    H140666   6.848   6.836  11.442 -0.3396  1.2644 -0.7972
 6417TIP3    H240667   6.826   6.749  11.320  0.3679 -1.8971  1.2177
 6418TIP3   OH240668   3.118   5.386  11.541 -0.1001 -0.3948  0.1258
 6418TIP3    H140669   3.181   5.449  11.507  1.3319 -1.6478  0.3842
 6418TIP3    H240670   3.116   5.402  11.636 -1.2002  0.5138 -0.0218
 6419TIP3   OH240671   2.002   3.580  14.131  0.1921  0.8352 -0.7250
 6419TIP3    H140672   1.952   3.508  14.093 -2.5474  1.0711  2.1261
 6419TIP3    H240673   1.967   3.658  14.087 -0.9277  0.8665  0.1860
 6420TIP3   OH240674   6.462   3.004  16.444 -0.8443 -0.0001 -0.3098
 6420TIP3    H140675   6.455   3.063  16.519 -1.1335  1.3375 -1.3517
 6420TIP3    H240676   6.552   2.972  16.447 -0.8669 -0.0137  0.6249
 6421TIP3   OH240677   6.296   1.024  14.106  0.1861  0.0352 -0.2876
 6421TIP3    H140678   6.285   1.065  14.020  2.8931  1.4430 -0.0936
 6421TIP3    H240679   6.376   0.972  14.098  0.0557 -0.4330  1.1484
 6422TIP3   OH240680   2.863   3.262   3.574  0.1542 -0.5303  0.3433
 6422TIP3    H140681   2.897   3.222   3.495 -0.4814  0.1952 -0.3111
 6422TIP3    H240682   2.886   3.355   3.565 -0.2637 -0.3764  0.8273
 6423TIP3   OH240683   1.099   2.265  16.153 -0.0871  0.4903 -0.3432
 6423TIP3    H140684   1.162   2.237  16.219  1.0250  3.2462 -0.1163
 6423TIP3    H240685   1.128   2.222  16.073  1.0501  0.3514  0.1189
 6424TIP3   OH240686   0.757   3.575   0.431 -0.1119 -0.0326  0.5850
 6424TIP3    H140687   0.771   3.495   0.481  0.8132 -1.7188 -2.1442
 6424TIP3    H240688   0.662   3.585   0.427 -0.2155 -0.2901  1.9271
 6425TIP3   OH240689   2.403   2.976  15.987 -0.2389 -0.2356 -0.3338
 6425TIP3    H140690   2.494   2.999  16.006 -0.0764 -0.2198 -1.1181
 6425TIP3    H240691   2.355   3.059  15.996  0.2152  0.2820 -2.3237
 6426TIP3   OH240692   0.248   6.703   3.238  0.0864 -0.2848 -0.4004
 6426TIP3    H140693   0.233   6.658   3.155 -0.7379  0.1055 -0.4827
 6426TIP3    H240694   0.188   6.777   3.236 -0.3706 -0.5880  0.7816
 6427TIP3   OH240695   5.064   0.488  14.360 -1.0648 -1.0609 -0.2169
 6427TIP3    H140696   5.057   0.536  14.443 -0.6765  0.9667 -1.3022
 6427TIP3    H240697   4.976   0.490  14.324 -0.7490  0.3606 -1.0167
 6428TIP3   OH240698   5.684   4.988  16.757  0.1620  0.0027 -0.3366
 6428TIP3    H140699   5.673   4.987  16.662  0.6744  1.2521 -0.4123
 6428TIP3    H240700   5.778   4.979  16.771  0.0025 -1.2292  0.1003
 6429TIP3   OH240701   3.004   4.728  15.126 -0.2355  0.1923 -0.0057
 6429TIP3    H140702   3.008   4.783  15.204 -1.1152  0.3224 -0.0475
 6429TIP3    H240703   3.038   4.643  15.155 -0.5614  0.2406  0.5217
 6430TIP3   OH240704   0.871   2.015   2.023  0.9049 -0.4554 -0.2249
 6430TIP3    H140705   0.792   1.964   2.035  0.3172  0.3657 -0.5443
 6430TIP3    H240706   0.903   1.990   1.936  0.4540 -0.0683 -0.5071
 6431TIP3   OH240707   2.674   0.718  14.644  0.4226  0.0377  0.3541
 6431TIP3    H140708   2.768   0.732  14.642  0.5703 -0.8300  0.8116
 6431TIP3    H240709   2.638   0.790  14.592  1.2438  1.0172  1.1187
 6432TIP3   OH240710   4.367   5.776   1.795  0.0964 -0.0774  0.5601
 6432TIP3    H140711   4.365   5.871   1.795 -0.9113 -0.0827  1.6443
 6432TIP3    H240712   4.453   5.754   1.758 -0.4795  1.1887 -1.7080
 6433TIP3   OH240713   0.376   0.974   1.971  0.0244 -0.6128  0.5029
 6433TIP3    H140714   0.338   0.895   2.009  0.4831 -1.2270 -0.2810
 6433TIP3    H240715   0.365   1.040   2.039 -0.9219 -1.1855  0.9356
 6434TIP3   OH240716   6.784   1.628   0.093 -0.2839 -0.3376  0.1679
 6434TIP3    H140717   6.796   1.546   0.046 -0.9809 -0.9820  1.0910
 6434TIP3    H240718   6.866   1.641   0.141 -0.1561 -0.4627 -0.0151
 6435TIP3   OH240719   2.087   2.862  12.361 -0.4401 -0.0698  0.0532
 6435TIP3    H140720   2.063   2.913  12.284  3.8690  1.2580 -0.6745
 6435TIP3    H240721   2.118   2.779  12.326 -1.6277 -0.8238  0.7215
 6436TIP3   OH240722   6.500   5.894  15.946 -0.1191  0.2759  0.0688
 6436TIP3    H140723   6.566   5.937  15.892 -0.2281  0.2906 -0.0532
 6436TIP3    H240724   6.459   5.966  15.995  1.0995  0.1011  1.4232
 6437TIP3   OH240725   1.798   6.305  11.461 -0.0722 -0.3709 -0.0448
 6437TIP3    H140726   1.706   6.283  11.475  0.1958 -0.7875  1.1472
 6437TIP3    H240727   1.798   6.361  11.383 -1.5648  1.2947  1.0802
 6438TIP3   OH240728   1.224   0.034   4.806  0.8559  0.1924  0.1658
 6438TIP3    H140729   1.231   0.120   4.847 -0.8109 -0.1338  1.2696
 6438TIP3    H240730   1.147  -0.006   4.848  0.1022 -0.8745 -2.0544
 6439TIP3   OH240731   3.112   4.099   3.211  0.0301  0.1556  0.1908
 6439TIP3    H140732   3.069   4.157   3.274 -0.9439  2.5519 -2.4709
 6439TIP3    H240733   3.044   4.081   3.145  1.0034 -2.2229 -0.2600
 6440TIP3   OH240734   5.478   5.465   4.444 -0.3867  0.1184 -0.7960
 6440TIP3    H140735   5.530   5.401   4.492  0.5443  0.2241 -1.6458
 6440TIP3    H240736   5.394   5.422   4.429 -0.6157 -0.0173  0.6723
 6441TIP3   OH240737   2.751   6.679   0.592 -0.2451  0.4378  0.4898
 6441TIP3    H140738   2.738   6.734   0.514 -0.9314 -0.0628  0.2398
 6441TIP3    H240739   2.664   6.644   0.612  0.3438 -1.4937 -0.0747
 6442TIP3   OH240740   4.781   0.318  13.668  0.5260  0.0686  0.5814
 6442TIP3    H140741   4.804   0.250  13.732  2.3485  0.9195  0.8929
 6442TIP3    H240742   4.691   0.342  13.690 -0.6156 -2.9767 -0.2478
 6443TIP3   OH240743   6.812   0.087  12.156  0.1462 -0.0723 -0.8424
 6443TIP3    H140744   6.856   0.134  12.085  2.3195 -1.7159 -0.7059
 6443TIP3    H240745   6.869   0.099  12.232 -2.4330  2.1519  0.9217
 6444TIP3   OH240746   3.538   2.477  14.698  0.1157  0.0910 -0.8164
 6444TIP3    H140747   3.614   2.423  14.677  0.9801 -0.0253  2.1361
 6444TIP3    H240748   3.557   2.512  14.785 -3.2175  0.0478  0.0733
 6445TIP3   OH240749   6.741   0.169  16.823  0.3908 -0.0323 -0.0123
 6445TIP3    H140750   6.713   0.239  16.763 -0.3261  0.6022  1.0388
 6445TIP3    H240751   6.734   0.207  16.910  0.6394 -1.2043  0.5420
 6446TIP3   OH240752   4.073   4.393  15.827  0.6397 -0.0247 -0.2820
 6446TIP3    H140753   4.061   4.354  15.914  0.2958 -0.5397 -0.5524
 6446TIP3    H240754   4.097   4.484  15.844  1.8177 -0.4374  0.3757
 6447TIP3   OH240755   3.626   3.264   6.839 -0.0100  0.0594 -0.3689
 6447TIP3    H140756   3.614   3.293   6.748  1.2430 -0.3618 -0.6839
 6447TIP3    H240757   3.670   3.338   6.882  0.4914 -0.2093 -0.4173
 6448TIP3   OH240758   3.306   5.618   5.338  0.1351 -0.1275  0.1640
 6448TIP3    H140759   3.364   5.684   5.300  0.3217 -0.1884  0.3399
 6448TIP3    H240760   3.309   5.634   5.432 -0.7285  0.3437  0.1136
 6449TIP3   OH240761   3.148   3.964  11.570 -0.4375  0.4515 -0.4174
 6449TIP3    H140762   3.097   3.913  11.507 -0.1212 -0.4806  0.0655
 6449TIP3    H240763   3.088   3.980  11.642 -0.6732  1.1674 -0.7590
 6450TIP3   OH240764   4.458   0.965   0.733  0.3680  0.0061 -0.1866
 6450TIP3    H140765   4.378   0.973   0.785 -0.1383 -0.3196 -0.8887
 6450TIP3    H240766   4.488   0.876   0.750 -0.6551 -0.6573 -1.5994
 6451TIP3   OH240767   1.405   2.785   0.254  0.0545 -0.0287  0.4972
 6451TIP3    H140768   1.424   2.719   0.187 -0.4437 -0.1079  0.4319
 6451TIP3    H240769   1.461   2.760   0.328  0.3106 -0.1746  0.2541
 6452TIP3   OH240770   4.717   2.420   4.068 -0.2798 -0.0320  0.8110
 6452TIP3    H140771   4.648   2.481   4.043 -0.8942 -0.2160  1.9676
 6452TIP3    H240772   4.796   2.474   4.071  0.0979 -0.1923 -2.4220
 6453TIP3   OH240773   2.417   5.016  15.475  0.1119  0.4453 -0.6724
 6453TIP3    H140774   2.505   5.001  15.443  0.6513 -2.9591  1.8460
 6453TIP3    H240775   2.426   5.018  15.570 -2.3492  1.8792 -0.3717
 6454TIP3   OH240776   5.343   2.353  12.307 -0.7170 -0.0222  0.3226
 6454TIP3    H140777   5.336   2.388  12.218 -0.4097  0.0862  0.3394
 6454TIP3    H240778   5.437   2.341  12.320 -0.5704  1.8566  1.3502
 6455TIP3   OH240779   4.387   0.934   3.571  0.5164 -0.0824  0.0678
 6455TIP3    H140780   4.379   0.892   3.485  1.0707 -3.5659  1.5769
 6455TIP3    H240781   4.450   1.005   3.556 -0.7967  0.6539 -2.7385
 6456TIP3   OH240782   1.283   5.224  16.434 -0.4257 -0.5257 -0.0321
 6456TIP3    H140783   1.338   5.294  16.468  1.5954 -1.8291 -0.4580
 6456TIP3    H240784   1.205   5.268  16.400 -0.1450  1.2864  1.4998
 6457TIP3   OH240785   3.710   4.006   7.115 -0.2012 -0.1339 -0.2449
 6457TIP3    H140786   3.742   4.086   7.074  1.1500 -0.7268 -0.3687
 6457TIP3    H240787   3.692   3.947   7.042  0.9957 -0.7441 -0.0546
 6458TIP3   OH240788   4.109   2.624   5.047  0.2451 -0.1129 -0.5709
 6458TIP3    H140789   4.133   2.703   5.094  1.5045  0.5172 -2.1535
 6458TIP3    H240790   4.083   2.655   4.960 -1.7477 -1.2437 -0.4500
 6459TIP3   OH240791   0.656   6.352   0.340 -0.2268 -0.0822  0.4910
 6459TIP3    H140792   0.734   6.302   0.315  0.8253  1.2845  0.8910
 6459TIP3    H240793   0.685   6.405   0.414 -1.7218  0.0352  1.0171
 6460TIP3   OH240794   4.674   1.780   2.597  0.6399  0.5063 -0.6903
 6460TIP3    H140795   4.750   1.795   2.653 -0.1654 -0.2120  0.6557
 6460TIP3    H240796   4.613   1.851   2.619 -0.5423 -0.9097  0.9981
 6461TIP3   OH240797   0.637   5.095   4.543 -0.1941 -0.2194 -0.0331
 6461TIP3    H140798   0.654   5.043   4.621 -0.5164  1.3965  1.1669
 6461TIP3    H240799   0.545   5.120   4.550 -0.4476 -0.6919 -1.3534
 6462TIP3   OH240800   0.660   5.338   3.223 -0.1863 -0.0175  1.1277
 6462TIP3    H140801   0.611   5.308   3.299  0.4495 -1.6480  0.9424
 6462TIP3    H240802   0.692   5.257   3.182  0.4470  0.8767 -0.2182
 6463TIP3   OH240803   1.276   4.219   4.929 -0.2474 -0.1799 -0.6716
 6463TIP3    H140804   1.275   4.185   4.839 -0.6959 -0.3926 -0.5847
 6463TIP3    H240805   1.208   4.287   4.930 -0.4181 -0.3549 -0.4214
 6464TIP3   OH240806   6.324   2.770  11.515  0.5225  0.3122 -0.1155
 6464TIP3    H140807   6.313   2.782  11.421 -0.5106  2.3818  0.2232
 6464TIP3    H240808   6.237   2.746  11.546  1.3651 -3.0838  0.0504
 6465TIP3   OH240809   5.865   6.261  10.629  0.1279 -0.3617  0.0833
 6465TIP3    H140810   5.838   6.353  10.625  1.4280  0.0076 -0.9161
 6465TIP3    H240811   5.798   6.214  10.580  0.7292  0.4053 -1.5494
 6466TIP3   OH240812   2.603   2.146  13.955  0.1217 -0.2072  0.6520
 6466TIP3    H140813   2.682   2.100  13.928 -0.4978 -0.1385 -1.4293
 6466TIP3    H240814   2.615   2.236  13.924 -2.0240 -0.9016 -2.6260
 6467TIP3   OH240815   4.629   5.820  15.564 -0.5779 -0.5231 -0.6508
 6467TIP3    H140816   4.666   5.769  15.636  1.0308  0.4032 -0.7674
 6467TIP3    H240817   4.575   5.886  15.608 -1.9134 -1.6906 -0.4622
 6468TIP3   OH240818   6.397   6.622  14.701 -0.1680  0.0472  0.7406
 6468TIP3    H140819   6.338   6.645  14.628  0.8800  1.2612  0.2363
 6468TIP3    H240820   6.368   6.535  14.728 -1.5689  0.1988 -0.1260
 6469TIP3   OH240821   4.947   4.791  14.088 -0.2869  0.2236 -0.0590
 6469TIP3    H140822   4.901   4.772  14.170  0.3841 -0.4295  0.1888
 6469TIP3    H240823   4.965   4.705  14.051  3.3180  0.2059  1.3393
 6470TIP3   OH240824   3.075   4.290  12.264  0.0184 -0.1848 -0.0802
 6470TIP3    H140825   3.162   4.328  12.252  0.0794 -0.1760  0.3572
 6470TIP3    H240826   3.016   4.352  12.221  0.0412  0.8106  1.2498
 6471TIP3   OH240827   6.678   6.079  13.548 -0.1166  0.0254 -0.2945
 6471TIP3    H140828   6.730   6.036  13.481  1.2359 -0.0047  0.7300
 6471TIP3    H240829   6.655   6.164  13.510  0.7376  0.0603 -0.7409
 6472TIP3   OH240830   6.512   1.601  13.157  0.1837  0.4252 -0.7020
 6472TIP3    H140831   6.447   1.671  13.146  0.9381  0.9989 -1.6501
 6472TIP3    H240832   6.460   1.522  13.170 -0.6896  1.1502  0.3982
 6473TIP3   OH240833   2.837   4.363  15.591  0.3114  0.1226 -0.2773
 6473TIP3    H140834   2.832   4.456  15.612 -2.5598 -0.1331  0.5303
 6473TIP3    H240835   2.768   4.348  15.527  0.8635 -1.4393 -0.5594
 6474TIP3   OH240836   2.967   3.899  10.780  0.3313  0.4850  0.4344
 6474TIP3    H140837   3.001   3.984  10.753 -0.8126  0.8988  0.2593
 6474TIP3    H240838   3.039   3.838  10.762  0.5786  1.1599 -1.0050
 6475TIP3   OH240839   4.889   2.908  12.955 -0.1339 -0.1954  0.1339
 6475TIP3    H140840   4.843   2.960  12.889  2.6385 -0.0620 -1.8714
 6475TIP3    H240841   4.824   2.891  13.022 -2.2447  2.4406 -1.0764
 6476TIP3   OH240842   0.593   5.011   4.050 -0.4027  0.7166  0.7089
 6476TIP3    H140843   0.664   4.951   4.028  0.4414  0.3060  4.0753
 6476TIP3    H240844   0.513   4.961   4.032  0.1389  0.4557 -1.1888
 6477TIP3   OH240845   1.253   3.598  13.667  0.2678 -0.3848 -0.7239
 6477TIP3    H140846   1.293   3.675  13.708  0.5823 -0.8174 -0.2083
 6477TIP3    H240847   1.159   3.609  13.682  0.3083 -0.0682 -0.7046
 6478TIP3   OH240848   0.956   4.559   0.537  0.1407 -0.5021  0.3831
 6478TIP3    H140849   0.910   4.533   0.617 -0.0290 -1.8475 -0.1341
 6478TIP3    H240850   0.890   4.553   0.468 -0.2021  2.3297  0.3341
 6479TIP3   OH240851   3.449   5.926   1.345  0.2558 -0.1237  0.0288
 6479TIP3    H140852   3.356   5.943   1.326  0.5865  1.5270 -0.2780
 6479TIP3    H240853   3.492   6.010   1.329  2.1856 -1.4166 -2.1636
 6480TIP3   OH240854   6.578   2.877  13.915  0.3013  0.3084  0.1000
 6480TIP3    H140855   6.628   2.897  13.994  0.5744  0.7265 -0.1750
 6480TIP3    H240856   6.490   2.855  13.946  0.6983 -0.6358  0.6091
 6481TIP3   OH240857   5.091   1.174   0.200 -0.1785 -0.4339 -0.1043
 6481TIP3    H140858   5.049   1.137   0.278 -0.4521 -1.2116 -0.6166
 6481TIP3    H240859   5.064   1.266   0.201  0.7901 -0.1363  1.3663
 6482TIP3   OH240860   4.698   3.553  14.036  0.8749 -0.0019  0.5592
 6482TIP3    H140861   4.656   3.604  14.106 -0.8418 -0.1755 -0.2789
 6482TIP3    H240862   4.642   3.476  14.027  0.8531  0.1768 -1.2205
 6483TIP3   OH240863   3.588   1.246  15.783 -0.0860 -0.2961  0.0647
 6483TIP3    H140864   3.634   1.168  15.752 -0.9618 -0.9205  0.3288
 6483TIP3    H240865   3.513   1.213  15.832  0.5814  0.6796  1.8444
 6484TIP3   OH240866   1.626   1.883  14.943  0.0291 -0.6091 -0.5286
 6484TIP3    H140867   1.719   1.864  14.950 -0.4067 -2.2888  1.8355
 6484TIP3    H240868   1.593   1.818  14.882  0.2520 -0.6034 -0.6570
 6485TIP3   OH240869   5.905   1.950   4.493 -0.2847  0.1445  0.2699
 6485TIP3    H140870   5.974   1.989   4.439 -0.4516 -1.7839 -1.4610
 6485TIP3    H240871   5.930   1.972   4.583  1.2284  1.5786 -0.4401
 6486TIP3   OH240872   6.311   1.488   4.453  0.1543 -0.8435  0.1249
 6486TIP3    H140873   6.289   1.455   4.366  0.0280 -0.3832 -0.0161
 6486TIP3    H240874   6.326   1.409   4.505  0.1889 -1.1199 -0.3024
 6487TIP3   OH240875   0.200   0.617  13.686 -0.2449  0.7993 -0.2435
 6487TIP3    H140876   0.252   0.560  13.629 -0.1714  0.5657  0.0500
 6487TIP3    H240877   0.125   0.643  13.633 -0.1929  0.5586 -0.4357
 6488TIP3   OH240878   5.681   0.047   2.253 -0.3354  0.1435 -0.4818
 6488TIP3    H140879   5.606   0.097   2.283 -0.3272  0.6156 -1.2163
 6488TIP3    H240880   5.754   0.109   2.255  0.4218 -0.7388  1.8056
 6489TIP3   OH240881   6.681   0.096   2.168 -0.4778  0.1483  0.1351
 6489TIP3    H140882   6.675   0.118   2.075 -1.0202 -0.3589  0.0422
 6489TIP3    H240883   6.714   0.175   2.210  0.6347  0.0922 -0.6046
 6490TIP3   OH240884   6.346   4.875   2.582  0.3375 -0.1438 -0.1538
 6490TIP3    H140885   6.387   4.796   2.619  1.7910 -0.1164 -1.5725
 6490TIP3    H240886   6.330   4.931   2.657 -0.5633 -1.6988  0.8765
 6491TIP3   OH240887   6.735   2.867   3.042 -0.2378 -0.1581 -0.2205
 6491TIP3    H140888   6.746   2.899   2.952 -0.4722 -1.1891 -0.6289
 6491TIP3    H240889   6.640   2.851   3.050 -0.4533  1.3630  0.7232
 6492TIP3   OH240890   0.638   5.772   0.514  0.5506 -0.2763  0.2329
 6492TIP3    H140891   0.709   5.796   0.574  1.6542  0.5098 -1.3074
 6492TIP3    H240892   0.587   5.853   0.504  0.0415 -0.5577  0.5415
 6493TIP3   OH240893   3.680   6.508  11.623 -0.4745  0.0480 -0.1409
 6493TIP3    H140894   3.760   6.456  11.614  1.3472  2.5862  0.3072
 6493TIP3    H240895   3.609   6.444  11.616  1.4577 -2.0451 -3.0202
 6494TIP3   OH240896   2.835   3.661  11.865  0.6067  0.1158  0.0625
 6494TIP3    H140897   2.885   3.671  11.784  0.7596  0.4286  0.1968
 6494TIP3    H240898   2.784   3.580  11.851  1.3195 -0.3336  0.0159
 6495TIP3   OH240899   4.190   0.289  16.141  0.4903  0.3592  0.0521
 6495TIP3    H140900   4.122   0.245  16.090  0.5606 -0.6085  0.7621
 6495TIP3    H240901   4.231   0.350  16.080  0.2956 -0.4693 -0.9246
 6496TIP3   OH240902   2.944   4.568  11.535 -0.3592  0.1807 -0.4605
 6496TIP3    H140903   2.957   4.536  11.446 -2.1850 -0.0784 -0.6839
 6496TIP3    H240904   2.860   4.531  11.561  0.6315 -0.6306  1.8002
 6497TIP3   OH240905   1.711   5.816   4.964 -0.3803 -0.3639  0.1962
 6497TIP3    H140906   1.769   5.881   5.004 -0.4437 -0.5656  0.6279
 6497TIP3    H240907   1.627   5.830   5.007 -0.8282  0.3434 -0.8695
 6498TIP3   OH240908   6.447   1.269  11.277 -0.2954  0.0178 -0.1646
 6498TIP3    H140909   6.516   1.256  11.342 -0.9830  1.3721  0.8709
 6498TIP3    H240910   6.369   1.229  11.316 -0.8807  1.4524  0.2178
 6499TIP3   OH240911   1.394   4.011   6.461  0.3073 -0.1542 -0.3930
 6499TIP3    H140912   1.381   4.022   6.555  1.0404 -0.8220 -0.2085
 6499TIP3    H240913   1.313   4.044   6.422  0.0115  0.1619  0.4655
 6500TIP3   OH240914   5.722   1.669  13.823 -0.4440 -0.3934  0.7008
 6500TIP3    H140915   5.676   1.752  13.833  1.0629  0.4644  0.8086
 6500TIP3    H240916   5.653   1.603  13.826 -1.6495  0.8288  0.8773
 6501TIP3   OH240917   2.426   2.132  12.732 -0.5804  0.4752  0.2250
 6501TIP3    H140918   2.343   2.095  12.701  0.0169 -0.3813 -0.4416
 6501TIP3    H240919   2.490   2.103  12.666  0.5485 -0.3808  1.6418
 6502TIP3   OH240920   3.223   6.719  15.469  0.4092 -0.1319  0.7556
 6502TIP3    H140921   3.260   6.743  15.554  1.5527  0.0830  0.2182
 6502TIP3    H240922   3.231   6.798  15.416 -1.9501  0.3040  0.9527
 6503TIP3   OH240923   5.361   1.967  14.774  0.4220  0.3643 -0.3956
 6503TIP3    H140924   5.357   2.038  14.711  2.2089  1.9454  1.1335
 6503TIP3    H240925   5.319   2.002  14.853 -0.2579 -0.9497 -0.1352
 6504TIP3   OH240926   5.986   1.839   1.714 -0.3054 -0.0834 -0.4323
 6504TIP3    H140927   5.998   1.838   1.619  1.5383 -1.2630 -0.2302
 6504TIP3    H240928   5.932   1.763   1.732  0.2747 -0.5067 -0.4513
 6505TIP3   OH240929   3.592   2.359   4.444  0.3472  0.1770  0.0709
 6505TIP3    H140930   3.621   2.290   4.504 -1.1387 -0.9107 -0.4062
 6505TIP3    H240931   3.511   2.392   4.482  1.2886  2.1028  0.5743
 6506TIP3   OH240932   1.368   2.155   0.933  0.0356 -0.2243  0.2768
 6506TIP3    H140933   1.342   2.225   0.993  0.8357  0.6877 -0.4013
 6506TIP3    H240934   1.382   2.199   0.850  0.5122 -1.2146 -0.1846
 6507TIP3   OH240935   4.925   2.663   0.981 -0.3132 -0.0174  0.7572
 6507TIP3    H140936   4.919   2.759   0.976 -1.6735 -0.1089 -0.0912
 6507TIP3    H240937   4.980   2.639   0.906  1.5844  0.1672  2.0178
 6508TIP3   OH240938   1.523   5.108  15.486 -0.0511  0.2735  0.0144
 6508TIP3    H140939   1.593   5.099  15.551 -0.8997 -2.9065  0.6610
 6508TIP3    H240940   1.562   5.075  15.405  0.0957  1.4366 -0.4062
 6509TIP3   OH240941   2.570   6.139  14.256 -0.0503  0.3602  0.1015
 6509TIP3    H140942   2.603   6.228  14.254 -1.9424  1.1190  0.4126
 6509TIP3    H240943   2.495   6.142  14.315 -1.1466 -1.0466 -1.1283
 6510TIP3   OH240944   0.963   5.937  15.463  0.2461 -0.1419  0.0125
 6510TIP3    H140945   1.027   5.881  15.420 -0.3380 -0.6001 -0.2718
 6510TIP3    H240946   1.013   5.986  15.528  1.1808  0.6215 -1.2215
 6511TIP3   OH240947   1.178   1.819  13.723  0.3809 -0.1096 -0.0721
 6511TIP3    H140948   1.099   1.826  13.670  0.1289  0.8386  0.4055
 6511TIP3    H240949   1.152   1.854  13.809  0.5475 -2.2957  0.9348
 6512TIP3   OH240950   1.377   5.637   2.591  0.2834  0.4819 -0.2871
 6512TIP3    H140951   1.399   5.546   2.609 -0.4366  0.2127 -0.7399
 6512TIP3    H240952   1.298   5.653   2.644 -0.9765  0.1283 -1.9912
 6513TIP3   OH240953   1.581   2.703  16.160  0.5858  0.4325  0.2810
 6513TIP3    H140954   1.637   2.759  16.107 -0.6042  1.7055  0.3111
 6513TIP3    H240955   1.601   2.615  16.130  1.3613  0.9702 -0.8962
 6514TIP3   OH240956   5.574   2.813  15.018  0.3691  0.2841 -0.0736
 6514TIP3    H140957   5.577   2.847  15.107  3.7650 -0.4141  0.2095
 6514TIP3    H240958   5.533   2.727  15.026 -1.3253  1.0922  0.4004
 6515TIP3   OH240959   3.590   5.098  15.932 -0.3033 -0.3931  0.7640
 6515TIP3    H140960   3.614   5.173  15.987  1.6386 -0.4539  0.0839
 6515TIP3    H240961   3.674   5.055  15.913 -1.1775 -1.6555 -0.4024
 6516TIP3   OH240962   5.261   1.043  16.502  0.5052  0.0897  0.3130
 6516TIP3    H140963   5.299   1.057  16.416 -0.0213 -1.5310 -0.2408
 6516TIP3    H240964   5.241   1.130  16.535  0.9433  0.7531 -1.1047
 6517TIP3   OH240965   5.753   2.835   0.023  0.0396 -0.0814  0.5786
 6517TIP3    H140966   5.769   2.900   0.091  2.0830  0.1892 -0.0970
 6517TIP3    H240967   5.790   2.754   0.057 -0.8517 -0.4666  0.6549
 6518TIP3   OH240968   4.671   6.555   1.880  0.2342 -0.5170 -0.4979
 6518TIP3    H140969   4.622   6.583   1.957 -0.7286 -1.6389 -0.6752
 6518TIP3    H240970   4.755   6.524   1.914 -0.6992 -2.3175  0.3076
 6519TIP3   OH240971   5.785   5.178   0.891 -0.3523 -0.4367  0.8033
 6519TIP3    H140972   5.809   5.088   0.909  0.8018 -0.1094  0.9532
 6519TIP3    H240973   5.844   5.205   0.821 -1.5648 -0.1918 -0.1730
 6520TIP3   OH240974   3.560   5.684  12.605  0.6903 -0.1326  0.0877
 6520TIP3    H140975   3.610   5.753  12.648  0.8465 -0.1992  0.0121
 6520TIP3    H240976   3.626   5.622  12.573  0.5031 -1.2559  1.7017
 6521TIP3   OH240977   0.748   2.740   0.360  0.4934 -0.1201  0.6919
 6521TIP3    H140978   0.699   2.769   0.284  0.2819  1.4232  1.3844
 6521TIP3    H240979   0.765   2.820   0.411 -0.8899 -1.2669  3.1398
 6522TIP3   OH240980   5.244   0.371   2.813 -0.1784 -0.6701 -0.8305
 6522TIP3    H140981   5.172   0.354   2.752  1.2043 -2.1542 -2.1316
 6522TIP3    H240982   5.312   0.309   2.788  0.8020 -0.7091  1.6871
 6523TIP3   OH240983   2.858   4.926  16.022 -0.6937  0.3423 -0.1985
 6523TIP3    H140984   2.943   4.943  15.981  0.4125 -1.1305  1.3098
 6523TIP3    H240985   2.864   4.968  16.108 -1.7482  0.7434 -0.3094
 6524TIP3   OH240986   2.272   6.332   1.255  0.1526  0.1483 -0.3347
 6524TIP3    H140987   2.233   6.419   1.264 -0.4350 -0.1945  0.6101
 6524TIP3    H240988   2.320   6.319   1.336 -0.4546 -0.7392 -0.1068
 6525TIP3   OH240989   6.472   5.324  12.059  0.3170  0.1979 -0.5140
 6525TIP3    H140990   6.458   5.230  12.044  1.0577 -0.0536  0.3184
 6525TIP3    H240991   6.428   5.366  11.985  0.3837 -0.8226 -1.1620
 6526TIP3   OH240992   0.516   4.481   3.770 -0.3138  0.0695 -0.2061
 6526TIP3    H140993   0.598   4.475   3.721 -1.1270 -1.9583 -1.4653
 6526TIP3    H240994   0.508   4.573   3.793  0.9938  0.8072 -2.3892
 6527TIP3   OH240995   0.340   2.222  15.821 -0.0618 -0.3687 -0.1811
 6527TIP3    H140996   0.393   2.291  15.861 -1.1291  0.5862 -0.3650
 6527TIP3    H240997   0.252   2.237  15.855 -0.0271 -2.7297  1.1787
 6528TIP3   OH240998   3.228   4.292  13.546  0.0577  0.2298  0.0730
 6528TIP3    H140999   3.231   4.360  13.479 -0.2619 -2.1111 -2.4946
 6528TIP3    H241000   3.135   4.277  13.561  0.1306  0.8430  1.1829
 6529TIP3   OH241001   0.008   4.593  13.431 -0.3272 -0.6860 -0.1328
 6529TIP3    H141002   0.055   4.670  13.398  1.8715 -2.2681 -0.9257
 6529TIP3    H241003  -0.038   4.625  13.509 -0.8529  1.7753 -1.3624
 6530TIP3   OH241004   0.912   5.652   4.700 -0.0491 -0.0546  0.1560
 6530TIP3    H141005   0.959   5.570   4.717 -0.3541 -0.5818 -1.3739
 6530TIP3    H241006   0.980   5.719   4.702  0.7365 -0.7403 -1.4783
 6531TIP3   OH241007   1.280   1.540   3.887 -0.0391 -0.5780 -0.5327
 6531TIP3    H141008   1.200   1.512   3.842  0.1710 -2.0235 -0.0513
 6531TIP3    H241009   1.257   1.542   3.979  1.1218 -3.6508 -0.0619
 6532TIP3   OH241010   3.884   5.232   2.846 -0.3998  0.1946  0.1033
 6532TIP3    H141011   3.831   5.274   2.778  0.7148 -0.1517 -1.0106
 6532TIP3    H241012   3.925   5.304   2.893 -2.0618  0.4875  1.2018
 6533TIP3   OH241013   6.775   6.101   4.005 -0.0283 -0.0903  0.1436
 6533TIP3    H141014   6.749   6.141   4.088  1.1098 -1.2200  1.0825
 6533TIP3    H241015   6.807   6.014   4.030 -0.2266 -0.6803 -1.5556
 6534TIP3   OH241016   3.503   1.776  15.532  0.2498 -0.4870  0.5733
 6534TIP3    H141017   3.546   1.780  15.618 -0.8458 -0.5333  1.1440
 6534TIP3    H241018   3.514   1.864  15.496 -0.9793  0.1503  1.6470
 6535TIP3   OH241019   6.085   4.115  13.767 -0.0546  0.1023 -0.6672
 6535TIP3    H141020   6.146   4.099  13.839  0.0891 -0.8836 -0.9864
 6535TIP3    H241021   6.139   4.149  13.696  0.0886 -0.4874 -0.8491
 6536TIP3   OH241022   1.033   6.496   4.748  0.8969 -0.5352 -0.6293
 6536TIP3    H141023   1.011   6.422   4.804  1.5273  0.4810  1.0253
 6536TIP3    H241024   0.968   6.494   4.678 -0.8721 -0.9837  0.9527
 6537TIP3   OH241025   4.252   2.272  16.884 -0.2786  0.3427  0.7381
 6537TIP3    H141026   4.338   2.242  16.913 -0.4669 -0.0837  0.8625
 6537TIP3    H241027   4.204   2.290  16.965 -0.7819 -0.7824  0.7040
 6538TIP3   OH241028   2.825   2.061   3.735 -0.4417  0.6926  0.0939
 6538TIP3    H141029   2.885   2.042   3.663 -0.2416  1.5204  0.0299
 6538TIP3    H241030   2.874   2.038   3.814 -0.8883 -0.8123 -0.0432
 6539TIP3   OH241031   6.702   6.117   2.365  0.0645  0.2139 -0.4037
 6539TIP3    H141032   6.654   6.049   2.318 -1.2186  0.8853 -0.1100
 6539TIP3    H241033   6.646   6.139   2.439  0.1659  1.9979 -0.8095
 6540TIP3   OH241034   3.049   2.474   3.105 -0.7211 -0.4181 -0.4511
 6540TIP3    H141035   3.020   2.385   3.086 -2.9194  0.1392  0.0239
 6540TIP3    H241036   3.100   2.499   3.029  3.1408 -3.2710  0.8700
 6541TIP3   OH241037   3.323   3.082   2.627  0.4146 -0.3110 -0.2067
 6541TIP3    H141038   3.404   3.045   2.595  1.3294 -0.7090  2.3172
 6541TIP3    H241039   3.276   3.110   2.548  2.8839 -0.2305 -1.7511
 6542TIP3   OH241040   5.964   2.357   1.439 -0.6891  0.0694  0.4962
 6542TIP3    H141041   5.889   2.376   1.382 -1.6448 -0.5181  1.5207
 6542TIP3    H241042   5.978   2.438   1.488 -0.9531  0.0330  0.6335
 6543TIP3   OH241043   6.596   1.837  13.583  0.1470 -0.0781 -0.3483
 6543TIP3    H141044   6.676   1.788  13.562  0.0106 -0.2509 -0.4711
 6543TIP3    H241045   6.590   1.833  13.678  0.7415  0.6655 -0.2709
 6544TIP3   OH241046   2.073   5.762  11.927 -0.1688 -0.1634  0.2972
 6544TIP3    H141047   2.012   5.713  11.872 -1.6193 -1.0806  2.5740
 6544TIP3    H241048   2.018   5.819  11.981  1.1640  0.6628  0.8581
 6545TIP3   OH241049   0.186   0.464   0.846  0.0451  0.6404  0.1775
 6545TIP3    H141050   0.257   0.478   0.783  2.0238 -0.1505  2.1212
 6545TIP3    H241051   0.202   0.528   0.915 -0.4295 -0.3417  1.2292
 6546TIP3   OH241052   3.481   0.157  14.148  0.3480 -0.0440 -0.1934
 6546TIP3    H141053   3.436   0.138  14.066 -0.1347 -1.7774  0.4330
 6546TIP3    H241054   3.422   0.217  14.195  0.0240 -0.0631 -0.5751
 6547TIP3   OH241055   5.862   3.591   4.497 -0.5161  0.3870  0.4384
 6547TIP3    H141056   5.815   3.664   4.536  0.1544  0.6687  0.7458
 6547TIP3    H241057   5.801   3.553   4.433  0.0959  2.9743 -1.8725
 6548TIP3   OH241058   2.040   3.391   0.453 -0.1351 -0.3470  0.4483
 6548TIP3    H141059   2.014   3.483   0.449 -0.7639 -0.5541 -0.6316
 6548TIP3    H241060   2.062   3.376   0.545 -1.4130  0.5143  0.9197
 6549TIP3   OH241061   2.759   2.280  11.281 -0.1358  0.4729  0.2465
 6549TIP3    H141062   2.778   2.194  11.243  1.4991  1.1506 -0.5675
 6549TIP3    H241063   2.742   2.336  11.206  0.2102  1.1823  0.6914
 6550TIP3   OH241064   0.060   4.192  10.783  0.0609  0.2172 -0.6548
 6550TIP3    H141065   0.010   4.238  10.850 -1.7133 -1.0005 -1.0601
 6550TIP3    H241066   0.130   4.252  10.759 -0.4779  1.4953  0.8324
 6551TIP3   OH241067   1.284   0.878  12.871  0.3988  0.0026  0.3076
 6551TIP3    H141068   1.189   0.869  12.856 -0.0422  1.8682  1.6264
 6551TIP3    H241069   1.297   0.971  12.886  1.9642 -0.5802  3.1741
 6552TIP3   OH241070   0.809   3.371  13.209 -0.6016 -0.1565  0.3093
 6552TIP3    H141071   0.782   3.411  13.292 -2.6862  0.4211 -0.5851
 6552TIP3    H241072   0.765   3.423  13.142  1.5849 -0.1614 -1.2446
 6553TIP3   OH241073   0.965   0.076  13.978 -0.6042  0.1876  0.4306
 6553TIP3    H141074   0.919   0.157  14.000 -0.7158  0.6463 -1.3646
 6553TIP3    H241075   1.051   0.086  14.018 -1.1203  0.5090  1.5083
 6554TIP3   OH241076   1.630   2.534   3.907 -0.2257  0.5242  0.3021
 6554TIP3    H141077   1.723   2.551   3.892 -0.1313  1.7379  1.9478
 6554TIP3    H241078   1.619   2.546   4.002 -1.7865 -1.0067  0.3570
 6555TIP3   OH241079   1.599   5.954  13.961 -0.0898  0.2479  0.0552
 6555TIP3    H141080   1.639   5.996  14.037 -0.0256  0.1690  0.0647
 6555TIP3    H241081   1.650   5.987  13.886  0.6759 -0.6619  0.1541
 6556TIP3   OH241082   2.279   2.183   2.963 -0.7578 -0.0248 -0.0036
 6556TIP3    H141083   2.209   2.228   2.916  0.1601 -0.4673 -1.8763
 6556TIP3    H241084   2.272   2.092   2.934 -0.2687 -0.3475  0.8652
 6557TIP3   OH241085   5.603   4.528  11.401 -0.1335 -0.4416 -0.0024
 6557TIP3    H141086   5.567   4.556  11.485  0.0374  2.7917 -0.8860
 6557TIP3    H241087   5.564   4.587  11.337  1.8962 -0.9290 -1.8185
 6558TIP3   OH241088   3.610   1.817  14.806 -0.6579 -0.2523  0.1817
 6558TIP3    H141089   3.682   1.783  14.753 -0.7644 -1.1209  0.5801
 6558TIP3    H241090   3.645   1.817  14.896 -1.9959 -3.3376  0.8436
 6559TIP3   OH241091   5.033   2.461   0.208  0.5146  0.1325  0.0983
 6559TIP3    H141092   5.043   2.538   0.152  0.9517 -0.6419 -0.9143
 6559TIP3    H241093   5.065   2.388   0.155  1.0962 -0.6120  1.4143
 6560TIP3   OH241094   5.868   4.099   1.464 -0.0605 -0.4138 -0.1854
 6560TIP3    H141095   5.855   4.034   1.395  2.7176 -0.5058 -0.7592
 6560TIP3    H241096   5.942   4.152   1.433 -0.1183  0.9238  1.7689
 6561TIP3   OH241097   4.951   6.305  11.968  0.3198  0.1037  0.3233
 6561TIP3    H141098   4.919   6.282  12.055  0.8791  0.5528  0.6547
 6561TIP3    H241099   4.875   6.340  11.922 -0.0257 -0.3319  0.5584
 6562TIP3   OH241100   0.887   1.275   0.312 -0.2608  0.8345  0.2468
 6562TIP3    H141101   0.927   1.238   0.391 -0.4493  2.7903  1.3165
 6562TIP3    H241102   0.960   1.311   0.263 -0.0697 -0.9139 -0.8293
 6563TIP3   OH241103   2.453   2.385  16.474 -0.1286 -0.6309 -0.3516
 6563TIP3    H141104   2.533   2.389  16.421  0.0886  0.0276  0.0145
 6563TIP3    H241105   2.387   2.428  16.421  0.3067  0.8594  0.2723
 6564TIP3   OH241106   1.629   3.501   3.536 -0.1759 -0.0066  0.6013
 6564TIP3    H141107   1.709   3.452   3.517  0.7335  2.0684 -1.4159
 6564TIP3    H241108   1.617   3.559   3.461 -2.2791  1.4352  1.9109
 6565TIP3   OH241109   3.536   0.919  16.448 -0.6829 -0.1072  0.0977
 6565TIP3    H141110   3.597   0.985  16.481 -0.5123 -0.4017  0.3757
 6565TIP3    H241111   3.478   0.901  16.522 -1.7768  0.9429 -0.4878
 6566TIP3   OH241112   0.458   3.498   6.036 -1.0331 -0.5300 -0.2559
 6566TIP3    H141113   0.405   3.423   6.065 -0.0815 -0.6031  1.4182
 6566TIP3    H241114   0.520   3.511   6.107 -2.1599  2.8584  0.2616
 6567TIP3   OH241115   4.600   6.798   0.246 -0.4557 -0.0517  0.3069
 6567TIP3    H141116   4.613   6.892   0.234 -0.5881  0.1548  1.5845
 6567TIP3    H241117   4.683   6.759   0.219 -0.5543  0.3771 -0.6646
 6568TIP3   OH241118   5.073   5.585  12.426 -0.2260  0.3330 -0.1936
 6568TIP3    H141119   5.116   5.499  12.434  0.3506  0.7155  1.0986
 6568TIP3    H241120   5.098   5.632  12.505  0.5233  2.1972 -1.4717
 6569TIP3   OH241121   3.138   1.631   1.786 -0.2760  0.1404  0.9767
 6569TIP3    H141122   3.151   1.537   1.784 -1.2112  0.0077  0.6273
 6569TIP3    H241123   3.064   1.647   1.728 -0.0968  1.0992  0.9788
 6570TIP3   OH241124   6.695   3.863   2.052  0.4325 -0.0772 -0.4421
 6570TIP3    H141125   6.709   3.934   1.989  0.5378  0.5261  0.2423
 6570TIP3    H241126   6.605   3.876   2.083  0.7880  0.3990  0.4414
 6571TIP3   OH241127   3.714   6.327  15.267  0.0441 -0.1506  0.8959
 6571TIP3    H141128   3.662   6.360  15.193  1.5507  1.1020  0.3321
 6571TIP3    H241129   3.692   6.234  15.272 -0.3204 -0.2090 -0.9607
 6572TIP3   OH241130   2.332   4.731  11.981 -0.1583  0.1442 -0.0421
 6572TIP3    H141131   2.346   4.650  12.031 -1.7536 -0.6265 -0.7810
 6572TIP3    H241132   2.240   4.728  11.957  0.0748  1.5642 -1.1960
 6573TIP3   OH241133   5.630   6.620  12.521  0.2357 -0.2045 -0.3568
 6573TIP3    H141134   5.707   6.676  12.526  0.2618 -0.1570 -1.1141
 6573TIP3    H241135   5.557   6.677  12.541  0.4017 -0.2933  0.5685
 6574TIP3   OH241136   2.131   4.767   2.361 -0.6217 -0.8990  0.5137
 6574TIP3    H141137   2.036   4.755   2.372 -0.6361 -2.0214 -0.5516
 6574TIP3    H241138   2.142   4.861   2.349 -1.6349 -0.7794  0.4025
 6575TIP3   OH241139   4.260   0.661  16.918  0.7917 -0.7784  0.8034
 6575TIP3    H141140   4.252   0.577  16.963 -0.8459 -0.1484  1.7927
 6575TIP3    H241141   4.278   0.724  16.988  2.2845 -0.3152  0.0404
 6576TIP3   OH241142   6.324   0.887   1.831 -0.2330  0.2766  0.5499
 6576TIP3    H141143   6.274   0.809   1.805  0.8132 -0.3377  0.3273
 6576TIP3    H241144   6.336   0.935   1.749 -0.3126  0.3483  0.5794
 6577TIP3   OH241145   3.408   2.904   5.272  0.2327  0.0921 -0.4034
 6577TIP3    H141146   3.340   2.882   5.336  1.6083 -2.6895  0.2690
 6577TIP3    H241147   3.466   2.964   5.318  0.3476 -0.6563  0.4684
 6578TIP3   OH241148   1.814   5.755  16.948 -0.4153 -0.0878 -0.6073
 6578TIP3    H141149   1.765   5.675  16.967 -0.4763  0.3020  1.0372
 6578TIP3    H241150   1.894   5.724  16.905 -0.8632 -0.9510 -0.8513
 6579TIP3   OH241151   4.770   3.223   4.752 -0.0798  1.1007  0.5837
 6579TIP3    H141152   4.792   3.137   4.787 -0.9335  0.1674 -1.0175
 6579TIP3    H241153   4.680   3.213   4.719  0.1955  2.2622 -0.6254
 6580TIP3   OH241154   1.037   4.189  16.377 -0.3533  0.5120 -0.0152
 6580TIP3    H141155   1.032   4.095  16.360  0.2045  0.3293  0.7694
 6580TIP3    H241156   0.946   4.217  16.383 -0.5242 -0.0584  0.1251
 6581TIP3   OH241157   5.280   1.881  12.367 -0.1255  0.6059  0.5037
 6581TIP3    H141158   5.329   1.811  12.325 -1.5816  0.2342 -0.6663
 6581TIP3    H241159   5.332   1.905  12.444  1.2501 -0.5636 -0.0299
 6582TIP3   OH241160   6.654   0.138   2.823 -0.2317  0.2706 -0.7074
 6582TIP3    H141161   6.660   0.232   2.839 -0.6010  0.1972 -0.0863
 6582TIP3    H241162   6.567   0.126   2.785 -0.9129 -0.0248  0.8825
 6583TIP3   OH241163   0.066   2.056  14.839  0.4587  0.4880 -0.2048
 6583TIP3    H141164   0.097   1.966  14.849  1.9801  1.1371  1.5794
 6583TIP3    H241165   0.110   2.088  14.760 -0.1014 -0.2977 -0.8582
 6584TIP3   OH241166   4.373   1.529  11.880 -0.0404  0.4735 -0.1651
 6584TIP3    H141167   4.451   1.483  11.909 -2.0978 -1.7301  2.3207
 6584TIP3    H241168   4.382   1.617  11.915  1.3128  0.2649  0.0483
 6585TIP3   OH241169   1.353   3.521   5.343 -0.3497 -0.1457  0.9927
 6585TIP3    H141170   1.330   3.586   5.276  2.5020  0.8902  0.8662
 6585TIP3    H241171   1.383   3.445   5.292 -1.6115 -0.7600  1.1405
 6586TIP3   OH241172   4.452   5.515  14.486 -0.4321 -0.5479 -0.4422
 6586TIP3    H141173   4.506   5.568  14.428  0.5615 -1.3545 -0.2866
 6586TIP3    H241174   4.504   5.506  14.566 -1.6225  0.2366  0.4530
 6587TIP3   OH241175   0.844   2.730  16.759  0.0388  0.1999 -0.0097
 6587TIP3    H141176   0.885   2.644  16.753 -1.2004 -0.5013  1.1722
 6587TIP3    H241177   0.896   2.785  16.700  2.1671 -0.8131  0.8154
 6588TIP3   OH241178   5.701   1.299   5.603  0.6073 -0.4666 -0.1008
 6588TIP3    H141179   5.668   1.389   5.600  0.5650 -0.5042 -1.9317
 6588TIP3    H241180   5.671   1.265   5.688  1.0439  1.3742  0.8450
 6589TIP3   OH241181   2.903   0.034  16.710  0.4756 -0.1437  0.1055
 6589TIP3    H141182   2.845   0.043  16.786 -0.1779 -0.2500 -0.3747
 6589TIP3    H241183   2.943  -0.052  16.720 -0.7166 -0.7798 -0.4217
 6590TIP3   OH241184   5.691   4.545  12.691 -0.5194  0.1466 -0.1663
 6590TIP3    H141185   5.759   4.559  12.625 -0.3342 -1.5440 -0.3780
 6590TIP3    H241186   5.705   4.615  12.755  1.2585 -0.0218 -0.3344
 6591TIP3   OH241187   0.183   6.479  12.879 -0.3259  0.3321  0.1119
 6591TIP3    H141188   0.204   6.498  12.788 -1.3391  1.8117  0.1405
 6591TIP3    H241189   0.268   6.467  12.922  0.1346 -0.9992 -1.1215
 6592TIP3   OH241190   6.187   2.192  11.722  0.6200 -0.1742 -0.0775
 6592TIP3    H141191   6.229   2.247  11.656 -1.9940 -0.0784 -1.8288
 6592TIP3    H241192   6.198   2.103  11.690 -0.6010 -0.1339 -0.6598
 6593TIP3   OH241193   2.310   0.416  12.675  0.5319  0.0531 -0.1666
 6593TIP3    H141194   2.365   0.450  12.604  1.0669  0.7011  0.5477
 6593TIP3    H241195   2.334   0.468  12.751 -2.0536  1.2984 -0.1205
 6594TIP3   OH241196   6.726   1.018  12.449  0.2368 -0.5397  0.2196
 6594TIP3    H141197   6.775   0.967  12.385  0.2646  1.5264 -1.5290
 6594TIP3    H241198   6.634   1.001  12.428  0.2467 -0.2901 -0.0441
 6595TIP3   OH241199   6.413   0.658   5.115 -0.0193  0.4208 -0.3089
 6595TIP3    H141200   6.330   0.625   5.079  0.6942  0.8448 -2.5217
 6595TIP3    H241201   6.386   0.721   5.182 -1.4469 -0.4984  0.0340
 6596TIP3   OH241202   2.203   2.055   5.465 -0.4763  0.9119 -0.0009
 6596TIP3    H141203   2.109   2.060   5.449 -0.4807  0.9431  0.0355
 6596TIP3    H241204   2.230   2.146   5.480 -0.0725  1.2053 -2.1354
 6597TIP3   OH241205   0.517   4.950  14.383 -0.8914  0.3828 -0.3540
 6597TIP3    H141206   0.602   4.934  14.425 -1.0949  0.1458 -0.0303
 6597TIP3    H241207   0.475   4.865  14.379 -0.3147  0.1516 -2.3164
 6598TIP3   OH241208   1.042   2.604   2.605 -0.0556 -0.3867  0.2677
 6598TIP3    H141209   1.086   2.686   2.584  1.1878 -1.2022 -0.3772
 6598TIP3    H241210   1.053   2.550   2.527  0.9835 -1.9374  1.4449
 6599TIP3   OH241211   4.219   4.348   5.123 -0.3905 -0.3532  0.3964
 6599TIP3    H141212   4.272   4.281   5.081  1.4459  0.5771  1.1349
 6599TIP3    H241213   4.271   4.428   5.117 -1.0160  0.2891  2.4466
 6600TIP3   OH241214   2.586   6.624  14.376  0.2471  0.0933 -0.2897
 6600TIP3    H141215   2.508   6.601  14.427  0.6443  0.7291  0.6181
 6600TIP3    H241216   2.557   6.695  14.319  0.0907  0.1573 -0.1317
 6601TIP3   OH241217   0.325   1.611  10.886 -0.1653  0.0772 -0.4367
 6601TIP3    H141218   0.328   1.689  10.941 -2.9665  0.8080 -1.1601
 6601TIP3    H241219   0.259   1.555  10.926  0.2065 -0.9301 -1.1721
 6602TIP3   OH241220   1.782   2.034   3.495 -0.5065 -0.1234 -0.1012
 6602TIP3    H141221   1.764   2.045   3.588 -1.4357  0.5713 -0.3492
 6602TIP3    H241222   1.755   2.116   3.455 -0.7986 -0.6787 -1.0853
 6603TIP3   OH241223   2.583   4.883  11.956  0.0912 -0.2673 -0.5931
 6603TIP3    H141224   2.497   4.848  11.979 -0.0017  0.7652  0.7818
 6603TIP3    H241225   2.567   4.976  11.938  1.0439  0.1833  0.7192
 6604TIP3   OH241226   4.592   2.466   2.331 -0.6661  0.2298 -0.1296
 6604TIP3    H141227   4.510   2.431   2.364 -0.5909  1.3406  1.3130
 6604TIP3    H241228   4.651   2.391   2.329 -0.8460 -0.0114  1.7315
 6605TIP3   OH241229   6.670   5.110   0.062 -0.0927 -0.1432  0.4100
 6605TIP3    H141230   6.648   5.196   0.100  0.0730 -0.6653  1.7649
 6605TIP3    H241231   6.751   5.125   0.014 -0.3760  0.5887  0.1474
 6606TIP3   OH241232   1.468   2.408  12.192  0.6068  0.1383  0.0167
 6606TIP3    H141233   1.455   2.431  12.100 -0.3549 -3.2310 -0.8255
 6606TIP3    H241234   1.527   2.333  12.190 -1.3365 -1.5948  1.8590
 6607TIP3   OH241235   5.576   0.402   4.908 -0.3928  0.2317  0.8537
 6607TIP3    H141236   5.482   0.418   4.903 -0.1984  2.3824  2.6354
 6607TIP3    H241237   5.611   0.477   4.956  2.3766 -0.0508 -0.5026
 6608TIP3   OH241238   2.285   4.086  14.459 -0.6666 -0.4367  0.2502
 6608TIP3    H141239   2.323   4.020  14.401 -0.0926 -0.3434  0.5061
 6608TIP3    H241240   2.247   4.035  14.531  1.5988 -0.4689  1.5356
 6609TIP3   OH241241   5.869   1.048   2.785  0.0549 -0.2939  0.4862
 6609TIP3    H141242   5.924   1.113   2.741  1.5463 -2.1281 -0.4596
 6609TIP3    H241243   5.924   0.971   2.794 -1.4281 -1.2457  2.2414
 6610TIP3   OH241244   0.576   2.435  12.623 -0.7028  0.5626 -0.0051
 6610TIP3    H141245   0.641   2.504  12.638  0.8829 -0.9488  0.4028
 6610TIP3    H241246   0.508   2.478  12.571  1.1810  1.9542 -1.4859
 6611TIP3   OH241247   5.462   4.130  15.219  0.3473  0.1339  0.3945
 6611TIP3    H141248   5.470   4.185  15.297 -0.9515  1.7438 -0.5552
 6611TIP3    H241249   5.548   4.135  15.178 -0.2689  3.3310 -0.8023
 6612TIP3   OH241250   2.564   1.010  16.095  0.4013 -0.0763 -0.0777
 6612TIP3    H141251   2.502   0.988  16.164 -0.3952  0.4302 -0.6160
 6612TIP3    H241252   2.638   1.051  16.141 -0.5931  1.2500  0.4102
 6613TIP3   OH241253   5.567   3.089  16.485 -0.1613 -0.1662 -0.1766
 6613TIP3    H141254   5.575   3.132  16.399  1.1874  0.5217  0.2669
 6613TIP3    H241255   5.624   3.140  16.542 -0.4709 -1.0711  0.9618
 6614TIP3   OH241256   3.407   3.898   6.293 -0.1589 -0.0648 -0.3722
 6614TIP3    H141257   3.342   3.892   6.223 -1.8958 -2.0697  1.2523
 6614TIP3    H241258   3.440   3.988   6.289  1.6986 -0.7023 -5.2393
 6615TIP3   OH241259   5.313   6.094  13.712 -0.4105 -0.2411  0.0711
 6615TIP3    H141260   5.278   6.158  13.773 -0.4267  0.2205 -0.4184
 6615TIP3    H241261   5.365   6.145  13.650  0.8475 -0.8655  0.5641
 6616TIP3   OH241262   3.846   4.879  14.627 -0.2605 -0.2089 -0.1560
 6616TIP3    H141263   3.926   4.856  14.674  0.3306  3.6704  1.1132
 6616TIP3    H241264   3.783   4.811  14.652  1.6699 -1.4780  1.5961
 6617TIP3   OH241265   2.866   5.108  11.404 -0.5293 -0.9981  0.1181
 6617TIP3    H141266   2.894   5.023  11.370 -1.0097 -1.6620  1.3338
 6617TIP3    H241267   2.781   5.092  11.445  1.1153 -0.9044  4.0080
 6618TIP3   OH241268   1.327   2.327  13.296 -0.3488 -0.3850  0.1162
 6618TIP3    H141269   1.232   2.312  13.302 -0.2095 -0.9224  1.3905
 6618TIP3    H241270   1.338   2.384  13.220 -1.6311 -0.8464 -0.4409
 6619TIP3   OH241271   6.411   1.305   4.654  0.0610 -0.3225 -0.2352
 6619TIP3    H141272   6.344   1.303   4.723  1.4602 -1.0449  1.1659
 6619TIP3    H241273   6.426   1.213   4.633 -0.4446 -0.1055 -1.6478
 6620TIP3   OH241274   3.772   0.202  16.585 -0.2933 -0.4381 -0.2001
 6620TIP3    H141275   3.719   0.269  16.629  1.1011 -0.0612  0.9655
 6620TIP3    H241276   3.765   0.224  16.492 -2.0207 -0.3030 -0.0833
 6621TIP3   OH241277   1.697   0.921  14.108  0.2243 -0.1735  0.3610
 6621TIP3    H141278   1.748   0.843  14.128  1.8181  0.9417  0.8994
 6621TIP3    H241279   1.763   0.991  14.100 -1.0027  0.8716 -1.4080
 6622TIP3   OH241280   5.306   1.347   4.822 -0.0772 -0.1488 -0.8120
 6622TIP3    H141281   5.247   1.312   4.888  1.2573 -0.9628 -0.0062
 6622TIP3    H241282   5.347   1.423   4.864  0.7832 -0.6751 -0.6894
 6623TIP3   OH241283   5.768   0.064   3.186 -0.0695 -0.0686  0.6639
 6623TIP3    H141284   5.770   0.107   3.271  2.3054  0.8696  0.2149
 6623TIP3    H241285   5.782  -0.029   3.206  1.3060  0.2471  1.2858
 6624TIP3   OH241286   1.739   4.874  13.800 -0.3269 -0.0906  0.2958
 6624TIP3    H141287   1.763   4.960  13.765  1.4203 -0.4323  0.5397
 6624TIP3    H241288   1.767   4.876  13.891  2.4217 -1.7874 -0.3599
 6625TIP3   OH241289   2.578   6.639  13.176 -0.4358 -0.4019 -0.2022
 6625TIP3    H141290   2.583   6.576  13.247 -0.6901 -0.2448 -0.0451
 6625TIP3    H241291   2.508   6.605  13.119 -0.2999 -0.4750 -0.3270
 6626TIP3   OH241292   0.943   4.147   2.191 -0.8713 -0.1356 -0.1659
 6626TIP3    H141293   0.998   4.126   2.114 -1.7759 -0.6889 -0.6829
 6626TIP3    H241294   0.987   4.102   2.263  0.0435  0.4610 -0.3338
 6627TIP3   OH241295   0.684   0.862  12.047 -0.1646 -0.0729 -0.3077
 6627TIP3    H141296   0.720   0.942  12.009 -1.7463  1.6891  1.6602
 6627TIP3    H241297   0.750   0.834  12.111 -0.3558  0.6787  0.2306
 6628TIP3   OH241298   6.718   2.361  11.175 -0.0869  0.6070 -0.0896
 6628TIP3    H141299   6.806   2.397  11.180 -1.3658  3.9886  1.1188
 6628TIP3    H241300   6.671   2.419  11.115 -1.4020 -1.4090 -1.1036
 6629TIP3   OH241301   0.023   5.104   1.504  0.0767  0.5805  0.1965
 6629TIP3    H141302   0.045   5.180   1.558 -1.8877  2.1869 -1.1001
 6629TIP3    H241303   0.011   5.033   1.566  0.8265  1.6156  1.5814
 6630TIP3   OH241304   0.455   2.762  12.628 -0.2957  0.0218 -0.1889
 6630TIP3    H141305   0.536   2.740  12.674  0.5843  0.5095 -1.4448
 6630TIP3    H241306   0.390   2.699  12.660 -0.6363  2.2063  4.0403
 6631TIP3   OH241307   6.070   2.217  12.117 -0.4466 -0.1919 -0.2987
 6631TIP3    H141308   6.141   2.274  12.085  0.7681 -1.7204 -0.4330
 6631TIP3    H241309   6.041   2.260  12.198  0.2221  0.7917 -0.5557
 6632TIP3   OH241310   3.563   0.516   2.711  0.5298 -0.0886  0.1106
 6632TIP3    H141311   3.573   0.489   2.619 -3.8044 -1.1292 -0.2447
 6632TIP3    H241312   3.585   0.438   2.761 -2.2016 -1.3233 -0.4356
 6633TIP3   OH241313   5.582   4.230  14.420  0.3254  0.2759  0.5985
 6633TIP3    H141314   5.604   4.273  14.338 -1.6820  1.8931  0.8576
 6633TIP3    H241315   5.635   4.275  14.486  1.2432 -0.4061  0.3474
 6634TIP3   OH241316   4.755   5.290  15.565 -0.4153 -0.2424 -0.2684
 6634TIP3    H141317   4.783   5.252  15.482  0.3523  0.7046 -0.4736
 6634TIP3    H241318   4.831   5.280  15.622 -0.7519 -0.4042  0.1567
 6635TIP3   OH241319   0.357   3.312  13.508  0.2336  0.0459  0.5011
 6635TIP3    H141320   0.444   3.311  13.467 -0.3474  2.7873 -0.9930
 6635TIP3    H241321   0.344   3.403  13.535 -2.1014 -0.3486  0.8924
 6636TIP3   OH241322   5.084   5.405  14.578  0.3996  0.0171 -0.1829
 6636TIP3    H141323   5.127   5.472  14.525  0.7127 -0.0543 -0.0200
 6636TIP3    H241324   5.002   5.386  14.532  0.8751 -0.3641 -0.8739
 6637TIP3   OH241325   3.628   5.217  12.840 -0.2660  0.5971  0.4654
 6637TIP3    H141326   3.696   5.284  12.833  0.4218  0.1042  2.0214
 6637TIP3    H241327   3.550   5.265  12.867 -0.0795  0.9225  0.4354
 6638TIP3   OH241328   3.241   0.044  15.051 -0.2738  0.3105 -0.3387
 6638TIP3    H141329   3.197   0.123  15.022 -0.0749  0.5461 -0.0044
 6638TIP3    H241330   3.188  -0.028  15.015 -2.2420  0.5256  1.8305
 6639TIP3   OH241331   6.160   3.193   3.962  0.2489 -0.0436 -0.2042
 6639TIP3    H141332   6.252   3.208   3.941 -0.2637  3.1100 -0.6925
 6639TIP3    H241333   6.161   3.151   4.048  2.1292 -0.1879 -0.2612
 6640TIP3   OH241334   3.153   1.964   2.713 -0.2981  0.0153 -0.1017
 6640TIP3    H141335   3.169   1.894   2.650  1.2269 -0.4739  0.7655
 6640TIP3    H241336   3.235   1.970   2.763 -0.4323  2.3442 -0.0649
 6641TIP3   OH241337   4.524   3.122  15.271 -0.1948 -0.2456  0.3608
 6641TIP3    H141338   4.455   3.161  15.324 -0.0822  1.1524 -0.4761
 6641TIP3    H241339   4.598   3.113  15.332 -0.0280  1.4310  0.4543
 6642TIP3   OH241340   3.261   2.210   5.154 -0.3414 -0.3855  0.1156
 6642TIP3    H141341   3.331   2.176   5.097  0.0059  0.4023  0.0553
 6642TIP3    H241342   3.255   2.146   5.225 -0.2487 -0.9818 -0.4044
 6643TIP3   OH241343   1.329   5.322   3.728 -0.0718 -0.2254 -0.1669
 6643TIP3    H141344   1.255   5.293   3.674 -0.3774 -2.0443  1.1022
 6643TIP3    H241345   1.297   5.400   3.773  0.0012  0.9909 -2.1431
 6644TIP3   OH241346   2.270   1.345  10.104  0.4204 -0.4151  0.0918
 6644TIP3    H141347   2.321   1.278  10.150 -1.1693 -1.9467 -0.2254
 6644TIP3    H241348   2.322   1.366  10.026  1.6962 -0.0627  1.0104
 6645TIP3   OH241349   2.301   1.707   0.430  0.0102 -0.6994  0.4351
 6645TIP3    H141350   2.375   1.702   0.490 -1.3049 -1.8359  2.0762
 6645TIP3    H241351   2.231   1.660   0.475 -1.5377 -0.1898 -1.3120
 6646TIP3   OH241352   3.055   0.636  12.434 -0.6465 -0.3941  0.0385
 6646TIP3    H141353   3.106   0.716  12.422  0.1544 -1.0057 -0.6778
 6646TIP3    H241354   3.120   0.567  12.447 -1.3040 -1.1119 -0.4438
 6647TIP3   OH241355   3.290   0.144  15.326  0.7286 -0.2524 -0.2662
 6647TIP3    H141356   3.304   0.147  15.232  0.0531 -0.3171 -0.3721
 6647TIP3    H241357   3.263   0.233  15.349 -1.2600 -0.7542 -0.4948
 6648TIP3   OH241358   3.912   5.999  13.699  0.0713  0.3647  0.0099
 6648TIP3    H141359   3.858   5.937  13.748 -0.7805 -0.0407 -1.3875
 6648TIP3    H241360   3.958   5.944  13.635  1.3760  0.8463  0.5091
 6649TIP3   OH241361   0.717   1.154   3.334 -0.1097  0.0811  0.0677
 6649TIP3    H141362   0.786   1.090   3.353 -1.2044 -0.9455  0.8155
 6649TIP3    H241363   0.639   1.116   3.375 -0.9736  1.5210 -0.1902
 6650TIP3   OH241364   2.322   4.688  15.463 -0.5194  0.1212  0.5785
 6650TIP3    H141365   2.245   4.734  15.429  0.3837  1.5082  0.3272
 6650TIP3    H241366   2.319   4.703  15.558 -0.0368  1.0429  0.4600
 6651TIP3   OH241367   3.232   0.547   5.374 -0.0728  0.7774 -0.5255
 6651TIP3    H141368   3.161   0.526   5.434  0.0930  0.5835 -0.3976
 6651TIP3    H241369   3.270   0.628   5.410 -0.8446  1.4317 -1.1366
 6652TIP3   OH241370   0.168   1.971  12.932  0.2247  0.4653  0.5142
 6652TIP3    H141371   0.112   1.973  12.855 -0.0962  0.6997  0.7510
 6652TIP3    H241372   0.193   1.879  12.942 -0.6652  0.2462  0.7990
 6653TIP3   OH241373   1.350   3.947  13.185  0.0374 -0.4480 -0.4494
 6653TIP3    H141374   1.381   3.858  13.200 -0.4017 -0.3805  1.0487
 6653TIP3    H241375   1.408   4.001  13.239 -0.5614  0.0264 -0.2778
 6654TIP3   OH241376   3.242   4.717  15.961  0.1219 -0.5287  0.3127
 6654TIP3    H141377   3.225   4.666  16.040  0.6979  0.6113  1.2013
 6654TIP3    H241378   3.325   4.683  15.927 -0.3449 -1.3187 -0.0755
 6655TIP3   OH241379   3.349   1.942  11.397  0.3639 -0.8004  0.3343
 6655TIP3    H141380   3.423   1.998  11.419 -0.5304  0.3020  0.6090
 6655TIP3    H241381   3.274   1.981  11.443 -0.6995 -0.9440 -1.2007
 6656TIP3   OH241382   2.841   6.526  14.105  0.0916 -0.1856 -0.0703
 6656TIP3    H141383   2.873   6.616  14.104 -0.5207  0.0377 -0.5371
 6656TIP3    H241384   2.810   6.511  14.015 -0.4434 -0.6265  0.1819
 6657TIP3   OH241385   6.033   4.535   5.757 -0.1688  0.5402  0.4775
 6657TIP3    H141386   6.014   4.464   5.818 -2.1453  0.2851 -0.3445
 6657TIP3    H241387   6.015   4.615   5.806 -1.3564  0.3458  0.4078
 6658TIP3   OH241388   0.741   6.148  14.615  0.1198  0.9020  0.3899
 6658TIP3    H141389   0.785   6.104  14.542  1.3688  1.4047  0.8066
 6658TIP3    H241390   0.798   6.223  14.635 -0.6465  1.2554  1.3315
 6659TIP3   OH241391   1.570   5.958   0.722  0.4304 -0.6594  0.2328
 6659TIP3    H141392   1.481   5.928   0.703  0.6292 -1.2439  0.2043
 6659TIP3    H241393   1.609   5.886   0.772  1.2215 -0.8651 -0.6456
 6660TIP3   OH241394   5.556   1.372   3.164 -0.0065 -0.3791  0.0582
 6660TIP3    H141395   5.478   1.425   3.148 -0.2620 -0.9734 -0.7210
 6660TIP3    H241396   5.629   1.434   3.163 -0.4985  0.2609  1.3170
 6661TIP3   OH241397   0.826   2.742  11.272 -0.2263 -0.3310 -0.4745
 6661TIP3    H141398   0.819   2.818  11.214  0.3077 -0.6957 -1.0400
 6661TIP3    H241399   0.836   2.667  11.212 -2.4191 -1.0778  0.0114
 6662TIP3   OH241400   2.234   6.481  11.048  0.0222  0.1299 -0.1429
 6662TIP3    H141401   2.193   6.400  11.079  1.8954 -0.0912  1.9295
 6662TIP3    H241402   2.311   6.452  10.999 -1.1082  0.6116 -2.3416
 6663TIP3   OH241403   6.264   6.813  15.262 -0.0548 -0.4956 -0.1294
 6663TIP3    H141404   6.309   6.859  15.332 -1.4592 -0.5610  0.8626
 6663TIP3    H241405   6.218   6.882  15.213  1.3343 -0.3894 -1.3349
 6664TIP3   OH241406   0.820   0.617  12.167 -0.2282  0.0896 -0.2862
 6664TIP3    H141407   0.739   0.579  12.135 -0.3705 -1.2830  1.5079
 6664TIP3    H241408   0.832   0.579  12.254  1.9508  0.8392 -0.1767
 6665TIP3   OH241409   1.674   0.677  14.496  0.1080  0.0991 -0.3325
 6665TIP3    H141410   1.692   0.627  14.576  2.1585 -0.4193 -1.0487
 6665TIP3    H241411   1.613   0.621  14.446  2.0891 -1.6386 -0.9581
 6666TIP3   OH241412   1.970   1.364  13.730  1.2470 -0.0132  0.4143
 6666TIP3    H141413   1.960   1.277  13.693  2.3898 -0.1178  0.3387
 6666TIP3    H241414   2.028   1.353  13.805  0.5087  0.5163  1.0897
 6667TIP3   OH241415   0.408   4.171   3.143  0.1589  0.0847  0.2991
 6667TIP3    H141416   0.488   4.128   3.112  0.4133  0.9887 -0.3465
 6667TIP3    H241417   0.435   4.262   3.160 -0.4285  0.0712  1.3568
 6668TIP3   OH241418   5.261   0.807  16.157  0.4488 -0.3866  0.2074
 6668TIP3    H141419   5.220   0.811  16.244  1.7599 -1.2394  0.8882
 6668TIP3    H241420   5.305   0.891  16.148 -1.5366  0.6389 -0.6251
 6669TIP3   OH241421   1.716   4.149   5.764 -0.2360  0.2606 -0.2212
 6669TIP3    H141422   1.736   4.067   5.808 -0.7419 -0.0198 -0.5032
 6669TIP3    H241423   1.782   4.211   5.796 -0.7953  0.1489  1.1834
 6670TIP3   OH241424   2.674   1.585   4.041 -0.3298 -0.4430 -0.2890
 6670TIP3    H141425   2.676   1.622   3.953 -1.0241  0.1318 -0.0670
 6670TIP3    H241426   2.732   1.509   4.036 -2.4588 -2.0849 -1.9729
 6671TIP3   OH241427   0.652   0.808   3.271 -0.3475 -0.0952 -0.1533
 6671TIP3    H141428   0.623   0.718   3.258 -1.3321  0.2052 -0.1693
 6671TIP3    H241429   0.737   0.801   3.314  0.7476 -1.0632 -2.3207
 6672TIP3   OH241430   3.496   3.470  12.759  0.3419  0.0145 -0.0189
 6672TIP3    H141431   3.561   3.503  12.820 -1.3352  2.6517  0.5124
 6672TIP3    H241432   3.542   3.463  12.675  1.4032  1.5524  0.3979
 6673TIP3   OH241433   5.324   0.846   4.117  0.3605  0.0327  0.1158
 6673TIP3    H141434   5.279   0.848   4.033  0.2654 -0.3431  0.1579
 6673TIP3    H241435   5.355   0.936   4.129  0.1333  0.1540 -0.1875
 6674TIP3   OH241436   5.773   3.792  14.996 -0.4765 -0.5747 -0.6805
 6674TIP3    H141437   5.688   3.799  14.951 -0.2388 -0.9557 -1.2009
 6674TIP3    H241438   5.833   3.760  14.928 -0.2396 -1.7286  0.0574
 6675TIP3   OH241439   0.840   3.805   0.246  0.0656  0.7407  0.4250
 6675TIP3    H141440   0.797   3.757   0.316 -0.3095 -1.4104 -1.1484
 6675TIP3    H241441   0.776   3.870   0.217 -0.3661  0.5888  1.0397
 6676TIP3   OH241442   4.498   5.797  12.884 -0.9338 -0.0666 -0.3528
 6676TIP3    H141443   4.498   5.712  12.929  0.0268 -0.2038 -0.6006
 6676TIP3    H241444   4.474   5.860  12.952  2.0548 -0.0527  0.8193
 6677TIP3   OH241445   2.132   3.834   0.950 -0.6101 -0.0126 -0.5636
 6677TIP3    H141446   2.196   3.840   1.022  0.1171 -1.6086 -1.0371
 6677TIP3    H241447   2.179   3.869   0.875 -0.5053 -0.5985 -0.7747
 6678TIP3   OH241448   0.011   3.204   2.061  0.0228  0.3748  0.1963
 6678TIP3    H141449   0.046   3.125   2.020  0.9566  0.5983  0.5326
 6678TIP3    H241450   0.037   3.275   2.001 -2.4541  0.2670 -1.1081
 6679TIP3   OH241451   6.274   5.922   5.661 -0.4020 -0.1012  0.5581
 6679TIP3    H141452   6.311   5.874   5.587 -0.1535 -0.0416  0.6456
 6679TIP3    H241453   6.328   6.000   5.669 -1.2836  0.5958 -0.0809
 6680TIP3   OH241454   0.171   3.967   0.883  0.0725 -0.5893 -0.4266
 6680TIP3    H141455   0.152   3.938   0.972  0.5615  2.2029  0.6879
 6680TIP3    H241456   0.267   3.960   0.876 -0.0491 -1.8599 -1.1912
 6681TIP3   OH241457   2.179   4.332  16.609  0.3537 -0.2000  0.7790
 6681TIP3    H141458   2.158   4.363  16.697 -1.5763 -1.3837  0.7828
 6681TIP3    H241459   2.254   4.386  16.582 -0.9108  2.3323  1.9517
 6682TIP3   OH241460   1.598   0.267  16.711 -0.0244 -0.1586  0.3216
 6682TIP3    H141461   1.692   0.284  16.717 -0.2343  0.6013  1.6936
 6682TIP3    H241462   1.592   0.171  16.711  0.7411 -0.2199  0.1194
 6683TIP3   OH241463   5.887   0.523   1.364  0.2386 -0.5595  0.3042
 6683TIP3    H141464   5.860   0.614   1.378 -1.2012 -0.8119 -0.6837
 6683TIP3    H241465   5.981   0.523   1.386  0.6775  1.5331 -1.2754
 6684TIP3   OH241466   4.487   6.579   4.696 -0.1933  0.2793  0.0189
 6684TIP3    H141467   4.481   6.486   4.721  1.2917  0.6750  2.1792
 6684TIP3    H241468   4.400   6.601   4.665 -0.3462 -2.0612 -1.4870
 6685TIP3   OH241469   0.408   0.727  13.209 -0.0784 -0.3656 -0.2238
 6685TIP3    H141470   0.344   0.670  13.251 -2.3596  2.0585 -0.1034
 6685TIP3    H241471   0.405   0.701  13.116 -1.1742 -0.4071 -0.1965
 6686TIP3   OH241472   2.684   5.663  11.610 -0.3475 -0.1333 -0.3831
 6686TIP3    H141473   2.679   5.570  11.585 -0.9497  0.1557 -1.4035
 6686TIP3    H241474   2.775   5.687  11.593 -0.5876 -0.1115 -1.7979
 6687TIP3   OH241475   0.040   5.939   3.397 -0.0164  0.7020 -0.1547
 6687TIP3    H141476   0.046   5.869   3.332  0.5390  0.3167  0.3042
 6687TIP3    H241477   0.039   6.020   3.345 -2.3294  0.3429 -0.7837
 6688TIP3   OH241478   5.186   1.697   1.135  0.1765 -0.2608  0.6253
 6688TIP3    H141479   5.123   1.625   1.128  1.5309 -1.7259  2.4393
 6688TIP3    H241480   5.163   1.740   1.217  1.4949 -0.8358  1.3215
 6689TIP3   OH241481   0.425   0.393  16.071 -0.6003  0.0230 -0.3001
 6689TIP3    H141482   0.465   0.453  16.134 -0.7474 -0.6155  0.4258
 6689TIP3    H241483   0.456   0.306  16.098 -1.4118 -0.3481 -0.5421
 6690TIP3   OH241484   3.799   0.322  16.119 -0.4473  0.0833 -0.4549
 6690TIP3    H141485   3.847   0.262  16.062 -0.7766  0.4962 -1.1847
 6690TIP3    H241486   3.721   0.274  16.146  0.8532 -1.0050  1.6324
 6691TIP3   OH241487   5.173   2.127  16.468 -0.2409  0.2325 -0.5457
 6691TIP3    H141488   5.203   2.133  16.378  0.4988 -0.2124 -0.3338
 6691TIP3    H241489   5.110   2.055  16.469  1.3794 -1.2156 -0.2821
 6692TIP3   OH241490   0.671   6.258   1.643 -0.3862 -0.4280 -0.0615
 6692TIP3    H141491   0.587   6.262   1.598 -0.3363 -0.9275 -0.2050
 6692TIP3    H241492   0.732   6.220   1.579  0.3319  1.4035 -0.5074
 6693TIP3   OH241493   0.495   4.740  16.792  0.0393  0.3930 -0.6501
 6693TIP3    H141494   0.536   4.657  16.815  0.8321  0.7481 -0.7605
 6693TIP3    H241495   0.401   4.723  16.800  0.1947 -0.4894 -0.6013
 6694TIP3   OH241496   2.728   2.163  10.525  0.7368  0.0355 -0.1841
 6694TIP3    H141497   2.758   2.077  10.495  1.2949 -0.3655  1.4269
 6694TIP3    H241498   2.806   2.218  10.519  0.2142  0.6472 -1.8691
 6695TIP3   OH241499   4.865   4.162  13.646 -0.1341 -0.3151 -0.2700
 6695TIP3    H141500   4.794   4.198  13.700 -0.3594  2.2818 -2.0723
 6695TIP3    H241501   4.936   4.145  13.708  0.0939  3.7497  0.8982
 6696TIP3   OH241502   2.060   3.845   1.396  0.9382  0.1458 -0.2284
 6696TIP3    H141503   2.082   3.756   1.368  0.2867 -0.5088  1.2173
 6696TIP3    H241504   1.969   3.839   1.424  0.8267  1.3326 -0.2907
 6697TIP3   OH241505   6.404   4.887  15.828  0.4993 -0.1540 -0.1910
 6697TIP3    H141506   6.347   4.854  15.898  0.0146 -0.1576 -0.5841
 6697TIP3    H241507   6.459   4.812  15.806  0.1961 -0.3522 -0.2763
 6698TIP3   OH241508   1.229   2.600  15.875  0.4287  0.6823  0.2866
 6698TIP3    H141509   1.271   2.532  15.823  0.1707  0.1978  0.7022
 6698TIP3    H241510   1.277   2.680  15.853  2.2573 -0.0076  1.4858
 6699TIP3   OH241511   2.668   3.175  11.163 -0.3434 -0.5173 -0.1240
 6699TIP3    H141512   2.732   3.238  11.196 -0.3850 -0.5701  0.0582
 6699TIP3    H241513   2.683   3.172  11.069 -0.3107 -0.2676 -0.1268
 6700TIP3   OH241514   6.489   6.572   1.463  0.2328  0.2030 -0.4609
 6700TIP3    H141515   6.404   6.549   1.425 -0.3620  0.8520  0.4346
 6700TIP3    H241516   6.490   6.668   1.464  0.3867  0.2070  0.7850
 6701TIP3   OH241517   1.141   4.606   4.512 -0.3818  0.3636  0.3090
 6701TIP3    H141518   1.151   4.617   4.606  0.5374 -2.7443  0.6975
 6701TIP3    H241519   1.228   4.624   4.476  0.6144 -2.8295  0.7382
 6702TIP3   OH241520   2.573   2.646  14.767  0.3740  0.3679 -0.3008
 6702TIP3    H141521   2.599   2.658  14.676  0.5646  0.1251 -0.2763
 6702TIP3    H241522   2.597   2.728  14.810  1.7528 -0.1148 -0.1192
 6703TIP3   OH241523   1.299   6.256   2.371  0.2278 -0.1350 -0.5381
 6703TIP3    H141524   1.309   6.239   2.277  0.9072  0.1008 -0.5198
 6703TIP3    H241525   1.211   6.226   2.392 -0.1452  0.3470 -1.3686
 6704TIP3   OH241526   1.367   4.166   3.336 -0.1252 -0.1635 -0.0021
 6704TIP3    H141527   1.365   4.218   3.416 -0.3590  0.3709 -0.3464
 6704TIP3    H241528   1.379   4.076   3.366 -1.3801 -0.1248  0.7194
 6705TIP3   OH241529   1.701   0.249   1.228 -0.4266 -0.0624  0.5714
 6705TIP3    H141530   1.622   0.297   1.251 -0.9261 -0.9345  0.6811
 6705TIP3    H241531   1.761   0.317   1.195 -1.6621  0.4436 -0.7417
 6706TIP3   OH241532   0.714   2.105  12.060  0.7388 -0.0020 -0.4377
 6706TIP3    H141533   0.629   2.094  12.103  0.9773  0.6831  0.2559
 6706TIP3    H241534   0.761   2.024  12.079 -0.1360 -0.8366 -1.7534
 6707TIP3   OH241535   6.755   3.427  11.934 -0.8140 -0.1783  0.2833
 6707TIP3    H141536   6.838   3.428  11.886 -1.2001 -0.5543 -0.4084
 6707TIP3    H241537   6.780   3.411  12.025 -0.2115 -2.0186 -0.1514
 6708TIP3   OH241538   2.679   6.540  15.495 -0.1281 -0.3911 -0.8388
 6708TIP3    H141539   2.584   6.555  15.498 -0.4235 -2.1039  1.8708
 6708TIP3    H241540   2.689   6.462  15.440 -0.1494  0.2340 -1.7695
 6709TIP3   OH241541   4.652   2.535   0.896  0.6101  0.2543  0.5628
 6709TIP3    H141542   4.706   2.595   0.845  1.7270 -0.6764  0.6029
 6709TIP3    H241543   4.638   2.580   0.980 -0.8792  1.6038 -0.3568
 6710TIP3   OH241544   6.054   0.995   0.284  0.0348 -0.0712 -0.0479
 6710TIP3    H141545   5.981   0.987   0.344 -1.5246  2.3953 -1.4327
 6710TIP3    H241546   6.109   1.065   0.321  0.3558 -0.2094 -0.2550
 6711TIP3   OH241547   6.114   1.107   2.967 -0.5864 -0.4745 -0.0658
 6711TIP3    H141548   6.091   1.108   3.060 -3.4251 -1.7049 -0.6308
 6711TIP3    H241549   6.044   1.157   2.924  0.1386 -0.7304 -1.6292
 6712TIP3   OH241550   4.612   1.016  15.978  0.4596  0.2086 -0.0916
 6712TIP3    H141551   4.660   0.935  15.958  0.2139 -0.0886  0.4972
 6712TIP3    H241552   4.553   1.028  15.904  0.1329 -0.4310  0.0615
 6713TIP3   OH241553   2.617   0.007  10.365  0.0590  0.5975 -0.0333
 6713TIP3    H141554   2.701   0.010  10.319 -0.6912  0.0638 -1.4884
 6713TIP3    H241555   2.625   0.074  10.433  1.7038  0.4635 -0.0607
 6714TIP3   OH241556   6.546   5.243  15.204 -0.0048 -0.3874 -0.1618
 6714TIP3    H141557   6.459   5.248  15.165 -0.3526  1.3860  0.6933
 6714TIP3    H241558   6.606   5.236  15.130 -0.6772  2.3008 -1.0969
 6715TIP3   OH241559   3.493   3.534   5.506  0.2748 -0.0261 -0.2460
 6715TIP3    H141560   3.429   3.464   5.522  0.2155 -0.3834 -1.8286
 6715TIP3    H241561   3.440   3.612   5.490  0.3413  0.4140  1.5263
 6716TIP3   OH241562   2.536   0.598  16.980  0.1614  0.4207 -0.0428
 6716TIP3    H141563   2.555   0.529  16.916  0.2217  0.5558 -0.1717
 6716TIP3    H241564   2.520   0.676  16.927 -0.6070  0.3459  0.0711
 6717TIP3   OH241565   6.392   5.236  11.373 -0.0870  0.5718  0.0913
 6717TIP3    H141566   6.469   5.180  11.368  0.7748  1.3864  2.5906
 6717TIP3    H241567   6.319   5.179  11.348  0.8009 -1.5992  2.0829
 6718TIP3   OH241568   3.673   6.223  15.836 -0.1817  0.3575  0.4488
 6718TIP3    H141569   3.681   6.262  15.749  1.1076 -1.2093 -0.1910
 6718TIP3    H241570   3.582   6.195  15.842 -0.3911  0.8905 -0.2123
 6719TIP3   OH241571   0.178   1.429   0.383  0.5353  0.5067  0.0006
 6719TIP3    H141572   0.225   1.454   0.304 -1.3260 -0.7618 -1.6216
 6719TIP3    H241573   0.190   1.334   0.388 -2.0814  0.0467 -0.7667
 6720TIP3   OH241574   3.609   6.812  16.822 -0.1334  0.9368 -0.2013
 6720TIP3    H141575   3.698   6.833  16.852 -0.0840 -0.8265  1.0322
 6720TIP3    H241576   3.558   6.891  16.840  0.6381  1.0790  1.5388
 6721TIP3   OH241577   2.206   2.960  16.423  0.4486 -0.1239  0.3783
 6721TIP3    H141578   2.171   3.040  16.463  0.3346  0.1180 -0.1941
 6721TIP3    H241579   2.130   2.918  16.384  0.7923  0.4579 -0.9632
 6722TIP3   OH241580   5.103   4.881  15.023  0.0850  0.4274 -0.2016
 6722TIP3    H141581   5.034   4.940  15.053  0.7323  0.8076  0.5944
 6722TIP3    H241582   5.148   4.930  14.954  1.6959  1.6551  1.5870
 6723TIP3   OH241583   1.140   4.260   5.776 -0.8319  0.0539  0.1659
 6723TIP3    H141584   1.084   4.316   5.723  0.4944  1.7999  0.5184
 6723TIP3    H241585   1.181   4.201   5.713 -0.2396  1.2518 -0.6010
 6724TIP3   OH241586   2.078   2.309  13.617  0.5185  0.1459  0.6297
 6724TIP3    H141587   2.138   2.378  13.588  0.3525  0.4611  1.0302
 6724TIP3    H241588   1.993   2.353  13.623  0.6498  0.2259  2.1130
 6725TIP3   OH241589   5.126   3.823  15.264  0.3368  0.0839 -0.2390
 6725TIP3    H141590   5.192   3.769  15.221  1.6983  0.1575  1.6430
 6725TIP3    H241591   5.168   3.908  15.277 -0.3756  0.3648  0.3422
 6726TIP3   OH241592   1.099   3.819   4.196 -0.2745  0.2270 -0.5510
 6726TIP3    H141593   1.056   3.876   4.131  0.0287  1.1421  0.0439
 6726TIP3    H241594   1.158   3.876   4.244  3.9493 -1.4308 -3.1897
 6727TIP3   OH241595   5.101   0.386   0.704 -0.4018  0.2836 -0.3420
 6727TIP3    H141596   5.183   0.359   0.662  0.2478  0.5681  0.7142
 6727TIP3    H241597   5.117   0.476   0.733 -0.8455  0.1064  0.4862
 6728TIP3   OH241598   3.205   4.117   1.208  0.7812  0.1073  0.0287
 6728TIP3    H141599   3.269   4.070   1.155 -0.4147 -0.9361 -0.5255
 6728TIP3    H241600   3.187   4.197   1.158 -0.7437 -1.1181 -1.4792
 6729TIP3   OH241601   0.789   0.406   3.395 -0.1792 -0.1473 -0.2989
 6729TIP3    H141602   0.738   0.342   3.443 -0.0298  0.1060  0.2056
 6729TIP3    H241603   0.870   0.360   3.372 -0.8668 -0.7293 -1.6085
 6730TIP3   OH241604   4.460   1.618   0.458  0.3045 -0.5268 -0.0102
 6730TIP3    H141605   4.402   1.644   0.387  1.2671 -0.9255 -0.9756
 6730TIP3    H241606   4.489   1.701   0.496  0.2569 -0.2853 -0.4869
 6731TIP3   OH241607   1.871   4.432   1.271  0.2340  0.6729  0.3270
 6731TIP3    H141608   1.915   4.374   1.333  0.9132 -0.8904 -1.4937
 6731TIP3    H241609   1.874   4.518   1.312  1.3751 -0.1302  2.0672
 6732TIP3   OH241610   6.648   2.257   4.341 -0.0899  0.5175  0.6136
 6732TIP3    H141611   6.607   2.192   4.398 -2.1788 -0.1604 -1.5090
 6732TIP3    H241612   6.702   2.206   4.281  1.0333  1.0995  1.1076
 6733TIP3   OH241613   6.744   3.494   0.578  0.0429  0.2995  0.8747
 6733TIP3    H141614   6.831   3.535   0.585 -0.0332  0.3111  2.1603
 6733TIP3    H241615   6.706   3.532   0.500  1.4231 -0.1611 -0.0682
 6734TIP3   OH241616   5.482   5.320  16.175  0.7683 -0.5851  0.0827
 6734TIP3    H141617   5.520   5.300  16.090  0.6264  0.3398 -0.2134
 6734TIP3    H241618   5.389   5.300  16.165  0.5549  0.5355 -0.3382
 6735TIP3   OH241619   1.339   3.604  11.403 -0.6440 -0.2476  0.1142
 6735TIP3    H141620   1.307   3.550  11.475 -1.3738 -0.7653 -0.5872
 6735TIP3    H241621   1.260   3.632  11.357 -0.2012  0.3291 -0.3089
 6736TIP3   OH241622   0.761   4.701  11.533  0.3638 -0.2582 -0.4700
 6736TIP3    H141623   0.684   4.658  11.571  0.4654  0.8724  1.1114
 6736TIP3    H241624   0.833   4.640  11.547 -0.1433 -1.1689 -1.6457
 6737TIP3   OH241625   0.683   2.571   3.330  0.4737  0.0641  0.0708
 6737TIP3    H141626   0.778   2.566   3.334  0.6955  0.5347 -2.5077
 6737TIP3    H241627   0.655   2.485   3.301  0.3532  0.5248 -1.2670
 6738TIP3   OH241628   4.900   3.176  12.370  0.3552 -0.4362 -0.0462
 6738TIP3    H141629   4.827   3.146  12.316  1.3680 -2.0743 -0.5646
 6738TIP3    H241630   4.976   3.130  12.336  1.5032  0.5968  1.0226
 6739TIP3   OH241631   5.266   4.857   3.432  0.6388 -0.0524 -0.2292
 6739TIP3    H141632   5.207   4.871   3.358  1.0896  0.1951 -0.5456
 6739TIP3    H241633   5.315   4.778   3.409 -0.2915 -0.8772  0.5126
 6740TIP3   OH241634   2.899   5.855   2.871 -0.3182 -0.0909 -0.5410
 6740TIP3    H141635   2.865   5.770   2.843 -0.6236  0.3125 -1.4439
 6740TIP3    H241636   2.974   5.871   2.813 -0.9194  0.7334 -1.1076
 6741TIP3   OH241637   0.179   1.112   0.327 -0.2685  0.1536 -0.7842
 6741TIP3    H141638   0.116   1.135   0.259 -1.4973 -0.4516  0.1160
 6741TIP3    H241639   0.253   1.074   0.279 -0.9098  0.1581 -1.8136
 6742TIP3   OH241640   6.297   5.502  14.785  0.1631 -0.1758  0.4881
 6742TIP3    H141641   6.267   5.458  14.706  0.1630  0.1494  0.3026
 6742TIP3    H241642   6.226   5.562  14.807  0.9518  1.1434 -0.3850
 6743TIP3   OH241643   2.387   5.814   3.302 -0.4330  0.1593  0.3351
 6743TIP3    H141644   2.481   5.821   3.317 -0.6053  2.6912  0.6359
 6743TIP3    H241645   2.366   5.889   3.246 -2.5257  0.7909  1.8386
 6744TIP3   OH241646   4.985   4.877   2.406 -0.3025 -0.6841  0.2831
 6744TIP3    H141647   4.958   4.808   2.345 -1.6331 -0.3383  0.4503
 6744TIP3    H241648   4.911   4.886   2.466  0.2008  0.3123  0.7783
 6745TIP3   OH241649   4.573   2.128   4.632 -0.1274  0.5211 -0.1721
 6745TIP3    H141650   4.496   2.134   4.689 -1.6066 -0.5624 -1.9556
 6745TIP3    H241651   4.607   2.217   4.628 -0.5803  0.8142  1.5454
 6746TIP3   OH241652   1.172   5.478  14.193  0.2680 -0.0500 -0.0232
 6746TIP3    H141653   1.255   5.469  14.146  0.2682  0.2856 -0.0884
 6746TIP3    H241654   1.118   5.405  14.160  1.1893 -1.4713  1.4401
 6747TIP3   OH241655   5.780   3.077  11.894  0.0323  0.2509  0.5595
 6747TIP3    H141656   5.762   3.005  11.954  1.4030 -1.0515 -0.5045
 6747TIP3    H241657   5.703   3.080  11.836  0.7031 -1.6204 -0.5266
 6748TIP3   OH241658   3.655   0.926   5.264 -0.5909 -0.2933 -0.4766
 6748TIP3    H141659   3.642   0.836   5.233  2.3537 -0.6617 -0.9001
 6748TIP3    H241660   3.742   0.950   5.231 -0.1524  1.7384  1.9146
 6749TIP3   OH241661   2.686   1.503   1.660  0.4882  0.0952 -0.1061
 6749TIP3    H141662   2.606   1.478   1.704 -0.7296  1.3373 -1.4882
 6749TIP3    H241663   2.749   1.517   1.730 -0.9454  0.5852  1.1306
 6750TIP3   OH241664   6.169   6.677  11.694 -0.4530 -0.2466 -0.5704
 6750TIP3    H141665   6.163   6.727  11.613  1.2879  0.2183 -0.4477
 6750TIP3    H241666   6.232   6.724  11.747 -0.0925 -1.6114  0.2672
 6751TIP3   OH241667   2.587   5.551   3.797 -0.0570  0.5319 -0.3641
 6751TIP3    H141668   2.545   5.636   3.812 -0.5241  0.1274  0.7627
 6751TIP3    H241669   2.669   5.556   3.846 -0.1285  0.3044 -0.2197
 6752TIP3   OH241670   5.416   3.055   1.072  0.8141  0.1073 -0.7944
 6752TIP3    H141671   5.488   3.083   1.017  0.8305 -0.1393 -0.8980
 6752TIP3    H241672   5.388   2.971   1.036  1.0967 -0.2568 -0.1801
 6753TIP3   OH241673   3.261   0.085  16.075  0.0604  0.1037 -0.6161
 6753TIP3    H141674   3.192   0.025  16.047 -0.1863 -1.1014  2.1492
 6753TIP3    H241675   3.305   0.111  15.995 -1.4186 -1.8489 -2.1685
 6754TIP3   OH241676   0.884   3.411  13.767  0.5971  0.1932  0.4695
 6754TIP3    H141677   0.867   3.370  13.682 -1.4234  1.0112  0.4378
 6754TIP3    H241678   0.847   3.499  13.759 -0.9582 -0.1871  2.6518
 6755TIP3   OH241679   4.656   5.455   2.470 -0.0685  0.3519 -0.4731
 6755TIP3    H141680   4.681   5.415   2.553 -0.2929 -0.4295 -0.7702
 6755TIP3    H241681   4.729   5.436   2.411 -0.4008 -0.0692 -0.7542
 6756TIP3   OH241682   0.799   5.186  15.757  0.6960 -0.3297  0.2964
 6756TIP3    H141683   0.869   5.180  15.692  1.7908 -0.4796  1.4351
 6756TIP3    H241684   0.774   5.279  15.756  0.3991 -0.4108 -0.6179
 6757TIP3   OH241685   3.065   2.857   1.435  0.6464 -0.6465 -0.0762
 6757TIP3    H141686   3.043   2.914   1.362 -2.5588 -1.0113  0.4592
 6757TIP3    H241687   3.075   2.770   1.396  0.1227 -0.6322 -0.2544
 6758TIP3   OH241688   6.101   3.095  15.864  0.2401  0.2650 -0.2288
 6758TIP3    H141689   6.195   3.094  15.845  0.3334 -2.2519  0.0553
 6758TIP3    H241690   6.080   3.005  15.890 -1.9776  1.0935  1.1614
 6759TIP3   OH241691   6.744   5.427   2.443  0.1893 -0.1380 -0.3870
 6759TIP3    H141692   6.734   5.519   2.419 -1.2016  0.0514  0.7699
 6759TIP3    H241693   6.659   5.403   2.482  1.3953 -1.1091  1.8625
 6760TIP3   OH241694   6.702   6.045   2.810  0.1896 -0.3613  0.1444
 6760TIP3    H141695   6.752   6.018   2.888  1.6194  2.9651  0.5421
 6760TIP3    H241696   6.736   5.990   2.740  0.2008 -2.1644  1.4952
 6761TIP3   OH241697   1.654   6.389   6.205 -0.0201  0.2536 -0.2222
 6761TIP3    H141698   1.724   6.340   6.162 -0.3624 -2.3412  1.9025
 6761TIP3    H241699   1.618   6.327   6.269 -4.1061  1.5213 -1.0173
 6762TIP3   OH241700   1.566   6.344   5.735 -0.6525  0.5481 -0.2431
 6762TIP3    H141701   1.560   6.313   5.645 -1.0532  1.0053 -0.3805
 6762TIP3    H241702   1.643   6.300   5.771  1.1211  2.2989 -1.6041
 6763TIP3   OH241703   1.934   0.860   4.498  0.0213  0.3244  0.6520
 6763TIP3    H141704   1.975   0.945   4.483  0.3613  0.1340  0.4983
 6763TIP3    H241705   1.939   0.815   4.413 -0.6052  0.3436  0.6036
 6764TIP3   OH241706   5.359   1.791   2.378  0.3835  0.0285 -0.1606
 6764TIP3    H141707   5.370   1.814   2.286 -1.0627 -1.5162 -0.7684
 6764TIP3    H241708   5.413   1.713   2.389  0.7907  0.3815  0.3997
 6765TIP3   OH241709   1.487   2.346  12.548 -0.7350 -0.0786  0.0307
 6765TIP3    H141710   1.417   2.393  12.504 -0.9846 -0.3918  0.0843
 6765TIP3    H241711   1.488   2.260  12.505 -0.3174 -0.0410 -0.0363
 6766TIP3   OH241712   0.066   2.586  12.239 -0.0046 -0.2950 -0.3894
 6766TIP3    H141713   0.094   2.669  12.279  0.7132 -1.2746  1.2400
 6766TIP3    H241714  -0.024   2.602  12.212 -0.6048  0.4225  1.7992
 6767TIP3   OH241715   1.351   2.359   1.122  0.2881  0.3828 -0.2659
 6767TIP3    H141716   1.282   2.406   1.168  1.3523  1.6956  0.0306
 6767TIP3    H241717   1.418   2.343   1.189  0.5939 -0.2509 -0.7092
 6768TIP3   OH241718   4.506   2.291  15.279 -0.1663  0.0270 -0.0413
 6768TIP3    H141719   4.518   2.237  15.201 -0.7887 -0.3786  0.1263
 6768TIP3    H241720   4.519   2.381  15.249 -0.9705 -0.0775 -0.7504
 6769TIP3   OH241721   2.715   1.799   0.520  0.8983 -0.1794  0.4486
 6769TIP3    H141722   2.730   1.745   0.442 -1.8919 -1.1628  0.4850
 6769TIP3    H241723   2.687   1.737   0.587  3.0838  0.6786  2.2580
 6770TIP3   OH241724   2.273   4.452   0.756 -0.1389 -0.3986 -0.0954
 6770TIP3    H141725   2.213   4.526   0.747 -1.0168 -1.1159 -0.2481
 6770TIP3    H241726   2.323   4.471   0.836  0.1045  0.6596 -0.4758
 6771TIP3   OH241727   5.480   1.329   0.240  0.1384  0.4604 -0.1714
 6771TIP3    H141728   5.567   1.362   0.219  0.3594 -0.1066 -0.1555
 6771TIP3    H241729   5.439   1.313   0.156 -0.4011  1.8589 -0.2037
 6772TIP3   OH241730   2.164   3.890   2.172 -0.2765  0.6072  0.1661
 6772TIP3    H141731   2.241   3.832   2.176 -1.2803 -0.7028  1.9465
 6772TIP3    H241732   2.114   3.858   2.097 -0.4739 -0.4315  0.7123
 6773TIP3   OH241733   0.853   4.321   4.132  0.0826 -0.9764  0.4647
 6773TIP3    H141734   0.937   4.277   4.140  0.5417 -0.0762  0.6535
 6773TIP3    H241735   0.870   4.397   4.078 -0.3325 -0.0801  1.5622
 6774TIP3   OH241736   1.996   5.079  13.714  0.2705 -0.3891  0.1211
 6774TIP3    H141737   2.080   5.125  13.714  0.5666 -0.5371  4.2313
 6774TIP3    H241738   2.015   4.995  13.757 -2.1595  0.2257  2.6918
 6775TIP3   OH241739   0.012   5.359   1.024  0.1735  0.6045 -0.5215
 6775TIP3    H141740  -0.022   5.297   0.960  0.5082 -0.1754  0.0475
 6775TIP3    H241741   0.107   5.354   1.015  0.2262  0.3498  0.1662
 6776TIP3   OH241742   4.520   5.205   3.158 -0.0993  0.7819 -0.2092
 6776TIP3    H141743   4.615   5.211   3.162 -0.0131  0.1854 -1.1178
 6776TIP3    H241744   4.492   5.290   3.121  0.0837  0.9243 -0.0195
 6777TIP3   OH241745   2.565   5.485   2.574 -0.2403 -0.0046  0.2564
 6777TIP3    H141746   2.600   5.396   2.560  0.2696  0.0461  1.1271
 6777TIP3    H241747   2.482   5.486   2.526 -0.2011 -0.9232  0.1503
 6778TIP3   OH241748   4.741   1.768  12.768  0.3899 -0.1949 -0.5185
 6778TIP3    H141749   4.820   1.815  12.741  0.7116  0.4566  1.4260
 6778TIP3    H241750   4.770   1.678  12.782  1.1043  0.2870  1.3454
 6779TIP3   OH241751   4.320   1.421   0.592  0.2701  0.1146 -0.1236
 6779TIP3    H141752   4.365   1.499   0.560  0.9382  0.1149  0.7911
 6779TIP3    H241753   4.353   1.409   0.681  0.9343 -1.7854 -0.5924
 6780TIP3   OH241754   3.137   5.720  14.197 -0.5410  0.3754  0.4084
 6780TIP3    H141755   3.144   5.779  14.122  1.4004  1.1420  1.1233
 6780TIP3    H241756   3.048   5.732  14.230 -0.2819  2.7577  0.3711
 6781TIP3   OH241757   4.231   3.913   2.416  0.0841 -0.2394  0.5861
 6781TIP3    H141758   4.154   3.952   2.375 -0.7773 -0.8005  1.6498
 6781TIP3    H241759   4.241   3.828   2.372  2.2038  1.1760 -2.0297
 6782TIP3   OH241760   5.532   3.719  13.423  0.1417 -0.1440 -0.2951
 6782TIP3    H141761   5.521   3.814  13.428 -0.6023 -0.2442  0.3864
 6782TIP3    H241762   5.522   3.698  13.330  1.0192  0.5103 -0.5478
 6783TIP3   OH241763   3.928   2.659  16.877 -0.4889  0.1382  0.1256
 6783TIP3    H141764   3.986   2.688  16.948 -0.9664 -0.0339  0.5878
 6783TIP3    H241765   3.841   2.655  16.917 -0.4882 -1.6640  0.0100
 6784TIP3   OH241766   6.117   5.652   4.195 -0.0700 -0.0700  0.1939
 6784TIP3    H141767   6.161   5.596   4.132  0.4344 -0.4327  0.8541
 6784TIP3    H241768   6.062   5.710   4.142  0.1408 -0.5422 -0.5509
 6785TIP3   OH241769   1.936   5.758  15.353 -0.2821  0.0677  0.2088
 6785TIP3    H141770   2.031   5.770  15.356  0.0436 -0.7673 -2.8466
 6785TIP3    H241771   1.901   5.829  15.407  2.0478 -0.5872  2.8205
 6786TIP3   OH241772   4.424   2.757   4.460 -0.3656 -0.6466  0.3064
 6786TIP3    H141773   4.352   2.696   4.445  0.6488 -1.5594 -1.0582
 6786TIP3    H241774   4.381   2.836   4.493 -2.2281 -0.4657 -2.2526
 6787TIP3   OH241775   5.788   0.481   3.540  0.0749  0.1093  0.0200
 6787TIP3    H141776   5.806   0.389   3.522 -0.4206 -0.3302  1.5917
 6787TIP3    H241777   5.738   0.480   3.622 -0.5514  1.7352 -0.3070
 6788TIP3   OH241778   0.638   1.511  14.897  0.1970  0.5671  0.1639
 6788TIP3    H141779   0.653   1.443  14.962 -1.9318 -0.0962  0.0433
 6788TIP3    H241780   0.624   1.590  14.948 -0.2822  0.2895  0.4757
 6789TIP3   OH241781   6.406   3.390  16.288  0.3530 -0.1056  0.2887
 6789TIP3    H141782   6.479   3.353  16.239 -0.7379 -0.5707 -1.0642
 6789TIP3    H241783   6.365   3.452  16.227  0.1025  0.7649  1.3106
 6790TIP3   OH241784   5.486   6.030   2.099 -0.0145  0.4240  0.2966
 6790TIP3    H141785   5.431   6.108   2.094 -2.5145 -1.1679  0.9647
 6790TIP3    H241786   5.472   5.996   2.188  0.5215 -1.1010 -0.1605
 6791TIP3   OH241787   5.675   1.007  14.998  0.6052  0.0456  0.0894
 6791TIP3    H141788   5.608   0.942  14.976 -0.5105  0.8321  1.0696
 6791TIP3    H241789   5.739   1.000  14.927 -0.0301 -1.3671 -0.3863
 6792TIP3   OH241790   2.531   3.936  15.451  0.3291  0.6159 -0.1739
 6792TIP3    H141791   2.576   3.874  15.509 -1.9425 -1.2435 -0.2526
 6792TIP3    H241792   2.577   3.928  15.368  0.5353 -0.4341  0.0197
 6793TIP3   OH241793   5.525   2.862  14.096 -0.5425 -0.6876  0.0228
 6793TIP3    H141794   5.520   2.848  14.002 -0.9166  1.0665 -0.2605
 6793TIP3    H241795   5.443   2.908  14.118 -0.0831 -0.3181  1.0529
 6794TIP3   OH241796   2.734   2.157  13.071  0.1467 -0.3952  0.2729
 6794TIP3    H141797   2.769   2.087  13.126  2.5113  1.5552  1.4307
 6794TIP3    H241798   2.707   2.225  13.132 -0.0190  0.6270 -0.8845
 6795TIP3   OH241799   0.842   3.400   3.875  0.5348 -0.3912 -0.7907
 6795TIP3    H141800   0.762   3.432   3.915  1.7153  2.4443 -0.4751
 6795TIP3    H241801   0.813   3.348   3.800 -1.5754 -1.1751  0.5000
 6796TIP3   OH241802   0.666   2.294  15.430  1.0772 -0.8765 -0.4786
 6796TIP3    H141803   0.715   2.314  15.351 -0.3732 -1.1441 -1.4906
 6796TIP3    H241804   0.582   2.261  15.399 -0.1461  0.5027  1.1539
 6797TIP3   OH241805   0.573   3.991   1.564 -0.1254 -0.2971 -0.4083
 6797TIP3    H141806   0.558   3.953   1.477 -1.0135  0.6892 -0.7073
 6797TIP3    H241807   0.662   4.027   1.559 -0.9438  1.7490 -1.7239
 6798TIP3   OH241808   2.472   5.115  16.808 -0.2485 -0.0962  0.1061
 6798TIP3    H141809   2.449   5.058  16.882 -0.0932 -0.0201  0.2134
 6798TIP3    H241810   2.477   5.202  16.847  1.8035 -0.3124  0.4177
 6799TIP3   OH241811   3.809   2.782   5.094 -0.4098 -0.0440 -0.1068
 6799TIP3    H141812   3.878   2.770   5.159  0.6329 -1.7976 -1.4436
 6799TIP3    H241813   3.820   2.872   5.064  1.3068 -0.2568 -0.2500
 6800TIP3   OH241814   2.176   4.190  15.813  0.2701  0.3950 -0.1305
 6800TIP3    H141815   2.158   4.282  15.794 -0.4262  0.0113 -1.4622
 6800TIP3    H241816   2.271   4.187  15.824  0.4212  1.1275 -1.0330
 6801TIP3   OH241817   0.256   5.980  13.174 -0.6086 -0.3077  0.3296
 6801TIP3    H141818   0.348   5.958  13.160 -0.9265 -1.0644 -0.7018
 6801TIP3    H241819   0.251   6.074  13.155 -0.3235 -0.5682 -1.1403
 6802TIP3   OH241820   1.599   5.379   4.281 -0.1455  0.0347  0.0856
 6802TIP3    H141821   1.680   5.329   4.290  1.2188  2.2741  1.3976
 6802TIP3    H241822   1.586   5.387   4.186  1.3191 -0.1629 -0.1575
 6803TIP3   OH241823   1.152   1.838   4.102  0.2849  0.8042  0.1900
 6803TIP3    H141824   1.058   1.840   4.085  0.4646  2.6222 -0.8855
 6803TIP3    H241825   1.192   1.850   4.016  1.5706 -1.3253  0.4203
 6804TIP3   OH241826   0.566   1.139  14.733  0.3521  0.2219 -0.0136
 6804TIP3    H141827   0.652   1.174  14.755  0.2602  0.5770 -0.1963
 6804TIP3    H241828   0.531   1.105  14.815  0.7777 -0.1743  0.0073
 6805TIP3   OH241829   6.325   5.108   3.304  0.8136  0.3920  0.4851
 6805TIP3    H141830   6.291   5.041   3.245 -2.0319  0.6811  1.6041
 6805TIP3    H241831   6.318   5.190   3.254 -0.5707  0.4900  0.7915
 6806TIP3   OH241832   1.727   4.194   2.302 -0.1174 -0.0356 -0.0633
 6806TIP3    H141833   1.750   4.103   2.288 -0.4374 -0.1806  0.3400
 6806TIP3    H241834   1.676   4.195   2.383 -0.3476  0.4600 -0.2030
 6807TIP3   OH241835   3.189   6.117   0.555 -0.3073 -0.2914  0.3024
 6807TIP3    H141836   3.135   6.192   0.530 -0.6504 -1.4292 -2.8948
 6807TIP3    H241837   3.279   6.148   0.547 -0.4390 -0.2647 -1.4040
 6808TIP3   OH241838   0.926   6.260  16.666  0.3258 -0.5515  0.0167
 6808TIP3    H141839   0.989   6.212  16.719  0.5254 -1.6666 -1.1853
 6808TIP3    H241840   0.894   6.329  16.723  1.5308 -0.8870  1.1306
 6809TIP3   OH241841   2.867   0.578   4.418  0.5556 -0.4536  0.4521
 6809TIP3    H141842   2.957   0.578   4.385 -0.0014  0.0506 -1.1727
 6809TIP3    H241843   2.842   0.671   4.421 -0.8232 -0.6778 -1.8877
 6810TIP3   OH241844   0.617   2.005  14.334  0.1484  0.4809 -0.5872
 6810TIP3    H141845   0.577   2.025  14.249 -2.1890  0.3439  0.3922
 6810TIP3    H241846   0.562   2.051  14.398 -0.1906 -1.9877  1.0704
 6811TIP3   OH241847   4.149   4.081   5.568 -0.3132 -0.3123 -0.2841
 6811TIP3    H141848   4.071   4.030   5.588 -0.2793 -1.1116 -1.9736
 6811TIP3    H241849   4.116   4.163   5.532 -0.3843 -0.4167 -0.4596
 6812TIP3   OH241850   3.964   4.217  11.880  0.1263  0.2897  0.0343
 6812TIP3    H141851   3.909   4.229  11.958 -1.5117 -3.1991 -0.3718
 6812TIP3    H241852   3.966   4.123  11.866 -1.2991  0.6917 -5.1959
 6813TIP3   OH241853   0.926   2.327  14.613  0.4768  0.1949  0.6401
 6813TIP3    H141854   1.015   2.303  14.639  0.9911 -0.7638 -1.7601
 6813TIP3    H241855   0.873   2.252  14.639  0.7932 -0.2752 -0.0409
 6814TIP3   OH241856   4.845   6.634   0.959 -0.0066  0.1195  0.2711
 6814TIP3    H141857   4.754   6.630   0.928 -0.1134 -0.1932  0.6072
 6814TIP3    H241858   4.850   6.716   1.007 -0.2970 -0.1647  0.7970
 6815TIP3   OH241859   2.137   0.338  15.653  0.0613 -0.1888 -0.2249
 6815TIP3    H141860   2.144   0.433  15.646 -0.3459 -0.2652 -3.9387
 6815TIP3    H241861   2.077   0.323  15.726 -2.4721  2.5993 -1.5243
 6816TIP3   OH241862   1.108   2.086   3.975  0.3782 -0.4425 -0.1680
 6816TIP3    H141863   1.101   2.007   3.921 -0.9447  0.4198 -1.3073
 6816TIP3    H241864   1.035   2.141   3.948 -1.4776 -0.6333  3.7191
 6817TIP3   OH241865   3.734   5.906  13.330 -0.5653  0.3814  0.2998
 6817TIP3    H141866   3.716   5.991  13.289  0.2006 -0.1672 -1.2554
 6817TIP3    H241867   3.829   5.895  13.321 -0.9302 -1.7272 -1.8148
 6818TIP3   OH241868   3.960   3.330   2.779  0.0306 -0.2655  0.6354
 6818TIP3    H141869   3.877   3.330   2.731 -1.1257  0.3277  2.5503
 6818TIP3    H241870   3.941   3.377   2.860  2.7798  1.7151  0.2530
 6819TIP3   OH241871   6.315   1.248  15.287 -0.0842 -0.0204 -0.1686
 6819TIP3    H141872   6.344   1.246  15.196 -2.6636 -0.9096 -1.0663
 6819TIP3    H241873   6.225   1.279  15.282  0.0918  1.0492  2.2441
 6820TIP3   OH241874   2.833   1.565   1.882 -0.1273 -0.5810  0.5919
 6820TIP3    H141875   2.794   1.508   1.948  0.2922 -1.8032 -0.1812
 6820TIP3    H241876   2.919   1.589   1.918  1.3770 -3.5783 -0.6253
 6821TIP3   OH241877   3.071   5.097  11.624 -0.4479  0.1894 -0.9068
 6821TIP3    H141878   2.993   5.082  11.677  0.8802  0.8156  1.3321
 6821TIP3    H241879   3.049   5.171  11.567 -1.1630  0.9950  0.3968
 6822TIP3   OH241880   6.019   0.271  15.987  0.3648 -0.3727 -0.2319
 6822TIP3    H141881   6.101   0.264  16.037  0.4972  0.3054 -0.3529
 6822TIP3    H241882   5.976   0.187  16.002  0.7713 -0.4834  0.3837
 6823TIP3   OH241883   6.499   5.915   4.612 -0.5530  0.4467 -0.0951
 6823TIP3    H141884   6.567   5.864   4.568 -0.0151  0.5995  0.5477
 6823TIP3    H241885   6.449   5.955   4.540 -1.1502 -1.1728 -0.6167
 6824TIP3   OH241886   4.273   6.041   4.268  0.6720 -0.0186 -0.5835
 6824TIP3    H141887   4.288   6.028   4.174 -1.5189 -2.6963 -0.7169
 6824TIP3    H241888   4.208   6.111   4.272  1.4040  0.7006 -0.9827
 6825TIP3   OH241889   0.364   2.979   2.634 -0.5763 -0.2560  0.2981
 6825TIP3    H141890   0.433   3.043   2.617  1.2480 -1.2976  3.0236
 6825TIP3    H241891   0.283   3.028   2.626  0.5829  1.5887 -0.7859
 6826TIP3   OH241892   0.297   0.319  13.860  0.4390 -0.2630 -0.7570
 6826TIP3    H141893   0.369   0.354  13.913  1.5930 -0.6665 -1.9851
 6826TIP3    H241894   0.324   0.229  13.840 -1.0921 -0.8974 -0.0891
 6827TIP3   OH241895   0.859   5.098  12.286 -0.5805  0.2499 -0.2030
 6827TIP3    H141896   0.828   5.043  12.214 -0.0103 -1.1929  0.5908
 6827TIP3    H241897   0.794   5.167  12.294  0.1204  1.3448 -3.0429
 6828TIP3   OH241898   4.491   1.753  15.849 -0.2350  0.1422 -0.2245
 6828TIP3    H141899   4.432   1.678  15.856  0.4480 -0.3739  0.1107
 6828TIP3    H241900   4.440   1.820  15.804 -1.5274  0.1796  1.2164
 6829TIP3   OH241901   5.269   5.284  11.081  0.3584  0.6777 -0.6974
 6829TIP3    H141902   5.305   5.271  10.993  1.5855  1.1479 -0.2871
 6829TIP3    H241903   5.320   5.357  11.117  0.9800 -0.5291  0.9885
 6830TIP3   OH241904   2.284   2.708   0.914 -0.0530 -0.2226  0.1456
 6830TIP3    H141905   2.253   2.675   0.998 -1.8012  0.1624 -0.2987
 6830TIP3    H241906   2.298   2.630   0.861 -1.3473 -0.4013  0.0321
 6831TIP3   OH241907   4.860   6.248   5.376  0.2527  0.0326  0.5300
 6831TIP3    H141908   4.892   6.224   5.289  0.6647 -0.2908  0.7627
 6831TIP3    H241909   4.833   6.339   5.368 -1.6153 -0.5640 -0.4506
 6832TIP3   OH241910   4.095   0.644   5.371  0.1850 -0.3462 -0.4387
 6832TIP3    H141911   4.139   0.563   5.398  1.2996  0.3407 -0.1096
 6832TIP3    H241912   4.030   0.616   5.307 -0.4250 -1.6668  0.7170
 6833TIP3   OH241913   5.397   5.509  12.108 -0.6791  0.5566 -0.0757
 6833TIP3    H141914   5.303   5.512  12.091 -0.6688  0.5633 -0.1298
 6833TIP3    H241915   5.438   5.543  12.028 -0.7158  2.3864  0.6252
 6834TIP3   OH241916   3.064   2.104  13.330  0.3044 -0.2402 -0.4381
 6834TIP3    H141917   3.056   2.137  13.420 -1.3331  0.6173 -0.8443
 6834TIP3    H241918   3.148   2.139  13.300  0.7975 -0.3924  0.6907
 6835TIP3   OH241919   6.296   5.985   4.924 -0.4642  0.1688  0.0280
 6835TIP3    H141920   6.271   6.027   5.006  0.1740 -1.6179  1.1733
 6835TIP3    H241921   6.266   5.895   4.932  0.4888 -0.3012 -1.2909
 6836TIP3   OH241922   5.489   1.763   3.717 -0.3598 -0.2195  0.6180
 6836TIP3    H141923   5.578   1.796   3.726 -0.7019  0.4426  1.8406
 6836TIP3    H241924   5.434   1.833   3.751 -1.4717 -0.0133 -1.4645
 6837TIP3   OH241925   0.015   5.841  16.501 -0.1379 -0.6514  0.2534
 6837TIP3    H141926  -0.037   5.813  16.576 -0.4223 -0.3365  0.1785
 6837TIP3    H241927   0.100   5.865  16.538 -0.3045 -0.4147  0.4887
 6838TIP3   OH241928   6.200   2.809   0.847 -0.3483 -0.4874 -0.7974
 6838TIP3    H141929   6.215   2.826   0.940  0.9337  0.2293 -1.1150
 6838TIP3    H241930   6.197   2.895   0.807  0.0693 -0.8079 -1.5486
 6839TIP3   OH241931   4.151   3.417  13.897  0.1323 -0.4456 -0.5147
 6839TIP3    H141932   4.061   3.393  13.922 -0.2971  0.1056 -1.4776
 6839TIP3    H241933   4.198   3.422  13.980 -0.8448 -0.2622  0.0470
 6840TIP3   OH241934   6.396   0.274  14.226 -0.5702  0.3898 -0.0923
 6840TIP3    H141935   6.451   0.348  14.251 -2.3903  1.1585  1.9406
 6840TIP3    H241936   6.312   0.291  14.268 -1.8826 -1.5508 -1.7252
 6841TIP3   OH241937   6.514   0.241  11.155 -0.5333  0.3090  0.4430
 6841TIP3    H141938   6.517   0.151  11.188 -2.4500  0.3669  0.9131
 6841TIP3    H241939   6.453   0.237  11.081  1.4360  0.7490 -1.2972
 6842TIP3   OH241940   1.697   6.625   4.039 -0.5871 -0.1478 -0.3741
 6842TIP3    H141941   1.711   6.625   4.133 -0.3180 -0.2282 -0.4155
 6842TIP3    H241942   1.661   6.538   4.020 -2.7920  0.6119 -0.0241
 6843TIP3   OH241943   1.769   5.957   3.279 -0.0082  0.0452 -0.2402
 6843TIP3    H141944   1.808   5.921   3.359  0.6935  2.2919  0.5104
 6843TIP3    H241945   1.692   6.006   3.310  0.7145  1.5997 -0.7696
 6844TIP3   OH241946   1.700   6.764  14.834 -0.2737  0.0337  0.0058
 6844TIP3    H141947   1.688   6.857  14.815 -2.1085 -0.2035 -0.2078
 6844TIP3    H241948   1.661   6.719  14.760 -0.3116 -0.9003  0.5773
 6845TIP3   OH241949   3.133   4.577   1.206 -0.2054  0.0108 -0.6483
 6845TIP3    H141950   3.113   4.647   1.267  0.3134 -0.0919 -0.3530
 6845TIP3    H241951   3.164   4.505   1.261  0.9069  0.1482 -1.0754
 6846TIP3   OH241952   6.002   1.679   5.679  0.0156  0.1733  0.2890
 6846TIP3    H141953   6.051   1.680   5.596 -1.5740 -0.3170 -0.7132
 6846TIP3    H241954   5.990   1.586   5.699  0.2074  0.2895  0.9647
 6847TIP3   OH241955   5.742   2.467   0.097  0.2092 -0.2967  0.1668
 6847TIP3    H141956   5.805   2.433   0.160  0.1471  0.8728  0.8931
 6847TIP3    H241957   5.788   2.464   0.013  0.2934 -1.8656  0.2362
 6848TIP3   OH241958   2.077   3.883  12.315 -0.2473  0.2384  0.3394
 6848TIP3    H141959   2.103   3.841  12.397  1.2597  0.1945 -0.1371
 6848TIP3    H241960   1.984   3.860  12.305  0.1721 -1.8711  0.7676
 6849TIP3   OH241961   1.236   3.611   0.024  0.2188 -0.2781 -0.1318
 6849TIP3    H141962   1.314   3.663   0.043  0.1392  0.1689 -0.9690
 6849TIP3    H241963   1.205   3.582   0.110  0.9974 -0.0207  0.2489
 6850TIP3   OH241964   2.472   3.587   0.147 -0.1886 -0.2511 -0.5254
 6850TIP3    H141965   2.391   3.613   0.193  0.0065 -0.5189 -0.0131
 6850TIP3    H241966   2.478   3.493   0.164  1.0581  0.0317  0.7904
 6851TIP3   OH241967   0.961   2.909   0.556  0.4408 -0.3585 -0.2687
 6851TIP3    H141968   1.027   2.912   0.486  0.3659 -0.5096 -0.3456
 6851TIP3    H241969   1.012   2.920   0.636  0.5903 -0.7077 -0.3118
 6852TIP3   OH241970   4.547   0.373  16.836 -0.0799  0.0866  0.3293
 6852TIP3    H141971   4.501   0.289  16.829 -2.1781  1.0649  1.4500
 6852TIP3    H241972   4.493   0.434  16.787 -0.1052  1.3253  1.8302
 6853TIP3   OH241973   3.377   3.424  15.773 -0.1509  0.1322 -0.6497
 6853TIP3    H141974   3.390   3.489  15.842  0.3782 -0.0030 -0.6210
 6853TIP3    H241975   3.465   3.402  15.744 -0.3737  0.2168 -1.3968
 6854TIP3   OH241976   3.300   5.289   1.936  0.1417 -0.1823  0.0604
 6854TIP3    H141977   3.290   5.276   1.842  1.2502  1.0493 -0.2613
 6854TIP3    H241978   3.249   5.367   1.956 -2.2246 -1.8268  1.0195
 6855TIP3   OH241979   2.899   3.523   3.523 -0.6286  0.2613  0.3409
 6855TIP3    H141980   2.972   3.540   3.464 -1.2058  1.0317 -0.1721
 6855TIP3    H241981   2.921   3.571   3.603 -0.2107 -0.1464  0.4711
 6856TIP3   OH241982   1.561   6.415   4.493  0.3693 -0.2275 -0.0967
 6856TIP3    H141983   1.624   6.416   4.421  1.0843 -0.3019  0.5161
 6856TIP3    H241984   1.575   6.498   4.539  0.4824 -0.5397  0.4356
 6857TIP3   OH241985   3.133   0.092   3.248  0.2354 -0.1911 -0.2191
 6857TIP3    H141986   3.163   0.170   3.295  0.1803 -0.1351 -0.2770
 6857TIP3    H241987   3.085   0.041   3.313  1.1431 -0.6745  0.0901
 6858TIP3   OH241988   4.966   4.217  11.967  0.4136  0.0833  0.4112
 6858TIP3    H141989   4.895   4.182  11.912  0.2404 -1.1638  1.3761
 6858TIP3    H241990   5.007   4.139  12.005  2.3535  0.7892 -0.1626
 6859TIP3   OH241991   1.103   5.060  13.383  0.5396 -0.5618  0.6462
 6859TIP3    H141992   1.018   5.020  13.401  0.0504  1.1734  2.4644
 6859TIP3    H241993   1.088   5.116  13.308 -0.4244  1.0386  1.9645
 6860TIP3   OH241994   4.209   2.573  13.446 -0.5468 -0.2587 -0.2781
 6860TIP3    H141995   4.123   2.565  13.488  0.5205 -1.2795  1.8610
 6860TIP3    H241996   4.220   2.491  13.398 -0.9334  0.0825 -0.9770
 6861TIP3   OH241997   2.766   5.679   6.204  0.2201 -0.1361  0.0766
 6861TIP3    H141998   2.706   5.692   6.277  0.2853  1.1885 -0.0790
 6861TIP3    H241999   2.777   5.766   6.166  2.3959 -0.2976  0.2263
 6862TIP3   OH242000   4.409   0.612  10.748  0.2050 -0.3837  0.6373
 6862TIP3    H142001   4.434   0.672  10.679 -0.2890 -1.2978 -0.3716
 6862TIP3    H242002   4.342   0.659  10.798  1.0784  0.5554  0.9588
 6863TIP3   OH242003   2.219   6.147  13.240  0.1070  0.0196  0.0117
 6863TIP3    H142004   2.303   6.183  13.270 -0.6998  1.3801  0.7377
 6863TIP3    H242005   2.165   6.144  13.319 -1.5631  2.2165 -0.9308
 6864TIP3   OH242006   5.942   3.941  15.664 -0.6358  0.2579  0.0265
 6864TIP3    H142007   5.857   3.958  15.704 -0.9397  1.5384 -1.0828
 6864TIP3    H242008   5.924   3.873  15.599 -0.4581 -0.6661  0.9177
 6865TIP3   OH242009   2.815   2.730   4.097  0.2971 -0.2308 -0.2715
 6865TIP3    H142010   2.728   2.695   4.116 -0.3793  0.5112 -1.8407
 6865TIP3    H242011   2.848   2.676   4.025  0.2531  0.7763 -1.0765
 6866TIP3   OH242012   1.008   0.102   2.594  0.2816 -0.1836  0.4215
 6866TIP3    H142013   0.979   0.079   2.682  0.0399 -0.0372  0.3816
 6866TIP3    H242014   1.061   0.027   2.566 -0.7578 -0.8447  0.1706
 6867TIP3   OH242015   4.559   0.828   4.558  0.4527  0.4085 -0.2763
 6867TIP3    H142016   4.528   0.874   4.480  0.5619  2.0435  0.5980
 6867TIP3    H242017   4.607   0.753   4.524  1.0752  1.4433 -1.8120
 6868TIP3   OH242018   6.577   1.411   5.502 -0.0230  0.5330 -0.5579
 6868TIP3    H142019   6.483   1.390   5.503 -0.3353  1.8419 -0.7445
 6868TIP3    H242020   6.599   1.428   5.593 -0.1967  1.1595 -0.6297
 6869TIP3   OH242021   3.106   6.311  13.888  0.4921  0.6570  0.1614
 6869TIP3    H142022   3.053   6.303  13.968  0.5852 -0.3330  0.1354
 6869TIP3    H242023   3.194   6.286  13.916  0.2356 -1.2036 -0.5585
 6870TIP3   OH242024   4.960   5.823   0.106  0.2260  0.1276  0.5973
 6870TIP3    H142025   4.983   5.884   0.035  0.3654 -1.1023 -0.4550
 6870TIP3    H242026   5.013   5.851   0.180  0.3986  1.1910  0.0897
 6871TIP3   OH242027   2.740   4.777   1.502  0.0759  0.4534 -0.0642
 6871TIP3    H142028   2.730   4.793   1.596  0.5563  0.1428  0.0426
 6871TIP3    H242029   2.820   4.824   1.478  2.0626 -2.4073  0.4384
 6872TIP3   OH242030   3.603   5.062  15.576 -0.6825  0.2639 -0.7200
 6872TIP3    H142031   3.665   5.041  15.646  0.1563  0.4025 -1.4066
 6872TIP3    H242032   3.585   4.977  15.535 -0.6194  0.2808 -0.7828
 6873TIP3   OH242033   1.810   6.005   1.648 -0.5413  0.2856  0.1574
 6873TIP3    H142034   1.778   6.074   1.707  1.9938  2.8119 -1.2145
 6873TIP3    H242035   1.904   5.999   1.666 -0.0087 -0.1020 -2.3953
 6874TIP3   OH242036   3.296   3.012   4.292  0.0291 -0.0515 -0.2904
 6874TIP3    H142037   3.383   3.032   4.258  0.0286 -0.8955 -0.7899
 6874TIP3    H242038   3.251   3.097   4.293  0.9468  0.4409  0.2607
 6875TIP3   OH242039   4.512   5.306  15.662 -0.0638  0.4868 -0.2706
 6875TIP3    H142040   4.593   5.265  15.629 -0.6941  0.1808 -1.4963
 6875TIP3    H242041   4.542   5.378  15.717  1.0686  1.3885 -1.9756
 6876TIP3   OH242042   3.667   0.935  16.172 -0.1970  0.0218  0.4572
 6876TIP3    H142043   3.634   0.913  16.259 -2.4022  0.6226 -0.1846
 6876TIP3    H242044   3.641   0.862  16.116  0.1157  0.2171  0.0505
 6877TIP3   OH242045   2.447   6.708   4.195  0.0563 -0.3303 -0.3208
 6877TIP3    H142046   2.420   6.781   4.250  1.5107 -1.8498  2.6291
 6877TIP3    H242047   2.487   6.748   4.118  1.5137  2.0331  1.5462
 6878TIP3   OH242048   6.715   4.479   2.662 -0.5924 -0.1042  1.0856
 6878TIP3    H142049   6.659   4.431   2.602  0.8185 -1.1123  0.5124
 6878TIP3    H242050   6.724   4.566   2.623 -0.2456 -0.5356  0.1710
 6879TIP3   OH242051   4.005   1.029   0.316  0.4368 -0.7255  1.1334
 6879TIP3    H142052   4.033   1.011   0.227 -1.6683 -1.4286  0.5622
 6879TIP3    H242053   3.957   1.111   0.311 -1.2233 -1.6419  1.2219
 6880TIP3   OH242054   4.676   6.056   4.046 -0.0592 -0.0339  0.2239
 6880TIP3    H142055   4.749   6.090   4.098 -0.5924 -1.0072  1.6661
 6880TIP3    H242056   4.602   6.113   4.069 -0.4826 -0.9316  1.1646
 6881TIP3   OH242057   0.681   4.015   5.055  0.0819  0.2758  0.6267
 6881TIP3    H142058   0.764   4.044   5.018 -0.7511  0.2687 -1.4407
 6881TIP3    H242059   0.700   3.932   5.097  1.0575  0.0776 -0.1672
 6882TIP3   OH242060   3.750   0.415   3.510 -0.6835 -0.3041 -0.0848
 6882TIP3    H142061   3.670   0.383   3.468 -1.1670 -1.3020  1.4980
 6882TIP3    H242062   3.724   0.499   3.549 -0.5252  0.1005 -0.8246
 6883TIP3   OH242063   2.838   4.243  11.497  0.6227  0.4056  0.8125
 6883TIP3    H142064   2.916   4.270  11.545  0.9195  0.5116  0.2803
 6883TIP3    H242065   2.862   4.254  11.405  0.6608 -1.4367  0.5689
 6884TIP3   OH242066   1.690   6.321  11.841 -0.4233  0.0265  0.0411
 6884TIP3    H142067   1.620   6.336  11.779  0.9186 -1.1022 -1.8548
 6884TIP3    H242068   1.695   6.226  11.850  0.6080  0.0955  0.4146
 6885TIP3   OH242069   0.108   6.038   5.458  0.1781 -0.0186  0.1840
 6885TIP3    H142070   0.060   6.099   5.514  0.6244 -0.2037  0.7780
 6885TIP3    H242071   0.167   6.094   5.407 -0.0595  0.1304  0.0746
 6886TIP3   OH242072   1.403   1.529  12.028 -0.0159 -0.4980 -0.5825
 6886TIP3    H142073   1.398   1.437  12.002  0.6958 -1.0564  1.1118
 6886TIP3    H242074   1.394   1.527  12.123 -1.2401  1.3167 -0.6246
 6887TIP3   OH242075   4.924   5.961  16.654  0.0396  0.6696 -0.5812
 6887TIP3    H142076   4.851   5.961  16.593 -0.9998  1.4555  0.6253
 6887TIP3    H242077   4.906   6.034  16.714  2.0368  1.1743 -0.5213
 6888TIP3   OH242078   0.782   3.115  14.740 -0.4901 -0.3221 -0.4725
 6888TIP3    H142079   0.767   3.122  14.835  1.7697  0.4748 -0.1162
 6888TIP3    H242080   0.873   3.144  14.728 -0.7660 -0.2962 -2.9142
 6889TIP3   OH242081   4.738   6.400   3.894  0.8098 -0.6537 -0.2946
 6889TIP3    H142082   4.820   6.393   3.943  0.2144  0.1541  0.8466
 6889TIP3    H242083   4.669   6.384   3.958 -0.1122  2.9160 -0.1754
 6890TIP3   OH242084   1.642   3.429   0.534 -0.4523  0.6100  0.0549
 6890TIP3    H142085   1.644   3.501   0.470  1.0988  0.2870 -0.3138
 6890TIP3    H242086   1.645   3.473   0.619  0.3854  1.0018 -0.1649
 6891TIP3   OH242087   0.164   1.302   2.018  0.0169  0.6415  0.0471
 6891TIP3    H142088   0.104   1.230   2.006 -0.7194  0.9457  1.6123
 6891TIP3    H242089   0.248   1.270   1.983 -0.8063 -0.1074 -1.3299
 6892TIP3   OH242090   2.794   6.389  12.081  0.1082 -0.2701  0.2784
 6892TIP3    H142091   2.861   6.434  12.031 -0.9141 -0.1812 -1.0660
 6892TIP3    H242092   2.724   6.373  12.018 -0.9213 -0.8055  1.5177
 6893TIP3   OH242093   1.176   6.012  12.300  0.1851  0.7156 -0.5471
 6893TIP3    H142094   1.118   6.063  12.358  0.6119  0.6476 -0.0597
 6893TIP3    H242095   1.234   6.077  12.262  0.7351  0.6035  0.0811
 6894TIP3   OH242096   0.575   5.105  10.873 -0.1229  0.1605  0.2791
 6894TIP3    H142097   0.491   5.150  10.878 -0.6100 -0.7568  0.4473
 6894TIP3    H242098   0.617   5.124  10.956 -0.3542  0.2471  0.3776
 6895TIP3   OH242099   5.700   2.778  11.662  0.1235 -0.3346 -0.7214
 6895TIP3    H142100   5.748   2.831  11.599  0.0528  0.6043 -0.0089
 6895TIP3    H242101   5.710   2.824  11.745 -0.7313 -0.9315 -0.2663
 6896TIP3   OH242102   2.849   0.788  15.590  0.1867 -0.2690 -0.3424
 6896TIP3    H142103   2.936   0.805  15.627  0.2042  2.7778 -1.4926
 6896TIP3    H242104   2.794   0.859  15.625 -1.1814 -0.6422 -1.6369
 6897TIP3   OH242105   2.473   0.084  14.949 -0.6525 -0.0100 -0.1608
 6897TIP3    H142106   2.520   0.104  15.030 -1.0421 -0.3103  0.1433
 6897TIP3    H242107   2.381   0.097  14.971 -0.7305  0.3078 -0.6752
 6898TIP3   OH242108   2.778   5.169  15.778 -0.4818  0.5136 -0.3181
 6898TIP3    H142109   2.791   5.098  15.841  0.1647  1.8609  1.1422
 6898TIP3    H242110   2.862   5.179  15.735  0.3690  2.2117  1.5428
 6899TIP3   OH242111   2.916   2.167  16.234 -0.2343 -0.0261 -0.0702
 6899TIP3    H142112   2.919   2.262  16.239 -1.4114  0.1012 -1.2490
 6899TIP3    H242113   2.901   2.139  16.324  1.5946  0.7882  0.5383
 6900TIP3   OH242114   6.299   1.713   3.463  0.0789  0.5400 -0.5377
 6900TIP3    H142115   6.260   1.679   3.383 -1.5441 -0.8846  0.7853
 6900TIP3    H242116   6.277   1.806   3.462  1.4984  0.9237 -2.4710
 6901TIP3   OH242117   0.987   1.636  12.151 -0.1400  0.3803 -0.1381
 6901TIP3    H142118   1.004   1.632  12.057  0.0097 -0.0292 -0.0919
 6901TIP3    H242119   0.999   1.547  12.183 -1.2956  0.2804  0.0838
 6902TIP3   OH242120   4.412   1.275  12.671 -0.1011 -0.4947 -0.1203
 6902TIP3    H142121   4.361   1.214  12.724  0.7985  0.7655  2.3520
 6902TIP3    H242122   4.498   1.235  12.664 -0.6242 -1.4159 -2.1303
 6903TIP3   OH242123   0.366   4.297  15.276 -0.8419 -0.0640  1.0065
 6903TIP3    H142124   0.348   4.206  15.253  2.8471 -0.8331  0.5226
 6903TIP3    H242125   0.400   4.293  15.366 -0.5875  0.8161  0.9645
 6904TIP3   OH242126   0.071   3.518   0.290 -0.1744 -0.3696 -0.9916
 6904TIP3    H142127   0.069   3.430   0.328  0.4891  0.1415  0.3246
 6904TIP3    H242128  -0.017   3.552   0.305  0.3883  0.2698  1.3597
 6905TIP3   OH242129   3.736   1.545   2.475 -0.2931  0.0810 -0.2462
 6905TIP3    H142130   3.798   1.609   2.512 -0.2990 -0.8733  1.5352
 6905TIP3    H242131   3.783   1.461   2.479 -0.2522 -0.0731 -2.6309
 6906TIP3   OH242132   4.365   3.730   3.138 -0.2750 -0.9816 -0.1184
 6906TIP3    H142133   4.314   3.782   3.075 -1.2068 -1.7805 -0.0598
 6906TIP3    H242134   4.456   3.755   3.123 -0.7495  1.7311  0.8682
 6907TIP3   OH242135   6.778   4.422  14.899  0.7760 -0.0464  0.0356
 6907TIP3    H142136   6.791   4.414  14.994 -0.6061 -1.3775  0.1594
 6907TIP3    H242137   6.694   4.467  14.891 -0.7343 -2.7524 -0.4455
 6908TIP3   OH242138   2.659   5.283   3.442  0.1452  0.0243  0.1047
 6908TIP3    H142139   2.746   5.274   3.479 -0.2414 -0.0625  1.0113
 6908TIP3    H242140   2.674   5.321   3.355  1.1363 -0.7475 -0.0895
 6909TIP3   OH242141   3.704   5.793   1.442  0.6075 -0.2539  0.0528
 6909TIP3    H142142   3.623   5.813   1.394  0.6997 -1.6633 -0.7549
 6909TIP3    H242143   3.747   5.877   1.453 -1.0692  0.5730  0.7012
 6910TIP3   OH242144   3.100   0.862  16.436 -0.0960  0.1414  0.2688
 6910TIP3    H142145   3.143   0.927  16.492  0.1666 -1.5689  2.1504
 6910TIP3    H242146   3.148   0.866  16.354  1.2456  0.8975  1.0466
 6911TIP3   OH242147   4.014   1.522  14.253 -0.3656 -0.3626 -0.2971
 6911TIP3    H142148   4.102   1.513  14.216 -0.7798  0.6883 -1.5955
 6911TIP3    H242149   3.956   1.484  14.188 -1.0663  1.1552 -0.6040
 6912TIP3   OH242150   3.494   1.531  11.765  0.4940  0.7131 -0.2973
 6912TIP3    H142151   3.477   1.502  11.855 -1.4723 -0.4040 -0.9633
 6912TIP3    H242152   3.433   1.604  11.752  0.9874  1.0730 -0.6511
 6913TIP3   OH242153   0.922   3.558   1.039 -0.4345 -0.1952 -0.4037
 6913TIP3    H142154   1.013   3.581   1.058 -0.3275 -1.5702  0.9849
 6913TIP3    H242155   0.871   3.604   1.105 -0.3154 -2.7490  1.6318
 6914TIP3   OH242156   5.130   4.213   6.277  0.0932  1.0835  0.3751
 6914TIP3    H142157   5.103   4.123   6.298  0.5460  0.5395 -1.1895
 6914TIP3    H242158   5.100   4.226   6.187  0.1249  2.4871  0.5442
 6915TIP3   OH242159   1.157   1.023  15.142 -0.1198 -0.3371  0.6640
 6915TIP3    H142160   1.239   0.996  15.102  0.2715  0.1298  1.1419
 6915TIP3    H242161   1.182   1.083  15.212 -0.7109 -2.2100  2.5718
 6916TIP3   OH242162   5.849   1.144  13.723  0.6789 -0.1835  0.2359
 6916TIP3    H142163   5.795   1.086  13.777 -0.5326  0.5941 -0.1128
 6916TIP3    H242164   5.879   1.089  13.651  1.6443 -1.0192  1.2245
 6917TIP3   OH242165   1.612   2.599   5.842  0.7952 -0.1603  0.3350
 6917TIP3    H142166   1.550   2.567   5.908  0.7600 -2.3088 -0.6368
 6917TIP3    H242167   1.662   2.521   5.817  1.0756  0.6626 -1.8801
 6918TIP3   OH242168   6.434   6.492   5.099  0.2982  0.0742 -0.1239
 6918TIP3    H142169   6.430   6.428   5.028 -0.0260  1.4386 -1.3766
 6918TIP3    H242170   6.362   6.553   5.081 -0.4649 -0.0973  1.9599
 6919TIP3   OH242171   2.892   4.525  13.316 -0.2577 -0.7501  0.4911
 6919TIP3    H142172   2.799   4.548  13.316 -1.0258 -3.4985 -0.0523
 6919TIP3    H242173   2.895   4.436  13.353  1.9118 -1.4626 -1.1636
 6920TIP3   OH242174   4.979   2.609   1.564 -0.2846  0.3060 -0.1091
 6920TIP3    H142175   5.024   2.544   1.619 -0.7957 -1.0358 -1.1986
 6920TIP3    H242176   4.890   2.575   1.556 -0.7806  1.5679 -0.0820
 6921TIP3   OH242177   4.028   3.733   4.137  0.6080  0.0446 -0.5544
 6921TIP3    H142178   3.950   3.789   4.139 -0.2511 -1.0203 -2.2099
 6921TIP3    H242179   3.995   3.644   4.148  1.8184 -0.2952  0.6796
 6922TIP3   OH242180   4.292   5.530  10.787 -0.2749  0.3371  0.2849
 6922TIP3    H142181   4.359   5.590  10.821 -0.3537  0.8995 -0.5169
 6922TIP3    H242182   4.320   5.444  10.817  1.0685  0.5003 -0.4080
 6923TIP3   OH242183   2.352   3.541   5.048  0.2671 -0.4943 -0.0046
 6923TIP3    H142184   2.354   3.636   5.058  0.2068 -0.7204  3.3833
 6923TIP3    H242185   2.440   3.518   5.018  1.3285  0.4621  2.1623
 6924TIP3   OH242186   6.337   5.648   0.373 -0.1274 -0.3206  0.5641
 6924TIP3    H142187   6.371   5.579   0.317  1.6596 -0.2914  1.5358
 6924TIP3    H242188   6.276   5.604   0.432 -0.0216 -0.8188  0.3058
 6925TIP3   OH242189   2.498   5.793   3.896  0.5678  0.6227 -0.4195
 6925TIP3    H142190   2.444   5.869   3.872  0.1512  0.6576  0.5896
 6925TIP3    H242191   2.572   5.831   3.944  1.1162  0.5037 -1.1397
 6926TIP3   OH242192   4.923   3.110  15.704  0.6148  0.0506 -0.4056
 6926TIP3    H142193   4.921   3.050  15.779 -2.3299  1.4090  0.7632
 6926TIP3    H242194   4.882   3.060  15.633  0.4961 -0.1667 -0.1865
 6927TIP3   OH242195   2.332   1.677   2.742 -0.4091  0.1412  0.1432
 6927TIP3    H142196   2.257   1.632   2.703 -1.0436 -1.7903  3.2190
 6927TIP3    H242197   2.405   1.658   2.683 -1.7074 -0.6061 -1.2966
 6928TIP3   OH242198   5.479   5.444   2.890 -0.1548 -0.0174  0.0443
 6928TIP3    H142199   5.529   5.515   2.931  2.5773 -0.6648 -1.9539
 6928TIP3    H242200   5.493   5.369   2.947  0.6487 -0.0448 -0.1876
 6929TIP3   OH242201   2.227   0.804   1.450 -0.0788  0.0310  0.0648
 6929TIP3    H142202   2.149   0.759   1.418 -1.4833  1.7055  0.9757
 6929TIP3    H242203   2.194   0.865   1.517  2.0195  0.7213  0.5432
 6930TIP3   OH242204   6.184   0.540  11.598  0.6781 -0.1277 -0.2949
 6930TIP3    H142205   6.196   0.446  11.582  0.2770 -0.4299  1.0794
 6930TIP3    H242206   6.091   0.548  11.621  0.2864  0.8742 -2.0648
 6931TIP3   OH242207   3.747   1.867  11.255  0.4363  0.0837  0.0478
 6931TIP3    H142208   3.667   1.845  11.207 -0.3150  0.9293  0.8493
 6931TIP3    H242209   3.729   1.839  11.345  1.6922 -1.1978 -0.0720
 6932TIP3   OH242210   3.290   3.354   4.463 -0.3008 -0.3873 -0.1936
 6932TIP3    H142211   3.336   3.359   4.379 -0.3538 -1.4312 -0.2902
 6932TIP3    H242212   3.251   3.441   4.473  1.7284  0.5492 -0.0613
 6933TIP3   OH242213   5.332   5.307   5.531 -0.0921  0.5591 -0.8192
 6933TIP3    H142214   5.338   5.349   5.445 -0.5840  1.3807 -0.4613
 6933TIP3    H242215   5.238   5.293   5.543  0.0968 -1.7896 -1.4544
 6934TIP3   OH242216   2.497   0.620  13.709  0.2070  0.0950 -0.1063
 6934TIP3    H142217   2.491   0.542  13.763 -1.8727  0.1145 -0.1981
 6934TIP3    H242218   2.517   0.588  13.621  1.1595 -0.1615  0.2056
 6935TIP3   OH242219   0.376   2.919  11.857  0.0530  0.3715 -0.0002
 6935TIP3    H142220   0.400   2.897  11.947 -1.2214  1.2138  0.5674
 6935TIP3    H242221   0.302   2.978  11.866 -0.6680 -0.2445 -1.6442
 6936TIP3   OH242222   2.502   0.978   0.391 -0.4397 -0.2645  0.1789
 6936TIP3    H142223   2.417   0.941   0.370 -0.3272 -0.3573 -0.1303
 6936TIP3    H242224   2.483   1.053   0.447 -0.7107 -0.3981  0.2638
 6937TIP3   OH242225   1.404   1.118   6.042  0.2749  0.3165  0.4868
 6937TIP3    H142226   1.360   1.203   6.034  0.0699  0.1890  0.2262
 6937TIP3    H242227   1.437   1.116   6.131  0.8457  0.9432  0.2914
 6938TIP3   OH242228   6.120   0.333  15.595  0.4918 -0.1986 -0.2829
 6938TIP3    H142229   6.085   0.412  15.554 -0.0805 -0.4368 -0.2552
 6938TIP3    H242230   6.211   0.356  15.616  0.4283  0.3399 -0.5684
 6939TIP3   OH242231   4.470   5.013   5.509 -0.3329  0.1810  0.1240
 6939TIP3    H142232   4.558   5.034   5.477 -1.0286  0.5683 -1.6597
 6939TIP3    H242233   4.482   4.996   5.602  1.5039  1.0125  0.0894
 6940TIP3   OH242234   3.007   2.315  13.570  0.1248  0.3267  0.3657
 6940TIP3    H142235   2.966   2.401  13.570 -1.3330 -0.3430  0.7414
 6940TIP3    H242236   2.972   2.271  13.648  0.3360 -0.8311 -0.1653
 6941TIP3   OH242237   2.039   3.840  16.053  0.5224  0.8853 -0.3640
 6941TIP3    H142238   2.029   3.746  16.068  1.1318  0.6710 -1.1706
 6941TIP3    H242239   2.023   3.880  16.138  2.7063 -0.1333  0.6195
 6942TIP3   OH242240   2.420   6.693  12.730 -0.3333  0.1399 -0.8611
 6942TIP3    H142241   2.459   6.614  12.768 -1.0590 -0.4301 -1.2708
 6942TIP3    H242242   2.474   6.712  12.653 -0.7422 -0.5289 -1.3160
 6943TIP3   OH242243   6.727   4.588   6.257 -0.1716  0.4889  0.2857
 6943TIP3    H142244   6.648   4.616   6.303  0.4143 -0.2258  1.8069
 6943TIP3    H242245   6.742   4.498   6.288 -0.2035 -0.3499 -1.9672
 6944TIP3   OH242246   1.906   0.467   4.885  0.0493 -0.0689  0.2319
 6944TIP3    H142247   1.899   0.550   4.838  0.3686 -0.5344 -0.6817
 6944TIP3    H242248   1.816   0.435   4.890  0.0151 -0.0331 -0.1109
 6945TIP3   OH242249   6.053   4.177  12.241 -0.6706 -0.2659  0.2554
 6945TIP3    H142250   5.982   4.220  12.193  0.3177  0.5186 -0.5794
 6945TIP3    H242251   6.132   4.207  12.196  0.0861 -2.9737 -0.3555
 6946TIP3   OH242252   0.124   3.037  12.968 -0.3365  0.3385  0.0017
 6946TIP3    H142253   0.122   3.047  12.873  2.2448 -0.2046 -0.1734
 6946TIP3    H242254   0.073   2.958  12.985  0.8639 -0.7222 -1.1552
 6947TIP3   OH242255   0.550   6.124  12.813 -0.0609  0.1136  0.0695
 6947TIP3    H142256   0.595   6.171  12.883  1.0576  1.2449 -1.3430
 6947TIP3    H242257   0.500   6.192  12.767 -0.6951 -0.5933 -0.3062
 6948TIP3   OH242258   0.022   5.957  12.135  0.4841  0.7699  0.1727
 6948TIP3    H142259   0.029   6.043  12.094 -1.0734  2.0995  2.4645
 6948TIP3    H242260  -0.049   5.913  12.088 -0.3659  1.7276  0.5341
 6949TIP3   OH242261   1.281   3.627   1.538 -0.0700  0.0250 -0.2860
 6949TIP3    H142262   1.373   3.626   1.512  0.4857  1.1685  1.4665
 6949TIP3    H242263   1.280   3.592   1.627 -1.5621 -1.3720 -0.7792
 6950TIP3   OH242264   4.552   1.800   3.376 -0.0416  0.9210 -0.1179
 6950TIP3    H142265   4.573   1.756   3.458  2.5355  1.6704 -0.3037
 6950TIP3    H242266   4.495   1.738   3.330  2.7043 -1.9330 -0.0013
 6951TIP3   OH242267   4.413   1.679   2.254 -0.3233 -0.1017  0.7538
 6951TIP3    H142268   4.466   1.649   2.180 -1.4647 -1.9419  0.6457
 6951TIP3    H242269   4.369   1.758   2.222  1.1931  0.6291  0.3767
 6952TIP3   OH242270   3.830   5.836   0.021  0.0008  0.3164  0.0559
 6952TIP3    H142271   3.804   5.843  -0.071  0.1447 -1.8946 -0.1935
 6952TIP3    H242272   3.920   5.868   0.023  0.1323  0.0208 -0.6514
 6953TIP3   OH242273   1.291   5.901  14.653  0.1049  0.7229 -0.6055
 6953TIP3    H142274   1.382   5.871  14.650 -0.2870 -0.9618  1.7625
 6953TIP3    H242275   1.294   5.980  14.707 -0.0620 -0.7877  1.7770
 6954TIP3   OH242276   0.828   0.245  15.766  0.1235  0.6602  0.4339
 6954TIP3    H142277   0.895   0.204  15.712 -1.9966 -0.4682 -1.4819
 6954TIP3    H242278   0.803   0.324  15.718 -0.9359  0.2993  0.3866
 6955TIP3   OH242279   6.161   3.450   3.043  0.6394  0.4482  0.4022
 6955TIP3    H142280   6.216   3.515   3.088  1.0118  0.5227 -0.1486
 6955TIP3    H242281   6.073   3.488   3.043  0.2402 -0.3106  2.5933
 6956TIP3   OH242282   2.242   3.864   4.301 -0.1362 -0.4184 -0.3003
 6956TIP3    H142283   2.197   3.794   4.347 -1.5566  0.3171 -0.5119
 6956TIP3    H242284   2.335   3.841   4.307 -0.4015 -1.1823  1.4905
 6957TIP3   OH242285   2.913   4.434  12.101 -0.0522  0.4417  0.7040
 6957TIP3    H142286   2.838   4.492  12.115 -0.1982  0.5240 -0.3150
 6957TIP3    H242287   2.939   4.450  12.010  0.8130 -0.0435  0.8542
 6958TIP3   OH242288   0.830   2.309  16.130  0.3504 -0.1072  0.1106
 6958TIP3    H142289   0.919   2.298  16.161  0.9354 -0.6015 -1.6200
 6958TIP3    H242290   0.775   2.266  16.196  1.4474 -0.5043  0.7785
 6959TIP3   OH242291   5.238   3.821  16.561 -0.4608  0.5569 -0.5649
 6959TIP3    H142292   5.180   3.868  16.502 -2.2857 -1.8542 -0.8685
 6959TIP3    H242293   5.224   3.728  16.539  1.3832 -0.2645  1.3412
 6960TIP3   OH242294   4.022   6.153   3.173  0.9236  0.2766 -0.8516
 6960TIP3    H142295   4.091   6.201   3.219  0.9196 -0.0368 -0.5165
 6960TIP3    H242296   3.949   6.215   3.168  0.9758  0.3603 -0.5664
 6961TIP3   OH242297   3.785   1.401  13.353  0.3915 -0.3453 -0.3833
 6961TIP3    H142298   3.690   1.401  13.370  0.1445 -0.2372 -1.6344
 6961TIP3    H242299   3.799   1.476  13.296  0.7518 -1.9008 -2.4645
 6962TIP3   OH242300   5.867   0.943  13.223 -0.2657 -0.5266  0.0084
 6962TIP3    H142301   5.826   0.864  13.257  1.8445 -2.5446 -1.8324
 6962TIP3    H242302   5.820   0.962  13.142 -0.2138 -0.3908  0.0098
 6963TIP3   OH242303   0.867   2.732   1.936 -0.0677 -0.0306  0.0825
 6963TIP3    H142304   0.857   2.797   2.006 -0.4033 -1.6052  1.5755
 6963TIP3    H242305   0.778   2.718   1.904  0.1786  1.2774 -1.2811
 6964TIP3   OH242306   1.941   6.717   1.662  0.3176 -0.8595  0.8549
 6964TIP3    H142307   1.894   6.749   1.738  0.9539  0.6583  0.6558
 6964TIP3    H242308   1.876   6.719   1.591  0.1029 -0.8869  1.0505
 6965TIP3   OH242309   5.692   3.263   1.734  0.1645 -0.1607 -0.0738
 6965TIP3    H142310   5.647   3.188   1.694 -1.5016  0.5253  0.4246
 6965TIP3    H242311   5.625   3.330   1.741  1.8341  1.7531 -1.3342
 6966TIP3   OH242312   6.402   1.752  16.933 -0.2483  0.0018 -0.0481
 6966TIP3    H142313   6.446   1.830  16.966  0.0225  0.4127 -1.3248
 6966TIP3    H242314   6.463   1.680  16.954 -0.4285  0.1348  0.9852
 6967TIP3   OH242315   3.076   0.385  11.128 -0.0932  0.5409 -0.4800
 6967TIP3    H142316   3.045   0.364  11.040 -0.7903  0.6832 -0.2687
 6967TIP3    H242317   3.071   0.481  11.133 -2.2546  0.4145  0.5049
 6968TIP3   OH242318   4.067   2.464  12.705  1.0672 -0.3698  0.4323
 6968TIP3    H142319   4.091   2.375  12.677  1.2506 -0.2863  0.3179
 6968TIP3    H242320   4.132   2.520  12.663  1.4243 -0.2495  1.1339
 6969TIP3   OH242321   3.679   5.697  12.904 -0.1849  0.2548 -0.0677
 6969TIP3    H142322   3.611   5.727  12.963  0.0518  0.0636  0.3066
 6969TIP3    H242323   3.693   5.770  12.844  2.1575  1.9592  2.3510
 6970TIP3   OH242324   3.797   0.468   2.853  0.5438 -0.2143 -0.1388
 6970TIP3    H142325   3.846   0.537   2.808  1.0170 -0.5069 -0.0778
 6970TIP3    H242326   3.864   0.407   2.883  0.1580 -0.4903  0.1676
 6971TIP3   OH242327   5.821   6.483   1.852  0.2481 -0.7819 -0.0465
 6971TIP3    H142328   5.728   6.462   1.861 -0.2834  1.1028 -0.8134
 6971TIP3    H242329   5.864   6.423   1.912 -1.2922 -2.8026 -0.8234
 6972TIP3   OH242330   4.155   5.060   2.659 -0.5714 -0.1234  0.0451
 6972TIP3    H142331   4.151   5.065   2.754 -1.2696 -1.0198  0.0825
 6972TIP3    H242332   4.093   4.990   2.636  1.3405 -1.6052 -0.9046
 6973TIP3   OH242333   5.970   5.535  14.499 -0.2561 -0.0139 -0.4231
 6973TIP3    H142334   5.892   5.493  14.463 -0.0834 -0.7038 -0.0080
 6973TIP3    H242335   6.016   5.465  14.545 -0.5579  0.8719  1.2905
 6974TIP3   OH242336   2.808   1.002  10.886 -0.0160 -0.0536  0.3634
 6974TIP3    H142337   2.767   1.056  10.818 -0.6537 -0.9621  0.0155
 6974TIP3    H242338   2.772   1.035  10.968 -0.8361 -0.3145  0.1148
 6975TIP3   OH242339   2.705   4.905  15.646 -0.1235 -0.3680  0.4555
 6975TIP3    H142340   2.624   4.955  15.659  0.4352  0.3612  1.2087
 6975TIP3    H242341   2.760   4.961  15.592 -0.0295 -0.7724  0.1232
 6976TIP3   OH242342   4.520   4.618   2.535 -0.1915  0.1466 -0.8240
 6976TIP3    H142343   4.544   4.643   2.446  0.6159 -2.2028 -1.3121
 6976TIP3    H242344   4.603   4.600   2.579 -0.6863 -2.6282 -0.8619
 6977TIP3   OH242345   0.678   5.115   3.818  0.0698  0.1950 -0.2634
 6977TIP3    H142346   0.607   5.154   3.766 -0.1122  0.5342  0.2258
 6977TIP3    H242347   0.635   5.090   3.901 -0.4852 -3.6432 -1.5304
 6978TIP3   OH242348   1.949   6.528   0.338  0.0001 -0.1355  0.0887
 6978TIP3    H142349   1.890   6.586   0.290  0.0453  1.1389  1.5071
 6978TIP3    H242350   1.966   6.573   0.420  0.0327 -2.1831  1.2734
 6979TIP3   OH242351   2.239   3.821   1.603 -0.7619 -0.2434 -0.4397
 6979TIP3    H142352   2.164   3.828   1.544 -0.0956  1.0327 -1.2033
 6979TIP3    H242353   2.315   3.832   1.545 -0.0338 -0.4626  0.4585
 6980TIP3   OH242354   1.240   2.871   4.355  1.1800  0.3231  0.3082
 6980TIP3    H142355   1.176   2.818   4.306  1.5405  0.3410 -0.1913
 6980TIP3    H242356   1.186   2.928   4.409  0.7604 -1.5608  2.0145
 6981TIP3   OH242357   2.098   4.351  10.999 -0.0770 -0.2739 -0.0812
 6981TIP3    H142358   2.038   4.309  10.937  0.5366 -0.1676 -0.7537
 6981TIP3    H242359   2.186   4.331  10.965  0.2963 -0.8944  1.1855
 6982TIP3   OH242360   0.819   1.711   0.004 -0.2431  0.1004 -0.6670
 6982TIP3    H142361   0.847   1.685  -0.083 -1.0387 -1.1875 -0.5698
 6982TIP3    H242362   0.867   1.653   0.063  0.2033  0.8880 -0.2426
 6983TIP3   OH242363   0.707   5.701  15.663 -0.2468  0.1907 -0.3915
 6983TIP3    H142364   0.640   5.768  15.677 -0.0660  0.9292 -2.7099
 6983TIP3    H242365   0.756   5.731  15.586  0.2146 -2.3100 -1.1568
 6984TIP3   OH242366   2.448   3.209  12.301  0.2881  0.4716 -0.5014
 6984TIP3    H142367   2.520   3.177  12.356 -0.7247 -1.4168 -0.1763
 6984TIP3    H242368   2.371   3.163  12.335 -0.5352  0.0136 -2.8474
 6985TIP3   OH242369   2.078   3.921   3.276 -0.2426 -0.2352  0.4490
 6985TIP3    H142370   2.151   3.864   3.301  1.2635  0.0156 -2.8653
 6985TIP3    H242371   2.110   4.010   3.292  0.2870 -0.1225 -1.0554
 6986TIP3   OH242372   6.290   0.856  16.550  0.4100  0.1239  0.1086
 6986TIP3    H142373   6.286   0.831  16.642 -2.2096  1.2442  0.3866
 6986TIP3    H242374   6.342   0.786  16.508  1.9851 -0.2019  2.4372
 6987TIP3   OH242375   0.964   0.805  16.783  0.9773 -0.2683  0.2750
 6987TIP3    H142376   1.054   0.774  16.782  1.1514  0.1327 -1.7074
 6987TIP3    H242377   0.931   0.786  16.695 -0.8382 -0.2999  0.9225
 6988TIP3   OH242378   0.311   3.975  14.144  0.7018 -0.5191  0.4681
 6988TIP3    H142379   0.372   4.049  14.133 -0.7270  0.7222  0.4850
 6988TIP3    H242380   0.300   3.968  14.239 -1.5444  1.3860  0.4436
 6989TIP3   OH242381   0.168   1.736  15.481 -0.0308 -0.1023  0.5852
 6989TIP3    H142382   0.187   1.683  15.559  0.8172  0.4579  0.7697
 6989TIP3    H242383   0.075   1.720  15.464 -0.3879  0.2409  2.0709
 6990TIP3   OH242384   2.323   3.218  15.351  0.3885 -0.3146 -0.4819
 6990TIP3    H142385   2.308   3.252  15.439 -1.8239  1.9306 -1.6096
 6990TIP3    H242386   2.284   3.131  15.352  0.5941 -0.4102  0.7932
 6991TIP3   OH242387   6.662   1.689  15.421 -0.1651 -0.8708  0.0297
 6991TIP3    H142388   6.607   1.619  15.387 -0.2192  0.0409 -1.9160
 6991TIP3    H242389   6.656   1.759  15.355 -0.2491  1.0404  1.9412
 6992TIP3   OH242390   3.448   6.773  16.331  0.4226  0.0706  0.2041
 6992TIP3    H142391   3.493   6.701  16.375 -0.3073 -0.6028 -0.1155
 6992TIP3    H242392   3.414   6.827  16.402 -0.0621 -0.5685  0.4671
 6993TIP3   OH242393   3.194   4.638   1.877 -0.3978  0.2834 -0.0399
 6993TIP3    H142394   3.190   4.616   1.784 -0.4198 -1.8280  0.4144
 6993TIP3    H242395   3.233   4.561   1.918 -2.8355  0.0393  2.0483
 6994TIP3   OH242396   6.146   2.719  15.663 -0.1903 -0.2136 -0.4587
 6994TIP3    H142397   6.196   2.639  15.656 -2.0025 -1.3077 -1.7411
 6994TIP3    H242398   6.066   2.693  15.710  0.3212  1.4567  1.5056
 6995TIP3   OH242399   6.712   1.404   5.744 -0.1923 -0.2590 -0.8760
 6995TIP3    H142400   6.669   1.469   5.801 -0.8716 -1.2653 -0.2167
 6995TIP3    H242401   6.667   1.322   5.764  1.8671 -1.3112 -0.3682
 6996TIP3   OH242402   1.542   2.049   5.434 -0.3512  0.1851  0.9139
 6996TIP3    H142403   1.498   2.018   5.513  0.4216 -0.1396  1.2319
 6996TIP3    H242404   1.605   1.980   5.413  0.8962  1.1903  1.2149
 6997TIP3   OH242405   2.340   4.563   0.420 -0.0763 -0.1312 -0.0859
 6997TIP3    H142406   2.330   4.472   0.448  1.2927 -0.5205 -0.7541
 6997TIP3    H242407   2.263   4.581   0.367 -0.5062 -0.8004  0.2943
 6998TIP3   OH242408   5.194   5.345   0.029  0.1703  0.5758  0.2350
 6998TIP3    H142409   5.120   5.334   0.090 -0.0948 -0.2261 -0.2097
 6998TIP3    H242410   5.163   5.410  -0.034 -1.2768 -1.6737 -1.5427
 6999TIP3   OH242411   3.770   6.742  13.150  0.5512 -0.0971 -0.2120
 6999TIP3    H142412   3.706   6.723  13.081  0.0636 -1.1285  0.5029
 6999TIP3    H242413   3.843   6.683  13.132  1.5222  1.3374 -1.2463
 7000TIP3   OH242414   4.499   0.135  11.915 -0.1168  0.0437 -0.6093
 7000TIP3    H142415   4.449   0.054  11.899  1.1211 -0.5443 -1.6541
 7000TIP3    H242416   4.450   0.203  11.869 -0.6373 -0.2803 -0.5447
 7001TIP3   OH242417   6.455   3.501  15.020  0.1838 -0.4787  0.2223
 7001TIP3    H142418   6.443   3.442  14.946  2.4707  0.8584 -1.3696
 7001TIP3    H242419   6.449   3.589  14.981  2.3760  0.2609  1.3627
 7002TIP3   OH242420   3.910   2.088  11.757  0.2663 -0.9432 -0.4219
 7002TIP3    H142421   3.883   2.124  11.841  1.3014  0.4940 -0.6790
 7002TIP3    H242422   3.853   2.012  11.744 -0.0896 -1.0260  1.4325
 7003TIP3   OH242423   5.571   3.362   3.179  0.3103  0.1151  0.5177
 7003TIP3    H142424   5.657   3.357   3.221 -0.0119  0.5197  1.2495
 7003TIP3    H242425   5.546   3.454   3.186  0.4654  0.2931 -1.0367
 7004TIP3   OH242426   1.624   4.486   1.141 -0.5987 -1.0313 -0.2992
 7004TIP3    H142427   1.681   4.435   1.199 -0.2871  0.4862  0.8128
 7004TIP3    H242428   1.535   4.464   1.169 -0.4505  0.1222  1.2523
 7005TIP3   OH242429   0.788   2.550  11.081 -0.0243 -0.1689 -0.7981
 7005TIP3    H142430   0.718   2.487  11.069 -0.4156 -0.1361  0.9690
 7005TIP3    H242431   0.763   2.625  11.027 -1.6096  0.0268  0.1666
 7006TIP3   OH242432   3.919   1.659  15.746  0.2128  0.4457  0.3782
 7006TIP3    H142433   3.978   1.584  15.757 -1.3756 -0.5695  2.5828
 7006TIP3    H242434   3.945   1.697  15.662  1.6171 -2.0752 -0.4377
 7007TIP3   OH242435   0.765   2.493   4.831  0.2630 -0.3021  0.4424
 7007TIP3    H142436   0.755   2.420   4.770  0.4331 -0.9183  1.1305
 7007TIP3    H242437   0.682   2.540   4.826 -0.8340 -1.9540  1.7642
 7008TIP3   OH242438   0.483   6.576   2.707 -0.0027  0.3356  0.3176
 7008TIP3    H142439   0.421   6.601   2.639  3.2448  1.2019 -2.6376
 7008TIP3    H242440   0.480   6.647   2.771 -0.0123  1.8637 -1.3151
 7009TIP3   OH242441   1.720   2.896  14.612 -0.0850  0.6056  0.6834
 7009TIP3    H142442   1.755   2.808  14.597  0.9030  1.2035 -0.7218
 7009TIP3    H242443   1.633   2.895  14.573 -0.2549  0.1256  1.0719
 7010TIP3   OH242444   6.787   4.009  12.618  0.1831 -0.0204  0.0250
 7010TIP3    H142445   6.822   3.982  12.534  1.8633  1.5025  0.1744
 7010TIP3    H242446   6.852   4.070  12.653  0.8101 -2.3964  3.5603
 7011TIP3   OH242447   6.158   6.099   3.599 -0.5234  0.3164 -0.6986
 7011TIP3    H142448   6.131   6.117   3.689 -0.8160  1.9870 -1.0926
 7011TIP3    H242449   6.076   6.079   3.553 -0.7789  2.4265 -1.2301
 7012TIP3   OH242450   1.412   1.145  12.875 -0.1359 -0.1723  0.4643
 7012TIP3    H142451   1.422   1.185  12.788 -0.8545 -2.6925 -0.8819
 7012TIP3    H242452   1.457   1.205  12.934  1.8339  0.8278 -1.8650
 7013TIP3   OH242453   3.680   0.035   3.515 -0.0021  0.2771  0.0613
 7013TIP3    H142454   3.761   0.085   3.504 -1.6906  3.1134 -0.5179
 7013TIP3    H242455   3.633   0.047   3.432  0.0066 -3.5559 -0.7134
 7014TIP3   OH242456   0.557   0.598  11.288 -0.4623  0.2001 -0.1146
 7014TIP3    H142457   0.612   0.633  11.218  2.7934  0.4237  2.3496
 7014TIP3    H242458   0.604   0.521  11.320 -3.0119 -1.2488  0.3927
 7015TIP3   OH242459   0.256   2.005  10.884  0.6656 -0.2419  0.0810
 7015TIP3    H142460   0.255   2.067  10.956 -1.2588 -0.5901  0.4105
 7015TIP3    H242461   0.349   1.995  10.862  1.0760  2.4805  0.2092
 7016TIP3   OH242462   4.746   2.430  15.833 -0.3331  0.1266  0.0860
 7016TIP3    H142463   4.657   2.431  15.867 -0.6706 -1.1922 -0.7191
 7016TIP3    H242464   4.737   2.447  15.739  0.0497 -1.8207 -0.3537
 7017TIP3   OH242465   3.481   1.027   1.039 -0.0761  0.3594  0.1901
 7017TIP3    H142466   3.526   1.090   0.983 -1.5345  1.8542  0.6074
 7017TIP3    H242467   3.399   1.008   0.993 -0.7899  0.7519  1.2513
 7018TIP3   OH242468   3.413   2.065  12.239 -0.0138  0.5316 -0.4550
 7018TIP3    H142469   3.383   2.019  12.161  0.1244  0.1245 -0.2675
 7018TIP3    H242470   3.425   2.156  12.210  0.7780  0.2249 -1.0988
 7019TIP3   OH242471   3.169   0.494  13.227 -0.1408 -0.1242  0.0152
 7019TIP3    H142472   3.237   0.429  13.247  0.0530  0.3748  1.0808
 7019TIP3    H242473   3.202   0.540  13.150  0.8066  0.1836  0.5815
 7020TIP3   OH242474   2.825   4.791   5.206 -0.8522  0.7697  0.2157
 7020TIP3    H142475   2.788   4.799   5.117 -1.2553 -0.8660  0.2095
 7020TIP3    H242476   2.766   4.731   5.251  0.4293  0.0373  0.9800
 7021TIP3   OH242477   5.674   2.327  16.218  0.0182  0.3060  0.1853
 7021TIP3    H142478   5.745   2.315  16.155 -0.8748  0.7526 -0.9317
 7021TIP3    H242479   5.595   2.304  16.170 -0.5222 -1.3797  1.7540
 7022TIP3   OH242480   4.971   0.597   6.303 -0.0364  0.6709 -0.1486
 7022TIP3    H142481   4.953   0.684   6.338  1.0676  1.4607 -1.4617
 7022TIP3    H242482   4.914   0.589   6.227 -1.9196 -0.7622  1.3216
 7023TIP3   OH242483   5.042   6.054   3.612  0.2033  0.3240 -0.2480
 7023TIP3    H142484   5.084   5.994   3.550 -1.2841  1.5249 -2.5539
 7023TIP3    H242485   4.949   6.039   3.601 -0.1398  1.5351  0.7563
 7024TIP3   OH242486   1.444   1.713  14.302 -0.5617 -0.2898 -0.4610
 7024TIP3    H142487   1.386   1.713  14.227 -0.9284  1.8863 -0.2122
 7024TIP3    H242488   1.429   1.797  14.346  1.7750 -0.2243  0.3672
 7025TIP3   OH242489   3.017   0.425  13.503 -0.1213 -0.3794  0.1908
 7025TIP3    H142490   3.065   0.501  13.469  2.1742 -1.2768  1.2619
 7025TIP3    H242491   2.962   0.396  13.429 -1.1385  2.3048 -0.2197
 7026TIP3   OH242492   2.926   1.712   4.531  0.0387  0.3362  0.2972
 7026TIP3    H142493   2.861   1.665   4.479 -0.8197  1.5422  0.2399
 7026TIP3    H242494   2.910   1.804   4.511  1.7710  0.6665  0.2951
 7027TIP3   OH242495   3.716   3.033  11.343  0.0499 -0.4166 -0.5450
 7027TIP3    H142496   3.681   3.104  11.288  0.6838 -1.0731 -1.8449
 7027TIP3    H242497   3.647   3.016  11.407 -0.0800  1.4261 -0.1428
 7028TIP3   OH242498   4.358   0.134  16.932  0.1669  0.0912  0.1056
 7028TIP3    H142499   4.333   0.075  16.861 -1.3080 -0.4465  1.0209
 7028TIP3    H242500   4.365   0.078  17.009 -0.3912  0.9503  0.8123
 7029TIP3   OH242501   2.842   2.161  15.977 -0.1572  0.8271 -0.4724
 7029TIP3    H142502   2.751   2.170  16.005 -0.6765 -2.7192 -0.5913
 7029TIP3    H242503   2.888   2.135  16.057  0.1145 -0.4476 -1.0304
 7030TIP3   OH242504   6.214   6.077   3.106  0.1782  0.2278 -0.3769
 7030TIP3    H142505   6.271   6.092   3.030  0.4385  0.3564 -0.1574
 7030TIP3    H242506   6.272   6.039   3.172 -0.3907 -1.4752 -0.8050
 7031TIP3   OH242507   6.206   3.616   4.827 -0.1238  0.0104  0.4742
 7031TIP3    H142508   6.138   3.606   4.894 -1.2678  0.0950 -0.6417
 7031TIP3    H242509   6.248   3.530   4.821  0.2523  0.1003  1.5395
 7032TIP3   OH242510   5.311   3.279   3.841 -0.1624  0.2046  0.4636
 7032TIP3    H142511   5.345   3.330   3.914  0.1513 -1.5467  1.5783
 7032TIP3    H242512   5.222   3.254   3.868  0.2092 -1.0458  0.5821
 7033TIP3   OH242513   0.975   3.603   4.583 -1.1084  0.2602  0.0916
 7033TIP3    H142514   1.017   3.631   4.502  1.8751  0.5437  1.6298
 7033TIP3    H242515   0.956   3.510   4.569  0.2948  0.0509 -0.5903
 7034TIP3   OH242516   0.385   3.622   0.940 -0.0740 -0.3538  0.2307
 7034TIP3    H142517   0.458   3.617   0.878 -0.1189 -0.6920  0.2053
 7034TIP3    H242518   0.319   3.563   0.904 -1.3612  1.7223 -1.0618
 7035TIP3   OH242519   0.983   2.261   3.788 -0.0357  0.3923  0.4668
 7035TIP3    H142520   0.917   2.266   3.719  0.8373  1.0132 -0.3599
 7035TIP3    H242521   0.967   2.338   3.842  0.1774  0.7086  0.0910
 7036TIP3   OH242522   6.703   5.996   3.625 -0.0466  0.0656 -0.3831
 7036TIP3    H142523   6.727   6.086   3.603  0.1149  0.3672  0.9793
 7036TIP3    H242524   6.740   5.944   3.554  2.2516  0.7850  0.2233
 7037TIP3   OH242525   4.355   5.250  13.905 -0.3869 -0.1375 -0.1452
 7037TIP3    H142526   4.278   5.288  13.947 -0.9298 -0.3271 -0.9513
 7037TIP3    H242527   4.352   5.284  13.815  0.8452  0.4055 -0.0073
 7038TIP3   OH242528   4.637   3.931  12.835 -0.6615 -0.3070  0.0819
 7038TIP3    H142529   4.668   3.845  12.806  0.2951  0.8517 -2.7529
 7038TIP3    H242530   4.689   3.993  12.784 -1.6645  1.9706  1.6574
 7039TIP3   OH242531   0.473   5.531  15.345  0.0913 -0.0853 -0.2064
 7039TIP3    H142532   0.548   5.477  15.370  0.1126  0.5263  1.1395
 7039TIP3    H242533   0.445   5.495  15.261  1.3282 -0.9008 -0.3051
 7040TIP3   OH242534   3.423   1.173  12.908 -0.7496  0.1167  0.3654
 7040TIP3    H142535   3.480   1.178  12.831  2.2119 -1.7433  2.2469
 7040TIP3    H242536   3.439   1.255  12.955  1.8296 -0.9973  1.6613
 7041TIP3   OH242537   6.249   6.150   2.110 -0.0066 -0.5079 -1.2712
 7041TIP3    H142538   6.299   6.169   2.030  1.7557 -0.8698 -0.3113
 7041TIP3    H242539   6.233   6.236   2.149 -1.0207 -0.3173 -2.0848
 7042TIP3   OH242540   1.861   4.418   2.385 -0.5250 -0.0331  0.4341
 7042TIP3    H142541   1.834   4.333   2.351 -1.2933  0.5074 -0.3539
 7042TIP3    H242542   1.922   4.452   2.319 -0.6696  0.2652  0.4505
 7043TIP3   OH242543   5.251   2.532  14.451  0.8034  0.3535  0.7375
 7043TIP3    H142544   5.299   2.614  14.442  0.4727  0.5975  1.1962
 7043TIP3    H242545   5.167   2.549  14.408  1.3430 -0.2691 -0.6202
 7044TIP3   OH242546   2.548   4.504   1.153  0.0716 -0.3859 -0.2213
 7044TIP3    H142547   2.478   4.564   1.127  1.4389  1.4492  0.1114
 7044TIP3    H242548   2.597   4.488   1.072  0.2152 -0.3358 -0.1455
 7045TIP3   OH242549   6.598   1.180  17.017 -0.0206 -0.3174  0.2254
 7045TIP3    H142550   6.637   1.164  17.102  1.0741 -1.2098 -0.4239
 7045TIP3    H242551   6.551   1.100  16.996 -0.0340 -0.2154 -0.1423
 7046TIP3   OH242552   0.087   1.000  14.668  0.0066  0.0191  0.2073
 7046TIP3    H142553   0.105   1.014  14.761 -0.5118  0.5447  0.2387
 7046TIP3    H242554   0.173   1.001  14.626  0.3051 -0.9845  0.7743
 7047TIP3   OH242555   4.843   3.480   6.457  0.7991  0.0546  0.1436
 7047TIP3    H142556   4.770   3.419   6.453  1.0629 -0.4447  1.9355
 7047TIP3    H242557   4.825   3.533   6.535  1.5508  0.9794 -0.2928
 7048TIP3   OH242558   4.215   3.805  10.564 -0.3082  0.0920  0.1264
 7048TIP3    H142559   4.306   3.804  10.595 -0.6899  1.5131  1.3952
 7048TIP3    H242560   4.218   3.855  10.483 -0.1163  1.3716  0.8833
 7049TIP3   OH242561   1.441   5.643  15.301  0.2153  0.0183  0.1167
 7049TIP3    H142562   1.492   5.598  15.368 -1.7956  1.4121  2.8002
 7049TIP3    H242563   1.506   5.677  15.240  2.5092  0.9451  2.8469
 7050TIP3   OH242564   1.660   0.575   0.725  0.2103  0.2103  0.3240
 7050TIP3    H142565   1.649   0.506   0.661  1.1223  1.0328 -0.7745
 7050TIP3    H242566   1.753   0.600   0.718  0.0873  1.0102  1.2380
 7051TIP3   OH242567   5.742   2.936   2.097 -0.4100  0.7272  0.2501
 7051TIP3    H142568   5.702   2.908   2.179  0.3504 -2.5328 -0.3331
 7051TIP3    H242569   5.834   2.909   2.105 -0.2388  0.6603 -1.5229
 7052TIP3   OH242570   5.394   0.576  11.627 -0.1172 -0.0631 -0.9142
 7052TIP3    H142571   5.396   0.549  11.719  0.5750  0.6552 -0.7092
 7052TIP3    H242572   5.302   0.568  11.602 -0.5424  0.9033  0.2109
 7053TIP3   OH242573   2.776   4.459   0.936 -0.0525 -0.1203  0.4171
 7053TIP3    H142574   2.738   4.460   0.848  1.5363 -1.5785 -0.3313
 7053TIP3    H242575   2.819   4.374   0.943  0.1129  0.0899  2.5151
 7054TIP3   OH242576   1.334   2.241   3.965  0.1060 -0.1904 -0.4157
 7054TIP3    H142577   1.378   2.237   3.880  0.8009 -0.2852 -0.0585
 7054TIP3    H242578   1.269   2.171   3.962  1.9014 -1.9595  0.1016
 7055TIP3   OH242579   6.815   6.143  13.784  0.0882 -0.1412  0.1323
 7055TIP3    H142580   6.869   6.064  13.787  0.8230  0.2571 -1.3665
 7055TIP3    H242581   6.773   6.139  13.698  0.5645  1.3507 -0.1930
 7056TIP3   OH242582   6.633   3.819  11.189  0.2031  0.6493  0.0772
 7056TIP3    H142583   6.575   3.757  11.231 -1.1159  1.5791 -0.3106
 7056TIP3    H242584   6.675   3.769  11.119 -0.0697 -0.0536  0.4078
 7057TIP3   OH242585   3.071   6.558  16.138 -0.0548 -0.4632  0.0292
 7057TIP3    H142586   3.126   6.497  16.186 -0.0107  1.1928  2.2545
 7057TIP3    H242587   3.125   6.587  16.064  1.0557 -0.8272  0.6791
 7058TIP3   OH242588   3.431   1.635   0.685 -0.2695  0.0923  0.3147
 7058TIP3    H142589   3.522   1.638   0.714 -0.4362 -0.7860  1.0001
 7058TIP3    H242590   3.433   1.585   0.604 -0.1780 -0.2395  0.5193
 7059TIP3   OH242591   2.511   0.744   2.528 -0.3452 -0.4687  0.6534
 7059TIP3    H142592   2.500   0.812   2.462 -0.3122  0.2991  1.4242
 7059TIP3    H242593   2.438   0.756   2.588 -1.1594 -2.0307  0.0317
 7060TIP3   OH242594   1.743   5.629  16.284 -0.1777 -0.2113 -0.3674
 7060TIP3    H142595   1.763   5.617  16.377 -1.3735 -1.2689 -0.2279
 7060TIP3    H242596   1.714   5.544  16.254  0.4463  0.0530 -1.8007
 7061TIP3   OH242597   1.839   2.133   2.771 -0.0659  0.0870 -0.8693
 7061TIP3    H142598   1.901   2.201   2.741  2.3012 -1.3961  0.3630
 7061TIP3    H242599   1.794   2.173   2.845  2.2816 -0.0220  0.7312
 7062TIP3   OH242600   0.079   2.248  15.653 -0.3533 -0.4808  0.1989
 7062TIP3    H142601   0.041   2.232  15.566  1.6691  1.5114 -1.2002
 7062TIP3    H242602   0.166   2.210  15.648  1.1344  2.5955 -0.0570
 7063TIP3   OH242603   4.261   1.104   2.474 -0.0487  0.1244 -0.2056
 7063TIP3    H142604   4.249   1.157   2.553 -1.4871 -0.8593  0.2803
 7063TIP3    H242605   4.184   1.122   2.421  0.3075 -0.1648 -0.8358
 7064TIP3   OH242606   5.678   0.086   4.603  0.5501  0.4424  0.4409
 7064TIP3    H142607   5.590   0.107   4.572  0.7021  0.9050  0.3237
 7064TIP3    H242608   5.677   0.107   4.696  0.1729 -0.7003  0.7120
 7065TIP3   OH242609   5.878   0.971  14.780  0.1166 -0.5926 -0.0912
 7065TIP3    H142610   5.899   1.000  14.691  0.2902 -0.4819 -0.0150
 7065TIP3    H242611   5.953   0.918  14.807  1.1465  1.2317  0.8359
 7066TIP3   OH242612   0.124   6.476  15.147  0.1215 -0.0352 -0.1169
 7066TIP3    H142613   0.080   6.425  15.214 -2.7312  0.5622 -1.3702
 7066TIP3    H242614   0.052   6.518  15.099  2.1944  3.0144 -0.8009
 7067TIP3   OH242615   0.229   0.029   4.666 -0.7263 -0.4430 -0.5147
 7067TIP3    H142616   0.140   0.002   4.689 -1.1351  0.7645 -0.6459
 7067TIP3    H242617   0.233   0.020   4.571 -0.3971 -1.3775 -0.4240
 7068TIP3   OH242618   1.256   4.244  13.139 -0.2846  0.6142  0.3220
 7068TIP3    H142619   1.170   4.286  13.146 -0.3516  0.7762 -1.2090
 7068TIP3    H242620   1.240   4.152  13.160 -0.8358  0.6462  0.0521
 7069TIP3   OH242621   4.718   5.847  13.147  0.2105 -0.3387 -0.7228
 7069TIP3    H142622   4.701   5.852  13.241  2.3287 -2.4493 -0.1246
 7069TIP3    H242623   4.732   5.754  13.130 -0.8239 -0.0983 -3.3176
 7070TIP3   OH242624   0.973   0.242  11.119 -0.1523  0.1443 -0.1132
 7070TIP3    H142625   0.989   0.329  11.084  0.6425 -0.3182 -0.9482
 7070TIP3    H242626   0.985   0.183  11.044  0.3367 -0.7608  0.6495
 7071TIP3   OH242627   3.978   0.056   1.158 -0.3413  0.2259  0.4342
 7071TIP3    H142628   3.970  -0.033   1.124 -2.0657 -0.4899  2.5221
 7071TIP3    H242629   3.904   0.103   1.122  0.5930  0.8844 -0.7047
 7072TIP3   OH242630   5.505   1.002  10.987 -0.2824 -0.5541 -0.1024
 7072TIP3    H142631   5.560   1.012  10.909  1.0770 -1.0075  0.7629
 7072TIP3    H242632   5.509   0.909  11.008 -1.5631 -0.6320 -0.1274
 7073TIP3   OH242633   6.247   2.520  11.221 -0.1854 -0.5489 -0.2135
 7073TIP3    H142634   6.226   2.547  11.131 -0.9355 -0.5215 -0.0332
 7073TIP3    H242635   6.342   2.528  11.226 -0.3152  1.3914 -0.3705
 7074TIP3   OH242636   2.552   0.386   1.562 -0.3553 -0.6581  0.0613
 7074TIP3    H142637   2.550   0.369   1.468  0.9370 -0.1140 -0.0763
 7074TIP3    H242638   2.463   0.416   1.582 -0.0541  1.4953 -1.4553
 7075TIP3   OH242639   2.046   2.580  16.144  0.3440  0.0887  0.2149
 7075TIP3    H142640   2.072   2.585  16.053 -0.3093 -0.3151  0.0028
 7075TIP3    H242641   2.018   2.670  16.166 -2.9792 -0.5046 -1.0612
 7076TIP3   OH242642   5.464   3.802  10.886  0.1776  0.1714 -0.5044
 7076TIP3    H142643   5.452   3.891  10.852 -0.4675  0.6691  0.9536
 7076TIP3    H242644   5.546   3.772  10.846  0.5369  1.5149 -0.8243
 7077TIP3   OH242645   0.368   4.839   3.704 -0.0694  0.4246 -0.2348
 7077TIP3    H142646   0.277   4.870   3.709 -1.3566 -2.7741 -1.3317
 7077TIP3    H242647   0.389   4.840   3.611  0.5510 -0.0841 -0.1071
 7078TIP3   OH242648   1.002   4.266  16.894 -0.4125  0.5013 -0.0735
 7078TIP3    H142649   0.967   4.200  16.833  0.7464  1.1025 -1.4564
 7078TIP3    H242650   1.092   4.238  16.910 -0.5035  0.7200  0.8729
 7079TIP3   OH242651   6.257   2.799   6.813  0.0172 -0.1491 -0.1794
 7079TIP3    H142652   6.185   2.844   6.770  0.6754 -0.4657 -1.6495
 7079TIP3    H242653   6.238   2.706   6.804  0.4730 -0.2309 -0.3372
 7080TIP3   OH242654   5.975   4.027   4.943 -0.2084 -0.0872  0.3391
 7080TIP3    H142655   6.006   4.116   4.925  1.2454 -0.5324  0.4937
 7080TIP3    H242656   5.882   4.037   4.963 -0.2066  1.3159 -0.2439
 7081TIP3   OH242657   1.222   3.882   3.725 -0.6003 -0.3401  0.2703
 7081TIP3    H142658   1.155   3.813   3.724 -0.2250 -0.6962 -0.5383
 7081TIP3    H242659   1.299   3.842   3.687  0.4971 -0.3171  2.3149
 7082TIP3   OH242660   5.147   3.063   0.077  0.4851 -0.3482 -0.3666
 7082TIP3    H142661   5.133   3.030   0.166  0.9291  2.3301  0.8235
 7082TIP3    H242662   5.241   3.049   0.061  0.1012 -2.3159 -1.1427
 7083TIP3   OH242663   5.161   1.200  13.605 -0.1192  0.5939 -0.4701
 7083TIP3    H142664   5.241   1.147  13.607 -1.7751 -2.1783 -1.9086
 7083TIP3    H242665   5.186   1.279  13.557  2.1573  0.6540  0.6677
 7084TIP3   OH242666   4.927   6.281  11.587  0.2047 -0.4585 -0.0189
 7084TIP3    H142667   4.983   6.346  11.629  1.6757 -0.6696 -1.5431
 7084TIP3    H242668   4.988   6.216  11.552 -0.6160  0.7511 -4.2814
 7085TIP3   OH242669   3.640   1.182   4.293 -0.1834 -0.4006  0.3017
 7085TIP3    H142670   3.584   1.109   4.318 -0.5768 -0.1588  0.1420
 7085TIP3    H242671   3.580   1.256   4.284  0.2280 -0.0280  0.5891
 7086TIP3   OH242672   0.001   1.883  12.155  0.3286 -0.0267 -0.6864
 7086TIP3    H142673   0.061   1.948  12.192  2.3327 -0.3923 -3.0233
 7086TIP3    H242674  -0.054   1.857  12.229  3.0597  0.3165  1.6938
 7087TIP3   OH242675   4.002   5.862  12.661  0.3712  0.2834 -0.1543
 7087TIP3    H142676   4.060   5.938  12.655  0.0139  0.4817 -1.4554
 7087TIP3    H242677   3.996   5.829  12.571 -0.2297 -0.7170  0.2349
 7088TIP3   OH242678   3.633   2.916  16.306 -0.0507  0.6383  0.8054
 7088TIP3    H142679   3.570   2.884  16.371 -1.4486  2.3043  0.3275
 7088TIP3    H242680   3.645   3.008  16.327 -0.3929  1.1777 -1.1897
 7089TIP3   OH242681   0.498   3.097   2.937 -0.4843 -0.1297 -0.1518
 7089TIP3    H142682   0.580   3.115   2.892 -1.6290  1.2925 -1.8381
 7089TIP3    H242683   0.522   3.088   3.029  1.6364 -0.6100 -0.6937
 7090TIP3   OH242684   0.003   5.030   3.496  0.6715  0.6551  0.1901
 7090TIP3    H142685  -0.031   5.117   3.476 -0.3523  0.3710  0.6519
 7090TIP3    H242686  -0.070   4.971   3.479  1.2070 -0.0684  0.3527
 7091TIP3   OH242687   6.790   6.671  14.294 -0.4909  0.1419  0.5834
 7091TIP3    H142688   6.705   6.663  14.249 -0.1931  0.2418 -0.0060
 7091TIP3    H242689   6.828   6.583  14.286 -1.1908 -0.3431  2.1983
 7092TIP3   OH242690   0.604   2.151   6.066  0.3599  0.2285 -0.8603
 7092TIP3    H142691   0.696   2.127   6.051  0.2208 -0.9139 -0.0690
 7092TIP3    H242692   0.566   2.073   6.107 -0.7018  1.0646 -0.1967
 7093TIP3   OH242693   4.916   3.935   2.520  0.0555 -0.4979  0.5189
 7093TIP3    H142694   4.946   3.875   2.589 -0.5992 -0.2737  1.0126
 7093TIP3    H242695   4.942   4.022   2.551  0.1883 -0.4394  0.2461
 7094TIP3   OH242696   4.001   2.732  11.313 -0.5582 -0.1543  0.1367
 7094TIP3    H142697   3.925   2.784  11.340 -0.8443  1.0706 -2.5704
 7094TIP3    H242698   3.965   2.666  11.254  0.3957  0.1894 -0.8676
 7095TIP3   OH242699   3.188   2.134  16.290  0.4745 -0.2357 -0.3624
 7095TIP3    H142700   3.209   2.045  16.318  0.5175 -0.9407 -2.4615
 7095TIP3    H242701   3.098   2.129  16.259  1.0018 -0.0121 -2.0738
 7096TIP3   OH242702   6.041   1.957   5.639 -0.1860  0.5555 -0.0862
 7096TIP3    H142703   6.011   1.896   5.707  0.1776  1.2727  0.7435
 7096TIP3    H242704   6.057   1.903   5.562  2.0910 -0.7680  1.2046
 7097TIP3   OH242705   1.048   6.335  11.561  0.1738  0.0222  0.0764
 7097TIP3    H142706   0.997   6.405  11.603  0.8088  1.7236 -1.8385
 7097TIP3    H242707   0.992   6.258  11.567 -0.5759  0.6546  2.2297
 7098TIP3   OH242708   0.418   1.842   6.665  0.2105  0.5168  0.7771
 7098TIP3    H142709   0.506   1.851   6.702  1.2908 -0.6867 -1.3088
 7098TIP3    H242710   0.397   1.928   6.631  0.8451  0.6683  0.7517
 7099TIP3   OH242711   6.788   3.494   0.021 -0.3411 -0.5187  0.0495
 7099TIP3    H142712   6.799   3.425  -0.045 -2.6341 -2.4283  1.4768
 7099TIP3    H242713   6.826   3.457   0.101 -2.4027 -0.6034  1.0576
 7100TIP3   OH242714   6.709   1.464   5.276  0.4388 -0.7474 -0.1916
 7100TIP3    H142715   6.766   1.537   5.298  1.7381 -2.0047  0.7927
 7100TIP3    H242716   6.652   1.454   5.353 -2.4273  1.5793 -1.8116
 7101TIP3   OH242717   5.021   2.368  11.655  0.5114 -0.2033 -0.1933
 7101TIP3    H142718   5.109   2.395  11.684  0.5828 -0.4459 -0.1775
 7101TIP3    H242719   4.990   2.309  11.724 -0.8961  2.1603  1.3261
 7102TIP3   OH242720   2.240   3.574  11.998 -0.2961  0.1262  0.1913
 7102TIP3    H142721   2.295   3.652  11.990 -2.7154  1.7609 -2.4063
 7102TIP3    H242722   2.255   3.526  11.917 -3.0064  0.9246 -0.8583
 7103TIP3   OH242723   3.078   1.000  14.905 -0.1346 -0.2067 -0.0823
 7103TIP3    H142724   3.134   0.922  14.907 -0.1020 -0.1983 -0.5868
 7103TIP3    H242725   3.126   1.062  14.849 -0.3333  0.0457  0.0251
 7104TIP3   OH242726   1.454   1.164   0.695 -1.0081 -0.1750 -0.8840
 7104TIP3    H142727   1.465   1.132   0.606  0.4209 -0.3008 -0.6941
 7104TIP3    H242728   1.529   1.128   0.743 -2.6506 -1.5449  0.8018
 7105TIP3   OH242729   2.803   5.818  15.370  0.4195 -0.0856 -0.1578
 7105TIP3    H142730   2.713   5.848  15.362  1.0537  1.4541 -3.3547
 7105TIP3    H242731   2.796   5.725  15.390 -1.9051 -0.2134 -1.2717
 7106TIP3   OH242732   6.679   6.792   5.351 -0.0118 -0.4529  0.0055
 7106TIP3    H142733   6.692   6.721   5.414  1.3983 -0.3131 -0.0943
 7106TIP3    H242734   6.622   6.854   5.396 -3.2401 -2.6409 -0.7236
 7107TIP3   OH242735   5.767   6.300  10.932  0.0365  0.0934 -0.3749
 7107TIP3    H142736   5.857   6.335  10.934 -0.0879  1.0489 -3.9963
 7107TIP3    H242737   5.764   6.247  10.852 -2.1991 -1.3403  0.5707
 7108TIP3   OH242738   6.644   4.342   0.101  0.0048  0.4194 -0.0517
 7108TIP3    H142739   6.690   4.384   0.029  1.2523  0.7622  0.9109
 7108TIP3    H242740   6.659   4.400   0.176  0.1752 -0.7865  0.8730
 7109TIP3   OH242741   1.463   5.159   6.146  0.2895  0.2711 -0.0154
 7109TIP3    H142742   1.557   5.174   6.154  0.3034 -0.0251  0.3589
 7109TIP3    H242743   1.428   5.177   6.233  0.1461 -0.7079  0.1320
 7110TIP3   OH242744   3.426   5.355  15.874 -0.3300 -0.6961 -0.0967
 7110TIP3    H142745   3.339   5.393  15.871 -0.4762 -1.0268 -0.0713
 7110TIP3    H242746   3.417   5.278  15.929  0.5331  0.6873  2.0898
 7111TIP3   OH242747   1.416   5.024   0.652 -0.8563  0.0017 -0.0495
 7111TIP3    H142748   1.458   4.941   0.629 -2.6746 -0.7363 -0.9155
 7111TIP3    H242749   1.337   5.026   0.599 -1.5097  1.7130  0.9124
 7112TIP3   OH242750   3.070   1.119  12.928 -0.3704  0.0252  0.3537
 7112TIP3    H142751   2.992   1.169  12.905 -0.4659 -0.6908 -1.0076
 7112TIP3    H242752   3.141   1.159  12.877  0.2382  0.8389  1.7802
 7113TIP3   OH242753   3.392   0.252  15.868 -0.0925 -0.0006 -0.5245
 7113TIP3    H142754   3.466   0.312  15.877 -1.1620  1.0011  3.2321
 7113TIP3    H242755   3.315   0.306  15.885 -1.1735 -2.1328  1.8963
 7114TIP3   OH242756   5.665   4.792   6.010 -0.4399 -0.2049 -0.4932
 7114TIP3    H142757   5.705   4.705   6.016 -0.2059 -0.3068 -2.5844
 7114TIP3    H242758   5.720   4.848   6.064 -0.6159 -1.3421  0.9255
 7115TIP3   OH242759   5.231   5.797  15.059 -0.2276  0.2943  0.1456
 7115TIP3    H142760   5.235   5.719  15.114  0.4368  1.1158  1.3050
 7115TIP3    H242761   5.250   5.870  15.118  0.3959  1.2268 -1.1347
 7116TIP3   OH242762   0.888   3.427   1.549 -0.6351 -0.0170  0.3719
 7116TIP3    H142763   0.839   3.509   1.538  0.6957  0.7954  0.2602
 7116TIP3    H242764   0.963   3.436   1.489  0.5521 -0.4798  1.7371
 7117TIP3   OH242765   2.090   3.323  10.936 -0.1321 -0.7150  0.7806
 7117TIP3    H142766   2.032   3.398  10.953  1.0663  0.5691 -0.4578
 7117TIP3    H242767   2.058   3.254  10.993 -1.4610  0.6624  1.7812
 7118TIP3   OH242768   5.484   3.915  14.386  0.3122  0.5053 -0.0102
 7118TIP3    H142769   5.558   3.970  14.360 -0.0429  0.4661 -1.1583
 7118TIP3    H242770   5.407   3.960  14.351  0.0988 -1.2438 -1.9796
 7119TIP3   OH242771   2.221   6.388  13.428  0.3608  0.5625 -0.4492
 7119TIP3    H142772   2.193   6.300  13.456  0.4261  0.5709 -0.3567
 7119TIP3    H242773   2.297   6.407  13.483  0.0215  0.8994 -0.0855
 7120TIP3   OH242774   1.661   0.141  12.905 -0.0288 -0.2190 -0.1380
 7120TIP3    H142775   1.720   0.216  12.915 -1.1352  0.8170 -1.0976
 7120TIP3    H242776   1.640   0.139  12.812 -0.4450 -1.4075 -0.0331
 7121TIP3   OH242777   1.315   1.168  16.225  0.6998 -0.4816  0.2656
 7121TIP3    H142778   1.289   1.088  16.271 -0.5396 -0.2599 -0.0052
 7121TIP3    H242779   1.341   1.138  16.137 -3.5196 -0.3282 -1.2525
 7122TIP3   OH242780   0.295   0.767   1.537  0.2813 -0.6440 -0.5611
 7122TIP3    H142781   0.299   0.832   1.607 -1.3338 -0.5097 -0.5617
 7122TIP3    H242782   0.328   0.812   1.459 -0.0011 -0.0946 -0.3619
 7123TIP3   OH242783   4.582   5.258   3.845  0.1896 -0.3890 -0.1527
 7123TIP3    H142784   4.518   5.255   3.774  1.5222  0.4616 -1.4366
 7123TIP3    H242785   4.635   5.335   3.827  2.4591 -1.8022  0.0645
 7124TIP3   OH242786   5.645   4.892  14.242 -0.4116 -0.0144  0.0087
 7124TIP3    H142787   5.689   4.922  14.321 -0.3799 -1.3496  0.5152
 7124TIP3    H242788   5.624   4.800  14.258  0.9710 -0.7911 -2.0986
 7125TIP3   OH242789   6.619   1.643  11.015 -0.1693  0.0369  0.3601
 7125TIP3    H142790   6.642   1.666  10.925  1.8511 -1.8370  0.3084
 7125TIP3    H242791   6.544   1.583  11.006  0.1447 -0.2925 -0.1005
 7126TIP3   OH242792   0.179   1.404   2.710 -0.2728 -0.1859  1.0684
 7126TIP3    H142793   0.160   1.333   2.649  0.6182  2.2017 -2.2894
 7126TIP3    H242794   0.095   1.448   2.723  0.0240  1.3715 -1.5041
 7127TIP3   OH242795   4.091   1.165   5.239 -0.0984  0.6767  0.1110
 7127TIP3    H142796   4.084   1.085   5.290 -2.7177 -0.4424 -1.7559
 7127TIP3    H242797   4.037   1.229   5.286  0.7884  0.9422  0.8078
 7128TIP3   OH242798   2.466   2.836  12.270  0.2101 -0.1028  0.0868
 7128TIP3    H142799   2.488   2.798  12.356 -0.7595 -1.1574 -0.1057
 7128TIP3    H242800   2.494   2.927  12.276 -0.2800 -0.0294  1.7034
 7129TIP3   OH242801   3.367   2.946   2.201 -0.6820  0.2780  0.1923
 7129TIP3    H142802   3.315   2.873   2.234 -1.2801  1.1274  1.1959
 7129TIP3    H242803   3.304   3.000   2.153 -0.4114  0.5391  0.1292
 7130TIP3   OH242804   4.579   4.511  13.339 -0.1447  0.2543 -0.1262
 7130TIP3    H142805   4.500   4.494  13.286  0.1887  1.6968 -1.1341
 7130TIP3    H242806   4.562   4.594  13.381  0.1579 -0.2579  1.0332
 7131TIP3   OH242807   2.758   0.404  11.966 -1.1269  0.0075 -0.6644
 7131TIP3    H142808   2.759   0.368  12.054  0.6664  0.1710 -0.5892
 7131TIP3    H242809   2.828   0.357  11.920  1.9634  3.7558 -0.3333
 7132TIP3   OH242810   4.240   3.201   1.326  0.0761  0.4201  0.1482
 7132TIP3    H142811   4.317   3.205   1.382  0.7576 -2.0190 -0.4813
 7132TIP3    H242812   4.211   3.291   1.318  1.7593  1.1820  1.9113
 7133TIP3   OH242813   3.490   5.230   0.872 -0.1197 -0.2334  0.3519
 7133TIP3    H142814   3.517   5.268   0.956  0.1025 -1.9529  1.0917
 7133TIP3    H242815   3.550   5.157   0.859  0.2988  0.4185 -1.6706
 7134TIP3   OH242816   5.431   1.094   4.196 -0.0499  0.2989  0.1494
 7134TIP3    H142817   5.399   1.182   4.173  0.6939  0.4654 -0.3053
 7134TIP3    H242818   5.421   1.089   4.291 -0.7736  0.5966  0.1016
 7135TIP3   OH242819   4.732   0.931  12.419 -0.3610  0.1229  0.3794
 7135TIP3    H142820   4.818   0.919  12.459 -1.0107  0.2424  1.8773
 7135TIP3    H242821   4.748   0.922  12.325  0.8296 -2.7780  0.7298
 7136TIP3   OH242822   1.816   6.625  15.447 -0.5881  0.0521 -0.0082
 7136TIP3    H142823   1.904   6.590  15.440 -0.7287 -0.2159 -0.5138
 7136TIP3    H242824   1.759   6.548  15.446 -0.8040  0.1963  0.8601
 7137TIP3   OH242825   3.376   1.586  12.483 -0.0128  0.1472 -0.0043
 7137TIP3    H142826   3.361   1.543  12.567 -0.7488 -0.5198 -0.4590
 7137TIP3    H242827   3.330   1.670  12.490  0.8466  0.5801  0.6357
 7138TIP3   OH242828   3.915   2.617  13.474  0.2540  0.1531  0.1361
 7138TIP3    H142829   3.838   2.641  13.525  0.3493  1.0974 -0.1556
 7138TIP3    H242830   3.895   2.646  13.385  1.3411  1.3245  0.2474
 7139TIP3   OH242831   0.042   0.322  15.761 -0.3055  0.1553  0.1395
 7139TIP3    H142832  -0.036   0.370  15.789  0.4805  1.0012  0.9329
 7139TIP3    H242833   0.071   0.368  15.682 -0.2441  0.2571  0.2201
 7140TIP3   OH242834   5.922   5.486   4.376 -0.5337 -0.0095 -0.7467
 7140TIP3    H142835   5.970   5.553   4.424 -3.3843  2.2332 -0.8258
 7140TIP3    H242836   5.970   5.405   4.395  1.4227  1.5600  1.6424
 7141TIP3   OH242837   2.758   3.193   1.236  0.0905  0.0020  0.4784
 7141TIP3    H142838   2.767   3.281   1.198  0.3512 -0.4000 -0.4294
 7141TIP3    H242839   2.667   3.169   1.219  0.2675 -0.2715 -0.1425
 7142TIP3   OH242840   4.843   3.430  12.487  0.1299 -0.0302  0.6666
 7142TIP3    H142841   4.766   3.436  12.432 -0.3384 -0.3835  1.2759
 7142TIP3    H242842   4.865   3.336  12.488  1.2821  0.1882 -0.4560
 7143TIP3   OH242843   4.150   0.000   2.957 -0.5826 -0.0554  0.0991
 7143TIP3    H142844   4.093  -0.073   2.977 -2.0113  1.1452  0.6143
 7143TIP3    H242845   4.091   0.073   2.939  0.7748  1.1397  0.2485
 7144TIP3   OH242846   2.755   4.015   2.222 -0.0640 -0.3044 -0.3222
 7144TIP3    H142847   2.840   4.058   2.233  0.4294 -1.7644  2.8199
 7144TIP3    H242848   2.696   4.063   2.280 -1.3147  0.3178 -2.0242
 7145TIP3   OH242849   0.830   6.233  13.469  0.2314  0.4567  0.7998
 7145TIP3    H142850   0.858   6.302  13.529  1.1597 -0.2447  1.1968
 7145TIP3    H242851   0.787   6.169  13.525 -0.0604  0.4077  0.5218
 7146TIP3   OH242852   3.353   3.681   2.826  0.0957 -0.1006  0.3091
 7146TIP3    H142853   3.349   3.708   2.734 -2.6550 -0.7195  0.1670
 7146TIP3    H242854   3.330   3.761   2.874 -0.2684 -0.2343  0.3550
 7147TIP3   OH242855   5.213   5.700   1.370 -0.4960  0.0187  0.0419
 7147TIP3    H142856   5.185   5.751   1.294 -0.8946  0.0997  0.2403
 7147TIP3    H242857   5.165   5.739   1.443  0.0260  0.0638  0.3652
 7148TIP3   OH242858   3.709   2.692   0.981 -0.5482  0.5926  0.2647
 7148TIP3    H142859   3.621   2.731   0.977 -1.2318 -0.6554  1.9871
 7148TIP3    H242860   3.740   2.695   0.890 -2.0678  1.7275 -0.2602
 7149TIP3   OH242861   5.300   1.561  15.555 -0.6833  0.4798 -0.4521
 7149TIP3    H142862   5.343   1.528  15.634 -1.1261  2.1283  0.5060
 7149TIP3    H242863   5.245   1.488  15.526 -2.6855  0.7258  2.3745
 7150TIP3   OH242864   1.835   5.779   1.508 -0.4397 -0.0855  0.4246
 7150TIP3    H142865   1.831   5.854   1.568 -1.3150 -0.5775  1.0066
 7150TIP3    H242866   1.791   5.811   1.429 -0.0360  0.2928  0.3479
 7151TIP3   OH242867   0.581   2.268   1.614 -0.3547 -0.1068 -0.0705
 7151TIP3    H142868   0.527   2.221   1.677 -1.9882 -1.3714 -2.2600
 7151TIP3    H242869   0.638   2.201   1.577  1.0029  0.7343  0.4170
 7152TIP3   OH242870   6.502   2.748   1.040 -0.4757  0.7985  0.5145
 7152TIP3    H142871   6.539   2.678   1.094  0.0669 -0.0435 -0.8633
 7152TIP3    H242872   6.571   2.767   0.976 -0.7197  2.4403  0.7076
 7153TIP3   OH242873   2.035   2.864   5.112 -0.0425 -0.2654  0.1648
 7153TIP3    H142874   2.114   2.893   5.067 -0.3597 -1.0966 -0.9905
 7153TIP3    H242875   1.968   2.928   5.089  0.0480 -0.1274  0.2901
 7154TIP3   OH242876   6.094   5.691   1.185  0.1819 -0.8178 -0.0902
 7154TIP3    H142877   6.057   5.762   1.133  0.6276  0.7776  1.6602
 7154TIP3    H242878   6.024   5.667   1.246  0.4229 -1.0632  0.0946
 7155TIP3   OH242879   2.325   6.177  11.330 -0.0518  0.2285  0.4689
 7155TIP3    H142880   2.392   6.202  11.266 -1.6136  0.1812 -1.2726
 7155TIP3    H242881   2.290   6.095  11.298  1.1882 -1.4817  3.1297
 7156TIP3   OH242882   6.330   3.939   4.492 -0.0688  0.4979  0.6676
 7156TIP3    H142883   6.249   3.913   4.537 -0.8154  0.7611 -0.4858
 7156TIP3    H242884   6.301   3.971   4.407  1.3732 -0.9239 -0.4220
 7157TIP3   OH242885   1.475   2.248   6.161 -0.4450  0.1415 -0.4743
 7157TIP3    H142886   1.421   2.170   6.145 -1.2130  0.4924  0.3562
 7157TIP3    H242887   1.561   2.212   6.183 -0.9860 -0.5282  0.6827
 7158TIP3   OH242888   3.026   4.864   3.114 -0.2713  0.1070  0.3523
 7158TIP3    H142889   3.118   4.889   3.107 -0.0585  0.6439  3.4299
 7158TIP3    H242890   2.980   4.927   3.058  1.2518 -1.3118 -2.7355
 7159TIP3   OH242891   2.819   3.808   2.041  0.3289 -0.1903  0.6543
 7159TIP3    H142892   2.784   3.885   2.085 -1.8779 -0.6864 -0.1001
 7159TIP3    H242893   2.907   3.798   2.077  0.5499  2.4154  1.0611
 7160TIP3   OH242894   1.962   4.824   1.479  0.2226 -0.4167  0.1453
 7160TIP3    H142895   2.041   4.796   1.433  0.8134  2.7446 -0.9837
 7160TIP3    H242896   1.994   4.858   1.563 -0.2462 -1.1739  0.6451
 7161TIP3   OH242897   3.039   2.887   1.839  0.0820 -0.5374 -0.2877
 7161TIP3    H142898   3.126   2.894   1.800  0.4149 -1.2719  0.2857
 7161TIP3    H242899   3.003   2.807   1.802 -0.6546  0.1473 -1.0820
 7162TIP3   OH242900   0.024   5.741  10.583 -0.3299 -0.3421  0.9115
 7162TIP3    H142901  -0.015   5.695  10.508  1.6881 -0.9793  0.1912
 7162TIP3    H242902   0.014   5.834  10.562  1.5144 -0.4847 -0.9583
 7163TIP3   OH242903   5.329   3.636  15.554 -0.6275  0.0016 -0.8538
 7163TIP3    H142904   5.239   3.635  15.586 -0.7451  0.1808 -1.1741
 7163TIP3    H242905   5.341   3.550  15.514 -0.9654  0.3185 -1.6501
 7164TIP3   OH242906   2.178   3.144   4.312  0.2395 -0.0099  0.2749
 7164TIP3    H142907   2.209   3.079   4.375 -2.3817 -2.1530 -0.4205
 7164TIP3    H242908   2.232   3.130   4.234  1.3821  0.4460  0.9702
 7165TIP3   OH242909   4.287   0.301   1.085  0.0003  0.0138 -0.1629
 7165TIP3    H142910   4.304   0.384   1.040  0.4898 -0.4015 -0.7594
 7165TIP3    H242911   4.197   0.310   1.119  0.6531  1.4623  1.3121
 7166TIP3   OH242912   3.324   1.800  10.781 -0.7325 -0.1719  0.2241
 7166TIP3    H142913   3.346   1.879  10.731  0.2148 -0.1596  0.6435
 7166TIP3    H242914   3.358   1.728  10.728 -0.5370 -0.2150  0.4037
 7167TIP3   OH242915   4.839   2.032   5.809 -0.0442  0.3466  0.2826
 7167TIP3    H142916   4.873   2.121   5.815 -0.7101  0.5595  0.8899
 7167TIP3    H242917   4.822   2.006   5.899  0.5611 -0.5640  0.1499
 7168TIP3   OH242918   4.279   5.863  14.250 -0.0989 -0.2216 -0.0325
 7168TIP3    H142919   4.290   5.883  14.343  0.1546 -0.1270 -0.0816
 7168TIP3    H242920   4.273   5.949  14.208  0.7756 -0.2441 -0.2197
 7169TIP3   OH242921   4.694   1.416  15.262  0.8760 -0.4207  0.4385
 7169TIP3    H142922   4.772   1.368  15.233  0.3395 -0.6210 -0.7386
 7169TIP3    H242923   4.725   1.473  15.332  2.2467  0.0431 -0.4973
 7170TIP3   OH242924   0.782   3.278  14.380  0.2816  0.1090 -0.1056
 7170TIP3    H142925   0.774   3.294  14.474  2.1988 -0.7270  0.2465
 7170TIP3    H242926   0.696   3.248  14.353 -0.1938 -0.0118  1.4659
 7171TIP3   OH242927   3.810   6.367  13.659 -0.3545 -0.4461 -0.0985
 7171TIP3    H142928   3.743   6.308  13.625  1.0056 -1.8035 -0.5169
 7171TIP3    H242929   3.795   6.449  13.611 -4.2035  0.7209  2.6415
 7172TIP3   OH242930   1.031   2.369   0.470 -0.5403 -0.7091  0.5426
 7172TIP3    H142931   0.996   2.303   0.410 -0.7489  0.7109 -0.9981
 7172TIP3    H242932   1.092   2.420   0.415 -2.0857  1.7804  0.9905
 7173TIP3   OH242933   0.236   3.584  14.630 -0.4221 -0.2800  0.5230
 7173TIP3    H142934   0.226   3.665  14.582 -1.6340 -0.7980 -0.1520
 7173TIP3    H242935   0.268   3.521  14.566  1.4148 -0.1449  1.2541
 7174TIP3   OH242936   4.366   4.229  13.310  0.5026  0.5771 -0.1875
 7174TIP3    H142937   4.287   4.220  13.363 -0.4743 -2.6391 -1.9462
 7174TIP3    H242938   4.431   4.175  13.357  1.0709  1.5479  0.1658
 7175TIP3   OH242939   0.616   0.527   3.218 -0.1724  0.0727  0.3330
 7175TIP3    H142940   0.674   0.545   3.144 -0.3975  2.3804  0.6292
 7175TIP3    H242941   0.670   0.478   3.280  1.3516  1.6971  0.3724
 7176TIP3   OH242942   2.953   4.243   3.373 -0.4602  0.2358 -0.4793
 7176TIP3    H142943   2.861   4.272   3.376 -0.2737  0.8312 -0.1652
 7176TIP3    H242944   3.001   4.315   3.414  0.1161 -0.2032 -0.3760
 7177TIP3   OH242945   5.398   5.049   2.317 -0.0279  0.0253 -0.6106
 7177TIP3    H142946   5.405   4.970   2.371 -1.0029 -1.2631 -2.2840
 7177TIP3    H242947   5.487   5.064   2.286  0.2272 -0.2231 -0.0218
 7178TIP3   OH242948   0.589   0.836  13.789 -0.6293  0.6859  0.5044
 7178TIP3    H142949   0.527   0.762  13.794 -1.8729  1.6896  0.4479
 7178TIP3    H242950   0.593   0.856  13.695 -1.4726  1.6365  0.6611
 7179TIP3   OH242951   0.639   4.069   4.489  0.5799 -0.7276 -0.2809
 7179TIP3    H142952   0.594   4.141   4.533 -0.3385 -0.6928 -1.2598
 7179TIP3    H242953   0.585   3.992   4.506  1.5242 -1.2067  0.7061
 7180TIP3   OH242954   0.557   5.064   5.661 -0.5713  0.2800  0.0884
 7180TIP3    H142955   0.634   5.011   5.640 -0.1378  0.5870  0.8448
 7180TIP3    H242956   0.540   5.046   5.754  0.0670  2.0366  0.5916
 7181TIP3   OH242957   4.751   2.341  11.548 -0.2374  0.4960 -0.9513
 7181TIP3    H142958   4.844   2.353  11.568 -0.9451  2.2228  1.8902
 7181TIP3    H242959   4.724   2.267  11.603 -0.4902 -0.3415 -2.1560
 7182TIP3   OH242960   5.323   4.694  12.600 -0.1586  0.0156  0.1962
 7182TIP3    H142961   5.413   4.704  12.630 -0.7164  0.2441  1.8752
 7182TIP3    H242962   5.326   4.616  12.543  0.9607 -0.4146  0.8052
 7183TIP3   OH242963   0.356   3.807  15.823 -0.5634  0.5482 -0.0029
 7183TIP3    H142964   0.294   3.745  15.861  0.8303 -0.2665  1.0429
 7183TIP3    H242965   0.331   3.892  15.859 -1.0793  0.2387  0.3749
 7184TIP3   OH242966   3.689   5.950   0.618 -0.4385  0.2181  0.1758
 7184TIP3    H142967   3.683   6.036   0.659 -1.4654 -0.1397  0.8115
 7184TIP3    H242968   3.615   5.947   0.557  1.0827  0.7576 -1.8007
 7185TIP3   OH242969   1.147   3.819  14.478  0.4178  0.1471  0.2029
 7185TIP3    H142970   1.088   3.863  14.539  0.0274 -0.5141  0.3096
 7185TIP3    H242971   1.096   3.747  14.442  0.0244  1.5314 -2.2730
 7186TIP3   OH242972   5.613   4.578  12.218 -0.1220 -0.1232  0.1857
 7186TIP3    H142973   5.553   4.617  12.154  0.3211  0.6076  0.2075
 7186TIP3    H242974   5.562   4.508  12.259 -1.6561  1.6826  1.5530
 7187TIP3   OH242975   1.484   1.093   5.793 -0.1172 -0.7031  0.3515
 7187TIP3    H142976   1.425   1.163   5.764  1.1115  0.2025 -0.0999
 7187TIP3    H242977   1.459   1.076   5.884 -0.5046  0.2659  0.4389
 7188TIP3   OH242978   6.389   1.509  11.131 -0.0224  0.2463  0.5760
 7188TIP3    H142979   6.419   1.424  11.164 -0.0973 -0.6815 -1.5798
 7188TIP3    H242980   6.300   1.517  11.163 -0.3314 -0.9359  0.0783
 7189TIP3   OH242981   0.846   6.096  11.328 -0.7328  0.2453  0.1852
 7189TIP3    H142982   0.855   6.005  11.299 -0.2080  0.1719  0.5512
 7189TIP3    H242983   0.900   6.146  11.267 -1.8805  0.4703 -0.6912
 7190TIP3   OH242984   0.216   0.119  12.302 -0.4865  0.0707  0.0480
 7190TIP3    H142985   0.285   0.185  12.296 -0.9980  0.6191  0.2119
 7190TIP3    H242986   0.207   0.102  12.396 -0.5881  0.0080  0.0267
 7191TIP3   OH242987   0.282   0.574   5.738 -0.0690  0.1670 -0.2015
 7191TIP3    H142988   0.217   0.562   5.669 -0.5863 -0.3767  0.3681
 7191TIP3    H242989   0.276   0.666   5.761 -0.8109  0.0650  0.0144
 7192TIP3   OH242990   1.277   6.098  11.926  0.2899 -0.2493 -0.5706
 7192TIP3    H142991   1.204   6.156  11.903  0.1935 -0.5897 -1.1290
 7192TIP3    H242992   1.344   6.157  11.959 -0.6153 -0.0198  0.9755
 7193TIP3   OH242993   3.739   3.962  11.848 -0.0620  0.4222 -0.7257
 7193TIP3    H142994   3.682   4.039  11.858  0.4695  0.9189 -1.4830
 7193TIP3    H242995   3.740   3.923  11.935 -1.5357  0.4236 -0.6879
 7194TIP3   OH242996   0.180   5.287   2.609 -0.0622  0.1706  0.5938
 7194TIP3    H142997   0.247   5.234   2.653 -0.4471 -2.5193 -1.8168
 7194TIP3    H242998   0.226   5.367   2.584  1.9586 -1.0665  0.1037
 7195TIP3   OH242999   5.778   1.530   3.138 -0.0486 -0.0169 -0.0116
 7195TIP3    H143000   5.850   1.577   3.181 -1.8662  3.2058 -0.1893
 7195TIP3    H243001   5.774   1.567   3.050 -1.6018 -0.4483 -0.1532
 7196TIP3   OH243002   5.804   4.111  11.210  0.2592 -0.2989  0.0866
 7196TIP3    H143003   5.774   4.174  11.276 -0.7018 -0.7561  0.1039
 7196TIP3    H243004   5.888   4.078  11.244  1.3100  1.7055 -0.4261
 7197TIP3   OH243005   6.288   1.298  12.089 -0.7075 -0.8689  0.0831
 7197TIP3    H143006   6.229   1.294  12.163 -1.7584  0.0350 -0.6622
 7197TIP3    H243007   6.357   1.235  12.108 -1.0879 -0.8208  1.6937
 7198TIP3   OH243008   2.970   0.961  13.458 -0.4537 -0.4426 -0.0181
 7198TIP3    H143009   2.876   0.957  13.477 -0.7548 -2.0076 -1.4991
 7198TIP3    H243010   3.012   0.945  13.542 -1.3597  2.9275  1.2570
 7199TIP3   OH243011   3.191   0.436   3.985  0.0164 -0.1948  0.8879
 7199TIP3    H143012   3.172   0.342   3.975  0.9256 -0.2410 -0.9848
 7199TIP3    H243013   3.113   0.479   3.951 -1.1036 -0.1916  3.2796
 7200TIP3   OH243014   2.009   1.504   1.032  0.0284  0.6068  0.0740
 7200TIP3    H143015   2.020   1.594   1.002 -0.1700  0.7231  0.3470
 7200TIP3    H243016   2.026   1.507   1.126  0.1497  0.3365  0.0602
 7201TIP3   OH243017   5.770   4.011  13.139  0.2584 -0.4340 -0.0226
 7201TIP3    H143018   5.696   3.950  13.136  1.3138 -1.8377  0.9430
 7201TIP3    H243019   5.793   4.026  13.047 -1.2480  0.1078 -0.3473
 7202TIP3   OH243020   5.184   1.615   3.925  0.1935  0.3084  0.6167
 7202TIP3    H143021   5.251   1.573   3.871  2.0413  0.1772  2.8655
 7202TIP3    H243022   5.164   1.697   3.880  0.2876 -0.6213 -1.1816
 7203TIP3   OH243023   1.500   6.187  12.592  0.1625  0.0275 -0.2187
 7203TIP3    H143024   1.511   6.267  12.644 -1.0129  0.9083 -1.2404
 7203TIP3    H243025   1.584   6.176  12.548 -0.0960  1.6190 -1.2276
 7204TIP3   OH243026   5.485   2.839   2.940 -0.5339 -0.2806 -0.5119
 7204TIP3    H143027   5.463   2.902   2.871 -1.9094  0.0717  0.2293
 7204TIP3    H243028   5.500   2.892   3.018  2.4468 -0.5346 -0.7712
 7205TIP3   OH243029   1.275   4.928   0.427 -0.2098 -0.2747  0.1110
 7205TIP3    H143030   1.249   4.846   0.469 -0.1663  0.2706  1.2350
 7205TIP3    H243031   1.343   4.902   0.365  0.0266 -1.0497  0.6704
 7206TIP3   OH243032   3.149   6.416   4.949  0.3455  0.5218  0.4043
 7206TIP3    H143033   3.243   6.424   4.937  0.4808 -0.7261  0.5325
 7206TIP3    H243034   3.139   6.375   5.035 -0.3020  0.4210  0.2876
 7207TIP3   OH243035   5.171   6.386  11.641  0.4577 -0.1228 -0.0467
 7207TIP3    H143036   5.211   6.320  11.584 -0.1266 -1.3233  0.8691
 7207TIP3    H243037   5.232   6.394  11.714  0.0541 -0.3939  0.3252
 7208TIP3   OH243038   3.191   6.327   1.756 -0.2441 -0.7146 -0.3273
 7208TIP3    H143039   3.129   6.269   1.799  0.4151 -0.6705  0.7069
 7208TIP3    H243040   3.142   6.408   1.742  0.1988  0.2139  2.7109
 7209TIP3   OH243041   3.134   0.254   4.388  0.1189 -0.0068  0.1771
 7209TIP3    H143042   3.191   0.309   4.442 -0.9782  0.1348  1.2299
 7209TIP3    H243043   3.059   0.235   4.444 -0.6779 -0.5336 -1.0281
 7210TIP3   OH243044   6.516   5.893   1.116 -0.7137 -0.0534  0.3696
 7210TIP3    H143045   6.425   5.922   1.105 -0.5944  0.4105  0.5940
 7210TIP3    H243046   6.568   5.964   1.078 -0.4262 -0.0597  0.7485
 7211TIP3   OH243047   3.781   1.342  11.485 -0.2694 -0.4413  0.0034
 7211TIP3    H143048   3.711   1.292  11.442  0.1124 -2.4769  1.5855
 7211TIP3    H243049   3.862   1.303  11.451  0.1208  0.8866 -0.6760
 7212TIP3   OH243050   4.969   0.662  11.907 -0.0863  0.2756  0.3637
 7212TIP3    H143051   5.001   0.643  11.995  1.0675  1.3604  0.2115
 7212TIP3    H243052   5.043   0.704  11.863 -0.2358 -1.2359 -1.5070
 7213TIP3   OH243053   0.572   0.506  12.085  0.3052 -0.0727 -0.3050
 7213TIP3    H143054   0.477   0.519  12.077  0.0503 -2.1004 -1.0310
 7213TIP3    H243055   0.592   0.437  12.022  1.3379 -3.7508  3.6375
 7214TIP3   OH243056   4.931   4.135   0.980 -0.5519  0.0613  0.0670
 7214TIP3    H143057   4.873   4.097   1.045  0.3411 -0.8888  0.3334
 7214TIP3    H243058   4.998   4.181   1.031  0.6843 -1.4660 -0.0977
 7215TIP3   OH243059   5.818   3.393   3.303  0.6579  0.1092  0.2005
 7215TIP3    H143060   5.830   3.390   3.397  1.4804  0.2674  0.1038
 7215TIP3    H243061   5.895   3.350   3.267 -0.2421 -1.0822 -0.3741
 7216TIP3   OH243062   3.225   5.572  12.944 -0.1608  0.2234 -0.1523
 7216TIP3    H143063   3.244   5.639  12.879  1.4351  0.3362  0.3880
 7216TIP3    H243064   3.160   5.516  12.902 -1.8241  2.2614 -0.4923
 7217TIP3   OH243065   1.168   6.399   3.559  0.0123 -0.2131 -0.1767
 7217TIP3    H143066   1.154   6.448   3.640  1.7894  0.6348 -0.3224
 7217TIP3    H243067   1.084   6.359   3.540 -1.7275  3.0646 -0.1925
 7218TIP3   OH243068   1.590   1.256  12.318 -0.6522  0.8584  0.3754
 7218TIP3    H143069   1.572   1.190  12.385  1.3227  1.9358  2.0496
 7218TIP3    H243070   1.677   1.233  12.285 -1.3406  0.7032 -1.4708
 7219TIP3   OH243071   1.267   0.055   5.691 -0.7027 -0.3136 -0.0306
 7219TIP3    H143072   1.243   0.025   5.778 -0.9750 -0.5825 -0.1955
 7219TIP3    H243073   1.217  -0.001   5.632 -0.4598 -0.1865 -0.3604
 7220TIP3   OH243074   3.495   2.621   1.346 -0.2843 -0.7452  0.3535
 7220TIP3    H143075   3.549   2.700   1.347 -0.5709 -0.5473  0.8332
 7220TIP3    H243076   3.439   2.632   1.269  1.1343 -1.5079 -0.8378
 7221TIP3   OH243077   5.059   6.688   4.553 -0.2438 -0.4864  0.0370
 7221TIP3    H143078   4.966   6.678   4.572 -0.5740  2.5452  0.4781
 7221TIP3    H243079   5.098   6.713   4.637 -0.1609  4.0260 -1.1031
 7222TIP3   OH243080   0.348   4.066   0.118  0.1239 -0.3340 -0.1695
 7222TIP3    H143081   0.419   4.117   0.077  0.6362  0.7908  1.9628
 7222TIP3    H243082   0.268   4.108   0.087  0.4134 -0.5403 -1.2549
 7223TIP3   OH243083   2.494   2.467   4.766  0.4481 -0.2928  0.3581
 7223TIP3    H143084   2.450   2.382   4.766 -0.1040 -0.0072  0.4075
 7223TIP3    H243085   2.503   2.490   4.858  0.8969 -0.4427  0.3581
 7224TIP3   OH243086   2.359   2.953   2.239  0.4757  0.3835 -0.2694
 7224TIP3    H143087   2.264   2.963   2.247 -0.2232 -3.9148 -0.6136
 7224TIP3    H243088   2.373   2.937   2.146  1.4133  0.0738 -0.0822
 7225TIP3   OH243089   2.655   2.259   3.831  0.2455 -0.2527  0.0046
 7225TIP3    H143090   2.653   2.323   3.760 -0.8816 -2.7410 -2.3819
 7225TIP3    H243091   2.735   2.209   3.816 -0.1874 -1.0358  0.2550
 7226TIP3   OH243092   3.705   5.626   0.402  0.5097  0.2167 -0.2117
 7226TIP3    H143093   3.794   5.648   0.373  1.1221 -0.0806  1.3564
 7226TIP3    H243094   3.654   5.705   0.386  0.7133 -0.0072 -2.3161
 7227TIP3   OH243095   3.782   6.817  11.816  0.5276  0.2196 -0.2043
 7227TIP3    H143096   3.774   6.773  11.731  1.1053  0.5823 -0.4497
 7227TIP3    H243097   3.815   6.749  11.874  2.8473  0.6613 -0.9158
 7228TIP3   OH243098   5.480   5.240  13.079 -1.2942  0.5280 -0.0445
 7228TIP3    H143099   5.432   5.207  13.003  0.6740 -0.9196 -0.7535
 7228TIP3    H243100   5.562   5.274  13.042  0.3357 -1.5072  1.4886
 7229TIP3   OH243101   0.034   1.600  12.420  0.0416  0.4295  0.2469
 7229TIP3    H143102  -0.042   1.599  12.362 -2.3695  0.8466  3.1860
 7229TIP3    H243103   0.015   1.534  12.486  1.9192  1.0591  1.4779
 7230TIP3   OH243104   3.169   6.504  12.229  0.1576  0.3929  0.4414
 7230TIP3    H143105   3.264   6.488  12.227  0.3887  1.4575  1.7671
 7230TIP3    H243106   3.136   6.446  12.297  0.0365  0.8876  0.8045
 7231TIP3   OH243107   4.938   6.126  16.312  0.1716 -0.1634  0.0741
 7231TIP3    H143108   4.915   6.061  16.378  1.4278  0.6987  1.4293
 7231TIP3    H243109   4.935   6.078  16.229 -2.1592 -1.0992  0.6152
 7232TIP3   OH243110   3.817   5.817  16.181 -0.2137  0.8669  0.0255
 7232TIP3    H143111   3.774   5.745  16.134  0.8012  0.4793 -0.3462
 7232TIP3    H243112   3.803   5.798  16.273  1.9982 -1.1405  0.0496
 7233TIP3   OH243113   2.768   0.727   5.912  0.1850 -0.1055 -0.1142
 7233TIP3    H143114   2.791   0.792   5.979  0.6399 -0.3693 -0.0138
 7233TIP3    H243115   2.817   0.649   5.937  0.9213  0.0052 -1.1478
 7234TIP3   OH243116   6.261   0.784  15.865 -0.5495 -0.4879 -0.3957
 7234TIP3    H143117   6.167   0.768  15.873 -0.3899 -1.0794  0.4039
 7234TIP3    H243118   6.278   0.855  15.927 -0.2572 -1.2677  0.4322
 7235TIP3   OH243119   2.282   2.336   1.724 -0.0264 -0.1864 -0.1043
 7235TIP3    H143120   2.190   2.359   1.710  0.2781  1.4881  0.4353
 7235TIP3    H243121   2.328   2.376   1.650  0.3555 -0.3747  0.0295
 7236TIP3   OH243122   2.302   2.131   4.238 -0.1204  0.6840 -0.4997
 7236TIP3    H143123   2.388   2.173   4.242 -0.0391  0.4921 -0.1486
 7236TIP3    H243124   2.318   2.042   4.268 -0.0691  0.0270 -2.3807
 7237TIP3   OH243125   2.318   6.174   4.849  0.7304 -0.3273  0.2109
 7237TIP3    H143126   2.274   6.255   4.875 -0.1116 -0.5211 -0.5353
 7237TIP3    H243127   2.303   6.114   4.922 -0.8127 -0.5815 -0.2747
 7238TIP3   OH243128   4.386   4.663  15.660  0.1972  0.1554 -0.0701
 7238TIP3    H143129   4.411   4.628  15.745 -0.3858 -0.5669 -0.1794
 7238TIP3    H243130   4.306   4.614  15.637 -0.1119  0.9189 -0.6544
 7239TIP3   OH243131   6.564   1.321  16.331 -0.1104  0.4089  0.0633
 7239TIP3    H143132   6.583   1.414  16.323  1.7126  0.1454  0.8049
 7239TIP3    H243133   6.574   1.287  16.242 -0.0300  0.7888 -0.0755
 7240TIP3   OH243134   2.272   3.390   2.432 -0.3464 -0.2161  0.1158
 7240TIP3    H143135   2.261   3.295   2.424 -0.8939 -0.0196 -1.8296
 7240TIP3    H243136   2.262   3.424   2.343  4.4881  1.2434 -0.1850
 7241TIP3   OH243137   2.185   1.429   4.830  0.4447  0.5676 -0.4321
 7241TIP3    H143138   2.225   1.508   4.793 -0.4149  0.4549 -1.6481
 7241TIP3    H243139   2.096   1.454   4.852 -0.0183 -0.1958 -1.3577
 7242TIP3   OH243140   0.226   0.929  14.385 -0.1201  0.0035  0.3255
 7242TIP3    H143141   0.312   0.932  14.426  2.0547 -3.8259 -3.1051
 7242TIP3    H243142   0.220   1.009  14.334  1.8642 -0.0181 -0.0099
 7243TIP3   OH243143   3.778   6.159   5.757 -0.2976 -0.0320  0.6283
 7243TIP3    H143144   3.824   6.075   5.747 -1.5411 -0.5581 -1.1169
 7243TIP3    H243145   3.738   6.153   5.844  1.0645 -0.4708  1.2695
 7244TIP3   OH243146   5.832   4.085  13.508  0.0108 -0.8316  0.3648
 7244TIP3    H143147   5.920   4.075  13.544  0.1949  1.3109  0.5967
 7244TIP3    H243148   5.792   3.999  13.521  2.0487 -1.8827  0.2279
 7245TIP3   OH243149   1.009   0.948  15.893 -0.4654  0.0893  0.6048
 7245TIP3    H143150   0.957   1.000  15.955 -2.5030 -2.0900  0.8990
 7245TIP3    H243151   0.947   0.926  15.824  0.7907 -0.5662 -0.3425
 7246TIP3   OH243152   4.264   4.633  14.556  0.1911 -0.0532 -0.6059
 7246TIP3    H143153   4.196   4.585  14.508 -0.1687  1.3790 -1.5951
 7246TIP3    H243154   4.324   4.663  14.488 -0.0617  1.6042 -0.1227
 7247TIP3   OH243155   1.890   0.626  12.181  0.3592 -0.1042  0.2326
 7247TIP3    H143156   1.886   0.540  12.221  0.7033 -1.9956 -3.3671
 7247TIP3    H243157   1.983   0.642  12.166  0.1651 -0.7608 -2.0965
 7248TIP3   OH243158   1.705   3.875   0.929 -0.0314 -0.0076 -0.0246
 7248TIP3    H143159   1.720   3.903   0.838  0.5432 -1.4235 -0.3897
 7248TIP3    H243160   1.632   3.814   0.924  0.0909 -0.1974  0.4396
 7249TIP3   OH243161   3.558   2.201  11.790 -0.6379  0.0826  0.5008
 7249TIP3    H143162   3.501   2.235  11.721 -0.0087  0.4099  0.1277
 7249TIP3    H243163   3.499   2.172  11.859 -1.5432 -3.1689 -1.4013
 7250TIP3   OH243164   1.597   0.912   3.712 -0.0118  0.3194 -0.1856
 7250TIP3    H143165   1.658   0.925   3.640 -1.6958  1.6023 -1.4663
 7250TIP3    H243166   1.532   0.850   3.678 -1.1229  1.3446  0.0055
 7251TIP3   OH243167   2.397   1.133  12.062  0.4597 -0.6422  1.0030
 7251TIP3    H143168   2.326   1.082  12.102 -0.2964  0.7051  1.4553
 7251TIP3    H243169   2.464   1.138  12.130  1.7619 -3.2590  0.0442
 7252TIP3   OH243170   6.020   0.357  13.798 -0.1806  0.0541 -0.5878
 7252TIP3    H143171   6.055   0.388  13.715  2.3968  0.6723  0.6284
 7252TIP3    H243172   6.040   0.426  13.861 -1.1051 -0.8416  0.7702
 7253TIP3   OH243173   4.601   4.052  14.703 -0.2008  0.1738 -0.5694
 7253TIP3    H143174   4.635   3.977  14.654 -1.2177  0.0195 -1.0644
 7253TIP3    H243175   4.644   4.046  14.788 -0.6714 -1.2868 -0.4122
 7254TIP3   OH243176   1.238   2.469   1.713 -0.1218  0.1385  0.0357
 7254TIP3    H143177   1.216   2.524   1.788 -1.7593  0.1356 -0.3978
 7254TIP3    H243178   1.164   2.478   1.653  2.1241  2.0148 -2.7376
 7255TIP3   OH243179   3.225   2.213   2.011  0.2736  0.5395  0.6564
 7255TIP3    H143180   3.186   2.188   2.095 -1.5939 -0.2482 -0.3893
 7255TIP3    H243181   3.172   2.287   1.982 -0.7166 -0.7244 -0.9261
 7256TIP3   OH243182   0.324   3.173  15.224 -0.5574 -0.0311  0.6278
 7256TIP3    H143183   0.396   3.124  15.183 -0.8697 -0.2075  0.2862
 7256TIP3    H243184   0.255   3.173  15.158 -0.3740  1.3314  0.4015
 7257TIP3   OH243185   3.825   2.535  11.545 -0.1848  0.3268  0.4146
 7257TIP3    H143186   3.808   2.490  11.463  0.4584  1.1101 -0.1679
 7257TIP3    H243187   3.872   2.471  11.599 -0.1445 -0.0172 -0.0255
 7258TIP3   OH243188   6.115   5.539   9.920  0.5612 -0.5323 -0.3729
 7258TIP3    H143189   6.166   5.619   9.907 -0.5725  0.0445 -1.3977
 7258TIP3    H243190   6.025   5.564   9.897  0.1185 -1.9850 -0.2762
 7259TIP3   OH243191   5.898   6.369   5.205  0.3920  0.0397  0.7567
 7259TIP3    H143192   5.955   6.425   5.152  1.4509 -0.9404  0.8128
 7259TIP3    H243193   5.958   6.325   5.267 -0.7195  0.6461  2.3261
 7260TIP3   OH243194   2.366   3.802  11.908 -0.2264 -0.1440 -0.3246
 7260TIP3    H143195   2.435   3.863  11.934 -1.4712  0.9272  0.5642
 7260TIP3    H243196   2.400   3.762  11.828  1.5242  0.1680  0.2062
 7261TIP3   OH243197   6.617   5.865  12.008  0.0112  0.2567 -0.4257
 7261TIP3    H143198   6.542   5.918  12.035 -1.1469 -1.6196  0.2154
 7261TIP3    H243199   6.605   5.782  12.052  1.9497 -0.4544 -1.1377
 7262TIP3   OH243200   2.008   4.603  11.718 -0.2037 -0.1252 -0.1388
 7262TIP3    H143201   1.996   4.697  11.703  3.0832  0.5816  0.8533
 7262TIP3    H243202   1.999   4.593  11.813 -1.0859 -0.9383 -0.3011
 7263TIP3   OH243203   0.825   2.678  13.924 -0.8473  0.5688  0.1176
 7263TIP3    H143204   0.886   2.637  13.862 -1.6513 -0.1005 -0.2491
 7263TIP3    H243205   0.879   2.697  14.001 -0.7941 -2.9844  1.1249
 7264TIP3   OH243206   2.924   4.058  13.909  0.1444 -0.8288 -0.0032
 7264TIP3    H143207   3.006   4.099  13.936 -0.6289 -0.8879  2.7038
 7264TIP3    H243208   2.942   3.964  13.913  0.8462 -0.8790 -2.6653
 7265TIP3   OH243209   4.349   2.138  10.715  0.5533  0.2944  0.0726
 7265TIP3    H143210   4.267   2.171  10.677  1.1243  1.5841 -0.0597
 7265TIP3    H243211   4.358   2.050  10.679 -0.5474  0.3014 -0.2594
 7266TIP3   OH243212   5.741   6.241   0.105 -0.2102 -0.0106  0.2062
 7266TIP3    H143213   5.755   6.231   0.199  1.1988  1.3612  0.1959
 7266TIP3    H243214   5.829   6.258   0.070 -0.9998  2.0061 -0.9808
 7267TIP3   OH243215   3.692   4.784  12.117 -0.0791  0.6088 -0.1295
 7267TIP3    H143216   3.640   4.777  12.037 -1.4536 -0.7975  0.8197
 7267TIP3    H243217   3.653   4.858  12.164  0.2979  1.0154 -0.4504
 7268TIP3   OH243218   0.730   0.174  14.701  0.1786  0.0927 -0.4718
 7268TIP3    H143219   0.759   0.127  14.622  0.7577 -1.4208  0.5946
 7268TIP3    H243220   0.696   0.105  14.758  0.9242  0.9704  1.0922
 7269TIP3   OH243221   5.878   2.733   1.302 -0.2099 -0.0157  0.0028
 7269TIP3    H143222   5.801   2.787   1.287 -0.0609  0.5364  1.0711
 7269TIP3    H243223   5.890   2.734   1.397  1.0648 -0.1518 -0.1330
 7270TIP3   OH243224   2.621   2.656  16.199  0.1895  0.3665  0.2969
 7270TIP3    H143225   2.533   2.691  16.196  0.1803  0.4200  1.0974
 7270TIP3    H243226   2.644   2.642  16.107 -1.0839 -0.7427  0.1099
 7271TIP3   OH243227   0.314   5.306  11.859 -0.3348 -0.6237  0.0447
 7271TIP3    H143228   0.234   5.316  11.807  0.2410 -0.6335 -0.8678
 7271TIP3    H243229   0.312   5.379  11.920 -1.5520 -1.2071  0.7396
 7272TIP3   OH243230   1.532   5.303  15.917  0.5154 -0.2185 -0.4643
 7272TIP3    H143231   1.583   5.324  15.995  0.1426 -1.9697  0.3029
 7272TIP3    H243232   1.462   5.246  15.949 -1.2016  1.0936 -1.6881
 7273TIP3   OH243233   5.421   6.226  15.423 -0.3027  0.1818 -0.6295
 7273TIP3    H143234   5.448   6.288  15.355  0.1674 -1.0015 -1.5569
 7273TIP3    H243235   5.449   6.141  15.390 -0.6099 -0.4938  0.7814
 7274TIP3   OH243236   6.500   5.614  12.868 -0.6959  0.1988  0.1585
 7274TIP3    H143237   6.419   5.566  12.853 -0.3014 -0.2785 -0.4970
 7274TIP3    H243238   6.497   5.687  12.807 -2.8756  3.1560  3.3662
 7275TIP3   OH243239   6.282   5.495   6.088 -0.1044  0.3173 -0.3525
 7275TIP3    H143240   6.333   5.556   6.142  0.0691 -0.2443  0.1212
 7275TIP3    H243241   6.215   5.550   6.047 -0.8482  0.5998  1.1654
 7276TIP3   OH243242   5.641   0.165   4.178  0.4891  0.5469  0.2396
 7276TIP3    H143243   5.704   0.149   4.248  2.1855  2.5764 -0.7047
 7276TIP3    H243244   5.605   0.252   4.197 -2.3940 -0.6860  0.9439
 7277TIP3   OH243245   2.148   5.551  16.571 -0.3651 -0.3362  0.3719
 7277TIP3    H143246   2.117   5.460  16.572 -0.0326 -0.4581  0.0688
 7277TIP3    H243247   2.137   5.579  16.480 -0.7625  0.0311  0.5352
 7278TIP3   OH243248   6.206   6.202  11.368 -0.0737  0.6957  0.7996
 7278TIP3    H143249   6.232   6.291  11.390  0.4568  1.0822 -1.2115
 7278TIP3    H243250   6.285   6.150  11.380  0.3685  1.0032 -0.5836
 7279TIP3   OH243251   5.812   3.575  14.369  0.1549  0.3652 -0.3012
 7279TIP3    H143252   5.852   3.649  14.415 -1.0015  1.8709 -1.6333
 7279TIP3    H243253   5.880   3.507  14.370  0.9545  1.1190  1.6511
 7280TIP3   OH243254   1.414   3.778  15.447  0.3588 -0.7370 -0.4090
 7280TIP3    H143255   1.427   3.754  15.539 -0.8806 -1.4466 -0.4002
 7280TIP3    H243256   1.356   3.855  15.451  1.6386  0.2706 -0.5603
 7281TIP3   OH243257   3.502   2.056   5.247  0.1874 -0.2170  0.2816
 7281TIP3    H143258   3.598   2.060   5.246  0.1911  0.1323  1.0021
 7281TIP3    H243259   3.477   2.049   5.155  0.8936  0.0391  0.0611
 7282TIP3   OH243260   2.417   5.139  13.482 -0.1269  0.3646  0.2086
 7282TIP3    H143261   2.407   5.216  13.425  1.9623  0.3712 -0.2081
 7282TIP3    H243262   2.402   5.065  13.424 -0.8931  0.4150  0.3299
 7283TIP3   OH243263   2.577   5.528  14.490  0.3634 -0.3595  0.5812
 7283TIP3    H143264   2.535   5.442  14.500  0.1385 -0.2246  0.8068
 7283TIP3    H243265   2.669   5.512  14.510  0.4575 -0.6923 -0.0703
 7284TIP3   OH243266   2.143   0.891   2.313 -1.0353 -0.3576 -0.4143
 7284TIP3    H143267   2.232   0.878   2.279 -0.5718  1.5563 -0.0618
 7284TIP3    H243268   2.146   0.854   2.401 -0.0638  1.1142  0.2153
 7285TIP3   OH243269   4.556   4.168   1.288 -0.2605  0.4637  0.5583
 7285TIP3    H143270   4.551   4.249   1.339  2.1232  0.4031  1.0008
 7285TIP3    H243271   4.555   4.098   1.353 -1.5780  0.1303  0.2154
 7286TIP3   OH243272   6.446   2.149   3.396 -0.1942  0.3680  0.0740
 7286TIP3    H143273   6.463   2.064   3.437  0.5855  1.0579  1.2439
 7286TIP3    H243274   6.502   2.210   3.443 -0.1463  1.4161 -1.2758
 7287TIP3   OH243275   4.765   4.091  11.302  0.1449 -0.1020 -0.0528
 7287TIP3    H143276   4.675   4.122  11.288 -0.1190 -0.5281  0.6315
 7287TIP3    H243277   4.806   4.095  11.216 -0.5789 -0.0521 -0.4026
 7288TIP3   OH243278   0.151   3.620  13.101 -0.2597  0.8089  0.2719
 7288TIP3    H143279   0.125   3.546  13.155 -0.9848 -0.9328 -2.3059
 7288TIP3    H243280   0.206   3.582  13.033 -0.3401  2.7055 -0.9136
 7289TIP3   OH243281   3.719   5.093   1.012 -0.3255  0.2717 -0.2717
 7289TIP3    H143282   3.712   5.027   0.944 -0.6337  1.3141 -1.2761
 7289TIP3    H243283   3.753   5.170   0.968 -0.3049  0.9038  0.8026
 7290TIP3   OH243284   6.107   3.521   3.805  0.3845 -0.3035  0.2117
 7290TIP3    H143285   6.055   3.440   3.805  0.7190 -0.5614 -1.9774
 7290TIP3    H243286   6.044   3.590   3.783  0.6446 -0.3852 -0.8059
 7291TIP3   OH243287   2.052   2.156   4.143 -0.2848 -0.3009  0.0944
 7291TIP3    H143288   2.136   2.119   4.170 -0.3089 -0.4605 -0.0470
 7291TIP3    H243289   1.988   2.089   4.166 -0.2682 -0.5777 -0.6661
 7292TIP3   OH243290   5.471   1.882  16.541 -0.3532  0.0078 -0.3575
 7292TIP3    H143291   5.530   1.855  16.471  0.2494  1.0997 -0.3007
 7292TIP3    H243292   5.476   1.811  16.605 -0.7173 -0.8810 -1.2975
 7293TIP3   OH243293   4.015   4.051   2.224 -0.4485  0.3288 -0.3737
 7293TIP3    H143294   3.979   4.078   2.139 -1.2643 -0.8945 -0.4506
 7293TIP3    H243295   3.939   4.048   2.282 -0.3112 -1.1571 -0.2305
 7294TIP3   OH243296   0.030   2.764   6.370 -0.3318  0.0023  0.0967
 7294TIP3    H143297   0.001   2.839   6.319 -0.5480 -1.1290 -1.5301
 7294TIP3    H243298   0.114   2.739   6.331  0.1142 -0.1467  1.1145
 7295TIP3   OH243299   4.543   1.870  15.357 -0.3672  0.2287 -0.0327
 7295TIP3    H143300   4.602   1.922  15.302 -1.4041 -1.3234 -2.7945
 7295TIP3    H243301   4.596   1.847  15.434  2.1932  0.0047 -1.7565
 7296TIP3   OH243302   5.796   4.264   6.116 -0.0204 -0.6363 -0.5154
 7296TIP3    H143303   5.831   4.185   6.157  0.1046 -0.2300  0.1777
 7296TIP3    H243304   5.760   4.315   6.189  1.5023  0.7603 -0.6975
 7297TIP3   OH243305   1.997   6.375  12.752  0.6829 -0.5171 -0.3218
 7297TIP3    H143306   2.026   6.421  12.831  2.3803  0.5719 -1.4930
 7297TIP3    H243307   1.936   6.309  12.784 -0.5040  1.3819  1.6473
 7298TIP3   OH243308   4.478   3.185   3.286  0.3053  0.2261  0.4954
 7298TIP3    H143309   4.475   3.143   3.200  1.9059 -0.2228  0.6234
 7298TIP3    H243310   4.393   3.164   3.326  0.5810 -1.9361  0.0884
 7299TIP3   OH243311   1.555   0.888   6.384  0.0907 -1.1895 -0.3271
 7299TIP3    H143312   1.464   0.865   6.406  0.1175  0.0414  1.2217
 7299TIP3    H243313   1.547   0.974   6.343  0.6921 -0.1465  1.6399
 7300TIP3   OH243314   0.764   5.757  15.337 -0.2150 -0.2731  0.0885
 7300TIP3    H143315   0.683   5.800  15.312  0.7133  0.8547 -1.1831
 7300TIP3    H243316   0.821   5.828  15.366 -0.0698 -1.1856  2.1839
 7301TIP3   OH243317   1.714   4.862  12.923 -0.2084 -0.2879 -0.0457
 7301TIP3    H143318   1.625   4.888  12.898 -0.3251 -0.3768  0.2721
 7301TIP3    H243319   1.727   4.903  13.009  0.3744  0.4467 -0.4713
 7302TIP3   OH243320   3.697   1.284   1.348  0.1654  0.0698  0.1440
 7302TIP3    H143321   3.728   1.247   1.431 -2.0915  1.1575  1.5866
 7302TIP3    H243322   3.630   1.222   1.318  1.0926 -0.4134 -1.0349
 7303TIP3   OH243323   4.310   1.033   4.913  0.5024  0.7416  0.0271
 7303TIP3    H143324   4.382   1.094   4.932  1.1071 -0.1610  0.7241
 7303TIP3    H243325   4.300   0.982   4.993  0.6940 -0.7595 -0.8676
 7304TIP3   OH243326   4.699   0.080  13.825 -0.6142  0.2632 -0.2897
 7304TIP3    H143327   4.605   0.094  13.820 -0.6014 -0.1698 -2.1210
 7304TIP3    H243328   4.712  -0.010  13.796  0.1218 -0.8148  2.9581
 7305TIP3   OH243329   0.527   4.897  16.560 -0.6333 -0.0986  0.1967
 7305TIP3    H143330   0.538   4.991  16.578 -0.5780  0.2040 -1.2689
 7305TIP3    H243331   0.499   4.860  16.643 -2.8693  1.5857  0.2967
 7306TIP3   OH243332   1.627   1.521  14.436  0.5560 -0.4327  0.2508
 7306TIP3    H143333   1.547   1.571  14.420  1.2454  0.4111 -0.6884
 7306TIP3    H243334   1.638   1.522  14.531 -1.0524 -1.3996  0.4867
 7307TIP3   OH243335   3.905   4.737   5.909  0.2963  0.2859 -0.2821
 7307TIP3    H143336   3.879   4.665   5.851  0.1558 -0.3571  0.5647
 7307TIP3    H243337   3.836   4.740   5.976 -0.3002  1.9283 -0.8987
 7308TIP3   OH243338   4.408   6.380   3.553 -0.8985 -0.3843  0.2028
 7308TIP3    H143339   4.457   6.377   3.635  0.3759 -2.2397 -0.5649
 7308TIP3    H243340   4.471   6.411   3.488 -0.8975 -2.0535 -0.6536
 7309TIP3   OH243341   1.140   6.115  15.275  0.1548 -0.2875  0.3816
 7309TIP3    H143342   1.090   6.039  15.245 -0.1600  0.8442 -2.2648
 7309TIP3    H243343   1.077   6.187  15.276  1.1290  0.6246 -0.5463
 7310TIP3   OH243344   0.034   4.289  12.389  0.2371 -0.4139  0.5376
 7310TIP3    H143345   0.054   4.200  12.418 -0.6251 -1.1144 -0.9586
 7310TIP3    H243346   0.032   4.284  12.294 -2.9162  0.4900  0.4693
 7311TIP3   OH243347   4.607   1.231  13.919 -0.4305 -0.6218 -0.2864
 7311TIP3    H143348   4.629   1.164  13.984  1.9157  0.5785  0.2594
 7311TIP3    H243349   4.650   1.310  13.950 -1.7957  0.7688 -1.7547
 7312TIP3   OH243350   2.465   5.871  15.929  0.8426  0.3257 -0.0271
 7312TIP3    H143351   2.546   5.821  15.934  1.3152  1.0775 -0.0528
 7312TIP3    H243352   2.443   5.872  15.836 -0.5623 -1.9803  0.1829
 7313TIP3   OH243353   3.882   5.920  15.060  0.0230  0.2089 -0.4975
 7313TIP3    H143354   3.796   5.937  15.023 -0.4490 -0.2009  0.3768
 7313TIP3    H243355   3.880   5.964  15.145  0.7244  0.3039 -0.5246
 7314TIP3   OH243356   5.074   6.616  15.260 -0.3097  0.0908  0.1083
 7314TIP3    H143357   4.992   6.662  15.274 -0.0345  0.2892  1.1662
 7314TIP3    H243358   5.074   6.592  15.167  0.1757  3.4773 -0.8810
 7315TIP3   OH243359   4.434   2.650  15.894 -0.1423 -0.2256 -0.0937
 7315TIP3    H143360   4.429   2.555  15.900  1.8458 -0.5538 -2.0293
 7315TIP3    H243361   4.505   2.674  15.954  0.5677 -0.2237 -0.9046
 7316TIP3   OH243362   0.167   3.544   2.159  0.0680  0.1073  0.1986
 7316TIP3    H143363   0.089   3.502   2.123 -0.0627  1.6107 -1.3767
 7316TIP3    H243364   0.137   3.629   2.190  0.8794  0.2550  0.6091
 7317TIP3   OH243365   2.296   1.576   1.427 -0.8900  0.0199 -0.3377
 7317TIP3    H143366   2.323   1.603   1.339  0.2793  2.0583  0.5720
 7317TIP3    H243367   2.368   1.604   1.484 -0.9869 -2.4561  1.1619
 7318TIP3   OH243368   3.099   2.715  13.840  0.0691 -0.6793  0.3628
 7318TIP3    H143369   3.138   2.782  13.896  0.9910 -1.8672  1.2058
 7318TIP3    H243370   3.039   2.668  13.899  0.5653 -1.5369  0.1945
 7319TIP3   OH243371   0.375   6.797   0.419 -0.0831  0.5547 -0.2206
 7319TIP3    H143372   0.410   6.798   0.508  1.2405  1.3352 -0.7302
 7319TIP3    H243373   0.280   6.808   0.431  0.0315  0.3012  1.0932
 7320TIP3   OH243374   5.901   2.660  14.456  0.2099 -0.1883 -0.0946
 7320TIP3    H143375   5.969   2.721  14.429  0.8591  1.0960  3.7453
 7320TIP3    H243376   5.819   2.709  14.446  0.7111  1.5054  2.7921
 7321TIP3   OH243377   2.079   3.573   4.604 -0.3935 -0.3009 -0.1467
 7321TIP3    H143378   2.057   3.493   4.556 -1.7071 -0.3440  0.4761
 7321TIP3    H243379   2.004   3.631   4.589 -0.0944  0.2769  0.5637
 7322TIP3   OH243380   4.922   4.099   4.973  0.0638 -0.2598  0.2211
 7322TIP3    H143381   4.924   4.087   4.878 -1.1837 -0.4795  0.2175
 7322TIP3    H243382   4.852   4.042   5.004  1.7077 -1.6931  1.5139
 7323TIP3   OH243383   4.946   4.492   4.423  0.8012  0.1412  0.4786
 7323TIP3    H143384   4.939   4.565   4.363 -0.6144 -0.3209  0.0338
 7323TIP3    H243385   4.948   4.532   4.510  2.0254  0.7679  0.1904
 7324TIP3   OH243386   2.529   3.821   0.436  0.1494  0.2698  0.2321
 7324TIP3    H143387   2.523   3.779   0.350 -2.6064  0.4340  0.2787
 7324TIP3    H243388   2.534   3.749   0.498 -1.7313 -0.0040  0.1267
 7325TIP3   OH243389   6.460   5.396  11.581  0.1232 -0.2676 -0.5715
 7325TIP3    H143390   6.527   5.337  11.613 -0.8897 -0.9299  0.4041
 7325TIP3    H243391   6.432   5.358  11.498  1.7120  0.6388 -1.5698
 7326TIP3   OH243392   5.544   6.738   3.020  0.7560 -0.1906 -0.6035
 7326TIP3    H143393   5.598   6.802   3.067 -2.1426  3.1525 -1.3422
 7326TIP3    H243394   5.486   6.703   3.087  0.5809  0.0335 -0.6344
 7327TIP3   OH243395   1.584   6.665   0.611  0.4382  0.5319  0.2757
 7327TIP3    H143396   1.501   6.690   0.650  0.2797 -0.8485  0.9054
 7327TIP3    H243397   1.586   6.709   0.527 -0.2646  1.7440  0.8716
 7328TIP3   OH243398   3.905   1.742   5.455  0.3044  0.2578  0.7576
 7328TIP3    H143399   3.830   1.720   5.510 -0.2204 -2.8629 -0.9686
 7328TIP3    H243400   3.981   1.711   5.505 -0.1992 -2.9722 -0.2062
 7329TIP3   OH243401   0.422   1.788  16.148 -0.4208  0.2597 -0.4647
 7329TIP3    H143402   0.376   1.862  16.189 -0.9262 -1.3493  2.0873
 7329TIP3    H243403   0.373   1.711  16.176  1.8547 -1.2872 -0.4641
 7330TIP3   OH243404   0.965   3.090   3.636  0.1402 -0.1965 -0.0682
 7330TIP3    H143405   0.917   3.012   3.607 -0.9759  1.2090 -2.2665
 7330TIP3    H243406   1.048   3.085   3.588  0.7755 -0.8251  1.0516
 7331TIP3   OH243407   0.611   4.781  15.556 -0.6524  0.3919 -0.8489
 7331TIP3    H143408   0.597   4.806  15.464 -1.6552  1.1436 -0.5176
 7331TIP3    H243409   0.569   4.696  15.564 -1.2652  0.6795 -0.9130
 7332TIP3   OH243410   0.747   1.219   4.207 -0.1534  0.1388 -0.2556
 7332TIP3    H143411   0.833   1.205   4.246  0.5093  2.0564 -0.9082
 7332TIP3    H243412   0.698   1.267   4.275 -1.2244 -2.0935  0.6437
 7333TIP3   OH243413   1.448   3.876  16.293 -0.0983  0.2536 -0.7849
 7333TIP3    H143414   1.499   3.796  16.284  0.2149  0.5300 -1.6518
 7333TIP3    H243415   1.411   3.891  16.206 -1.4875  0.1841 -0.2364
 7334TIP3   OH243416   5.750   1.641   4.777  0.2661 -0.0081 -0.6252
 7334TIP3    H143417   5.708   1.726   4.783  0.2887 -0.0559  0.4328
 7334TIP3    H243418   5.843   1.660   4.775  0.3875 -0.0481  1.8606
 7335TIP3   OH243419   5.499   3.258   2.500  0.0438 -0.2044  0.0170
 7335TIP3    H143420   5.564   3.261   2.430 -0.8031  0.7273 -0.7694
 7335TIP3    H243421   5.537   3.308   2.571  0.1551  0.4290 -0.4785
 7336TIP3   OH243422   6.342   3.186  12.858 -0.0480 -0.2507  0.0335
 7336TIP3    H143423   6.273   3.134  12.900  0.5841 -0.6403  0.6110
 7336TIP3    H243424   6.319   3.186  12.765 -1.6843  0.9265  0.3876
 7337TIP3   OH243425   4.714   0.587   4.654  0.1332 -0.4197  0.2107
 7337TIP3    H143426   4.787   0.628   4.608 -0.2426  0.3486  0.2826
 7337TIP3    H243427   4.727   0.610   4.746 -1.3321  1.5923 -0.0049
 7338TIP3   OH243428   5.247   5.599   2.064 -0.1736  0.0112 -0.5049
 7338TIP3    H143429   5.203   5.524   2.104  0.1990  0.7190  1.3215
 7338TIP3    H243430   5.321   5.617   2.122  0.3015  1.2118 -1.4391
 7339TIP3   OH243431   6.651   1.484  14.550  0.1680 -0.1161 -0.2248
 7339TIP3    H143432   6.704   1.404  14.545  1.2692  0.6732 -2.5379
 7339TIP3    H243433   6.696   1.539  14.614  0.8656 -0.3338 -0.5214
 7340TIP3   OH243434   5.166   5.951   4.741  0.2049 -0.3621 -0.5027
 7340TIP3    H143435   5.142   6.024   4.798  2.6198 -0.5077  0.8625
 7340TIP3    H243436   5.258   5.966   4.720 -0.0624 -1.4142 -2.7719
 7341TIP3   OH243437   3.288   1.578  13.367  0.4203  0.3529  0.7553
 7341TIP3    H143438   3.206   1.578  13.317  1.5845  1.3352 -1.2938
 7341TIP3    H243439   3.282   1.655  13.423 -0.5654 -0.2976  1.5703
 7342TIP3   OH243440   2.365   4.866  16.099  0.0780 -0.5888  0.3517
 7342TIP3    H143441   2.336   4.951  16.133 -1.0231 -0.6515 -0.3828
 7342TIP3    H243442   2.448   4.885  16.056 -0.3917  0.2362 -0.2331
 7343TIP3   OH243443   2.041   3.946   5.118 -0.2265  0.2385 -0.6812
 7343TIP3    H143444   2.032   4.041   5.121 -1.0003  0.1720 -0.6819
 7343TIP3    H243445   2.021   3.922   5.028 -1.6898 -0.0616 -0.3104
 7344TIP3   OH243446   4.161   2.896  11.864 -0.0505  0.4836 -0.1667
 7344TIP3    H143447   4.187   2.862  11.949  2.5610 -1.4797 -1.6084
 7344TIP3    H243448   4.068   2.871  11.855  0.5570 -2.4636  0.7091
 7345TIP3   OH243449   5.319   6.695   0.273 -0.5627  0.0222 -0.2292
 7345TIP3    H143450   5.300   6.788   0.290 -1.0376  0.0794 -1.0245
 7345TIP3    H243451   5.350   6.661   0.357 -0.0532  0.9805 -0.0085
 7346TIP3   OH243452   3.995   5.652  10.906 -0.1529  0.2847 -0.1646
 7346TIP3    H143453   4.073   5.704  10.929 -0.3618  0.3199  0.4683
 7346TIP3    H243454   4.018   5.612  10.822 -0.3708  2.2222 -1.2165
 7347TIP3   OH243455   6.271   2.497   3.073 -0.1927 -0.1919  0.2338
 7347TIP3    H143456   6.279   2.498   3.168 -0.2363  0.2268  0.2323
 7347TIP3    H243457   6.349   2.543   3.042  1.1640 -2.4684 -0.0289
 7348TIP3   OH243458   6.800   3.802  14.742  0.7763 -0.2711 -0.4876
 7348TIP3    H143459   6.707   3.816  14.724  0.4500  0.6625  1.6808
 7348TIP3    H243460   6.805   3.714  14.781  1.3283 -1.7762 -3.6099
 7349TIP3   OH243461   1.583   1.819   3.815 -0.0539 -0.5274  0.6378
 7349TIP3    H143462   1.632   1.749   3.859  1.6724  0.0563 -0.2513
 7349TIP3    H243463   1.582   1.794   3.723  1.6533  1.1446  0.1008
 7350TIP3   OH243464   6.020   6.769   2.486 -0.3008  0.3909  0.2063
 7350TIP3    H143465   5.943   6.795   2.435  0.2521 -0.4664 -1.1137
 7350TIP3    H243466   6.018   6.825   2.563 -0.9227  2.0538 -0.9752
 7351TIP3   OH243467   5.847   1.047  16.985  0.1099 -0.6772  0.3757
 7351TIP3    H143468   5.825   0.955  16.996 -0.0095 -1.0183 -2.0873
 7351TIP3    H243469   5.893   1.050  16.901  1.6696  1.2766  1.2251
 7352TIP3   OH243470   5.706   1.157   3.794  0.3080 -0.4469 -0.0613
 7352TIP3    H143471   5.723   1.233   3.850  1.6542  0.0440 -1.0839
 7352TIP3    H243472   5.628   1.182   3.744  1.3247  0.7351 -1.1298
 7353TIP3   OH243473   4.299   6.105   1.449  0.3075  0.1402  0.5378
 7353TIP3    H143474   4.375   6.083   1.396  1.0437  2.7805  0.3301
 7353TIP3    H243475   4.240   6.030   1.440  2.3708 -1.4711 -0.2261
 7354TIP3   OH243476   0.179   0.693  15.169  0.0109 -0.3513  0.0843
 7354TIP3    H143477   0.225   0.661  15.092 -0.7170  0.5402 -0.7416
 7354TIP3    H243478   0.096   0.728  15.135  0.2654  1.3142  1.0670
 7355TIP3   OH243479   3.116   1.168  12.062 -0.0822  0.8848  0.0445
 7355TIP3    H143480   3.067   1.233  12.113  1.7536  1.1776  1.5891
 7355TIP3    H243481   3.199   1.160  12.109  0.2811 -1.5937 -0.8948
 7356TIP3   OH243482   1.899   2.611   0.260  0.1357 -0.0470  0.2735
 7356TIP3    H143483   1.960   2.685   0.270  1.6302 -1.3494  1.1748
 7356TIP3    H243484   1.954   2.533   0.264 -1.6478 -1.3343  1.9124
 7357TIP3   OH243485   0.787   5.176  11.118  0.1278 -0.2306 -0.0935
 7357TIP3    H143486   0.762   5.241  11.051  0.5575 -0.2874 -0.3069
 7357TIP3    H243487   0.708   5.166  11.171 -0.4848 -0.7988 -1.0843
 7358TIP3   OH243488   3.524   5.872  15.871 -0.5496 -0.2341  0.8294
 7358TIP3    H143489   3.549   5.830  15.953 -1.1248 -0.0671  1.0962
 7358TIP3    H243490   3.599   5.860  15.814  0.6732  1.3795  2.0178
 7359TIP3   OH243491   6.710   5.535   1.177  0.5834 -0.0685  0.0443
 7359TIP3    H143492   6.729   5.457   1.123 -2.2252 -0.6986 -0.1512
 7359TIP3    H243493   6.640   5.580   1.130  0.8327  1.5582  1.1665
 7360TIP3   OH243494   6.245   5.266   2.730  0.7232 -0.1802 -0.7588
 7360TIP3    H143495   6.258   5.265   2.635  0.8076  0.5726 -0.7593
 7360TIP3    H243496   6.330   5.241   2.766  0.9518  0.4268 -0.8643
 7361TIP3   OH243497   5.732   2.107  11.605  0.1464 -0.4543  0.1525
 7361TIP3    H143498   5.758   2.042  11.671  0.1639  0.4267  1.0281
 7361TIP3    H243499   5.813   2.130  11.561  0.4228  0.1958  0.9741
 7362TIP3   OH243500   0.234   4.067   3.346 -0.2457 -0.1166 -0.4893
 7362TIP3    H143501   0.287   4.112   3.279 -0.5989  1.5170  0.2609
 7362TIP3    H243502   0.256   4.112   3.427 -0.8398 -1.1687  0.2691
 7363TIP3   OH243503   5.550   5.296  13.964  0.3225 -0.2552 -0.2995
 7363TIP3    H143504   5.614   5.248  14.018 -0.4584 -0.3644  0.5637
 7363TIP3    H243505   5.518   5.230  13.902  1.0573 -0.1929 -0.7557
 7364TIP3   OH243506   4.599   6.039   5.539 -0.1976  0.1724 -0.2498
 7364TIP3    H143507   4.545   6.047   5.617  0.0162 -1.5893  0.1072
 7364TIP3    H243508   4.574   6.114   5.484 -1.5922  0.4552  0.7394
 7365TIP3   OH243509   2.218   4.917   0.565  0.5172  0.7774 -0.3387
 7365TIP3    H143510   2.163   4.910   0.486 -2.4517 -0.2039  1.6562
 7365TIP3    H243511   2.213   5.010   0.588 -3.0349  0.3327  1.4213
 7366TIP3   OH243512   6.111   0.804   3.911 -0.2456  1.0660 -0.2053
 7366TIP3    H143513   6.029   0.789   3.863  0.4261 -2.6254 -0.4821
 7366TIP3    H243514   6.082   0.827   3.999 -1.6551 -0.2680 -0.2737
 7367TIP3   OH243515   2.181   0.953  16.680  0.2514  0.7506  0.0070
 7367TIP3    H143516   2.123   0.914  16.615  1.4521 -0.5597 -0.3262
 7367TIP3    H243517   2.191   0.885  16.747 -0.0653  1.6552  0.9982
 7368TIP3   OH243518   3.068   6.691  14.947  0.3713  0.7658  0.0113
 7368TIP3    H143519   3.081   6.598  14.933  1.9712  0.8429  0.7002
 7368TIP3    H243520   3.007   6.718  14.878 -0.5752 -0.8794  0.1666
 7369TIP3   OH243521   2.541   3.005   4.381  0.4928  0.1634  0.2214
 7369TIP3    H143522   2.527   3.063   4.306  0.7468  0.6221  0.5227
 7369TIP3    H243523   2.587   3.059   4.445 -0.6648  0.1080  1.1465
 7370TIP3   OH243524   4.288   2.750   3.963 -0.2163  0.5942  0.1371
 7370TIP3    H143525   4.267   2.807   4.038  0.3354  0.3287  0.5031
 7370TIP3    H243526   4.204   2.736   3.919 -0.7275  0.0169  1.2367
 7371TIP3   OH243527   1.835   6.261   2.483  0.4102 -0.2068  0.3382
 7371TIP3    H143528   1.743   6.233   2.488  0.3604 -0.5316 -1.6963
 7371TIP3    H243529   1.883   6.181   2.461  1.0882  0.1159  0.6253
 7372TIP3   OH243530   0.026   2.228  12.726  0.4161 -0.7672  0.1227
 7372TIP3    H143531   0.019   2.134  12.707  1.2451 -0.8527  0.1734
 7372TIP3    H243532   0.118   2.249  12.706  0.5837 -0.2555  1.3735
 7373TIP3   OH243533   0.717   1.982  15.570 -0.2074  0.9928 -0.2823
 7373TIP3    H143534   0.701   2.076  15.560 -0.2811  1.2098  1.5279
 7373TIP3    H243535   0.633   1.947  15.597 -0.1900  0.3720 -1.0012
 7374TIP3   OH243536   4.890   2.359   1.072 -0.2246 -0.3084 -0.5783
 7374TIP3    H143537   4.873   2.452   1.055  0.3011 -0.7918 -4.9943
 7374TIP3    H243538   4.984   2.356   1.094 -0.1771  0.1547 -0.7099
 7375TIP3   OH243539   5.991   0.577   3.017  0.4805 -0.1926 -0.1956
 7375TIP3    H143540   5.947   0.497   2.987 -0.1144  0.4396 -1.0236
 7375TIP3    H243541   5.948   0.598   3.100  1.5190 -1.4302  0.7157
 7376TIP3   OH243542   0.545   0.227   5.331  0.0607  0.1903  0.3870
 7376TIP3    H143543   0.586   0.313   5.329  0.4601  0.0060 -1.7084
 7376TIP3    H243544   0.588   0.181   5.402  2.1528  0.6588 -0.5159
 7377TIP3   OH243545   1.325   3.165   4.818  0.4035  0.2352 -0.2691
 7377TIP3    H143546   1.360   3.236   4.764 -1.1508  0.5548 -0.8932
 7377TIP3    H243547   1.361   3.085   4.779 -0.6580  0.4612 -1.7953
 7378TIP3   OH243548   3.825   4.247  11.055  0.2648  0.5354  0.2992
 7378TIP3    H143549   3.731   4.231  11.068  0.1931  1.5764  1.2942
 7378TIP3    H243550   3.829   4.322  10.995  0.4529  0.4977  0.2648
 7379TIP3   OH243551   4.173   5.289   2.360  0.2322  0.2522 -0.4263
 7379TIP3    H143552   4.177   5.384   2.353  1.3065  0.1200 -2.2689
 7379TIP3    H243553   4.122   5.262   2.283  2.0329 -0.7672 -1.3136
 7380TIP3   OH243554   1.272   0.863  15.868 -0.0694  0.8018 -0.1096
 7380TIP3    H143555   1.183   0.899  15.869 -0.3688  0.1918 -1.6037
 7380TIP3    H243556   1.300   0.871  15.777  1.9089  2.0872  0.5425
 7381TIP3   OH243557   2.360   1.918  13.911  0.3371  0.2144 -0.3256
 7381TIP3    H143558   2.449   1.953  13.923  0.3311  0.0108  0.3892
 7381TIP3    H243559   2.312   1.990  13.870  0.6299  0.6153  0.0190
 7382TIP3   OH243560   4.995   1.405   5.896  0.1090 -0.0941  0.2067
 7382TIP3    H143561   4.904   1.417   5.921  0.0450 -0.1465 -0.0012
 7382TIP3    H243562   5.026   1.493   5.874  0.5425  0.1622  1.7203
 7383TIP3   OH243563   2.197   2.050  11.051  0.0096  0.2467 -0.2785
 7383TIP3    H143564   2.108   2.056  11.018  0.4045 -1.8949 -2.0280
 7383TIP3    H243565   2.250   2.096  10.985  0.3653 -0.2056 -0.3195
 7384TIP3   OH243566   1.305   4.116  11.508  0.1659  0.4951 -0.6149
 7384TIP3    H143567   1.365   4.079  11.443  1.1999  1.4188 -0.2135
 7384TIP3    H243568   1.342   4.201  11.529  0.0199  0.0986  1.4130
 7385TIP3   OH243569   1.787   6.787  12.046  0.1450  0.3205  1.1798
 7385TIP3    H143570   1.797   6.806  11.953 -2.0141  2.2341  1.2632
 7385TIP3    H243571   1.765   6.694  12.049 -1.0921  0.5322 -0.3636
 7386TIP3   OH243572   4.841   0.821  13.164  0.1625 -0.3104  0.0659
 7386TIP3    H143573   4.802   0.847  13.248 -1.1222 -2.4343  0.2115
 7386TIP3    H243574   4.910   0.885  13.149  0.1008  0.4477  2.5001
 7387TIP3   OH243575   5.423   4.281   6.586  0.6196 -0.3965  0.1074
 7387TIP3    H143576   5.371   4.214   6.630  0.9980 -1.1419 -0.5684
 7387TIP3    H243577   5.503   4.236   6.559 -0.1531 -0.3523 -2.5455
 7388TIP3   OH243578   0.262   3.110  14.198 -0.0637  0.6261 -0.3489
 7388TIP3    H143579   0.329   3.141  14.138 -0.4821  2.8197  0.2324
 7388TIP3    H243580   0.190   3.083  14.142  1.1982 -1.7182 -0.9790
 7389TIP3   OH243581   5.556   2.623   1.511 -0.2830 -0.3621 -0.5455
 7389TIP3    H143582   5.560   2.675   1.431 -1.2830 -2.6269 -2.1621
 7389TIP3    H243583   5.483   2.662   1.560  1.8462  2.6142  0.5913
 7390TIP3   OH243584   3.297   4.574   1.571  0.6602  0.4907  0.3138
 7390TIP3    H143585   3.286   4.503   1.507  0.8424 -0.8948  1.7476
 7390TIP3    H243586   3.247   4.647   1.535 -2.6837 -1.4979  0.4754
 7391TIP3   OH243587   4.338   1.960   5.585 -0.5447  0.0430 -0.1767
 7391TIP3    H143588   4.406   1.916   5.535 -2.7517 -1.5914 -2.0035
 7391TIP3    H243589   4.300   2.023   5.524 -0.5008  1.1489  0.9017
 7392TIP3   OH243590   5.155   4.917   5.681 -0.6924 -0.0669 -0.0421
 7392TIP3    H143591   5.173   4.852   5.749  1.9729 -1.0550 -1.5413
 7392TIP3    H243592   5.240   4.958   5.664 -1.3221  0.3405 -2.5503
 7393TIP3   OH243593   2.238   4.777   3.042  0.4265 -0.5323 -0.1183
 7393TIP3    H143594   2.200   4.857   3.005  1.6532  0.8096  1.3827
 7393TIP3    H243595   2.195   4.706   2.994  0.2965  1.0196 -2.4860
 7394TIP3   OH243596   6.346   3.077   5.868 -0.6183 -0.7035  0.2349
 7394TIP3    H143597   6.419   3.057   5.927 -1.3028 -0.2567  1.2668
 7394TIP3    H243598   6.385   3.128   5.798  0.3119 -1.7028 -0.0075
 7395TIP3   OH243599   5.393   6.695  10.497 -0.2699  0.0106  0.5364
 7395TIP3    H143600   5.460   6.751  10.538  2.0846 -1.7460 -0.6176
 7395TIP3    H243601   5.399   6.715  10.404 -1.6890  0.0982  0.4438
 7396TIP3   OH243602   3.423   3.706   3.603 -0.9041  0.4393  0.6200
 7396TIP3    H143603   3.360   3.759   3.652 -1.7276  1.2891 -1.2331
 7396TIP3    H243604   3.382   3.694   3.517  1.4209  0.9656 -0.6533
 7397TIP3   OH243605   1.825   0.383  13.250  0.2965 -0.6889  0.0191
 7397TIP3    H143606   1.736   0.411  13.225  0.3635  0.1620  0.6779
 7397TIP3    H243607   1.811   0.303  13.301 -0.3248  0.6616  2.0918
 7398TIP3   OH243608   3.860   6.364   0.963  0.5794  0.5975 -0.8110
 7398TIP3    H143609   3.934   6.420   0.989  2.2751 -0.8999 -2.1101
 7398TIP3    H243610   3.897   6.276   0.959 -1.3359 -0.2346 -1.4107
 7399TIP3   OH243611   6.358   5.295  15.455  0.2354  0.7471 -0.2440
 7399TIP3    H143612   6.450   5.321  15.447  0.1220  0.7315 -1.7689
 7399TIP3    H243613   6.309   5.373  15.429 -0.1535  0.3269 -0.7977
 7400TIP3   OH243614   4.262   6.589   4.552  0.2102 -0.0449 -0.2142
 7400TIP3    H143615   4.250   6.639   4.471 -1.3124 -0.7753 -0.4598
 7400TIP3    H243616   4.175   6.586   4.592  0.7643 -0.4706  1.0041
 7401TIP3   OH243617   2.929   6.113   1.254 -0.3213 -0.3446 -0.3963
 7401TIP3    H143618   2.962   6.111   1.344 -1.1463 -0.6674 -0.0947
 7401TIP3    H243619   2.901   6.023   1.236  2.1186 -0.9168 -1.8703
 7402TIP3   OH243620   5.472   4.918  12.185 -0.1848 -0.0876  0.4150
 7402TIP3    H143621   5.385   4.880  12.180 -0.0290 -0.3958 -0.0836
 7402TIP3    H243622   5.510   4.901  12.099  0.1346  0.6077  0.4159
 7403TIP3   OH243623   5.367   6.371   2.420  0.0979 -0.1382  0.5801
 7403TIP3    H143624   5.398   6.353   2.509  1.7737  2.9921  0.7810
 7403TIP3    H243625   5.396   6.461   2.402 -1.9503  0.0797 -2.4033
 7404TIP3   OH243626   3.997   1.628  11.562  0.1820 -0.1205 -0.7663
 7404TIP3    H143627   4.012   1.533  11.565 -0.0311 -0.2367 -2.3779
 7404TIP3    H243628   3.930   1.644  11.627 -2.1818 -1.6216 -2.6562
 7405TIP3   OH243629   0.495   1.255  15.782 -0.0170 -0.0151 -0.3614
 7405TIP3    H143630   0.570   1.196  15.788  0.5824  0.6706 -0.9681
 7405TIP3    H243631   0.507   1.317  15.854 -0.2809 -0.2127 -0.1443
 7406TIP3   OH243632   3.126   1.318  16.856  0.8334 -0.3466 -0.5258
 7406TIP3    H143633   3.071   1.334  16.933  1.9540  1.2561 -0.0041
 7406TIP3    H243634   3.072   1.346  16.782  0.7756  0.8665 -0.0556
 7407TIP3   OH243635   0.240   3.677   2.966 -0.0598  0.1339  0.2780
 7407TIP3    H143636   0.257   3.584   2.983 -0.2651  0.0388 -0.0305
 7407TIP3    H243637   0.187   3.706   3.040  1.8532  0.5702  1.5573
 7408TIP3   OH243638   5.598   5.382  11.366  0.2229 -0.4671 -0.5848
 7408TIP3    H143639   5.559   5.438  11.299 -0.1485 -1.7859 -1.5095
 7408TIP3    H243640   5.683   5.357  11.331  0.9455  0.5127  0.3937
 7409TIP3   OH243641   1.073   1.934  16.858 -0.0806  0.2460 -0.0266
 7409TIP3    H143642   1.022   1.926  16.939  1.2622  0.3575  0.8558
 7409TIP3    H243643   1.013   1.905  16.790 -0.6728 -1.6115  1.1952
 7410TIP3   OH243644   6.373   2.396   2.596 -0.5452  0.0124  0.4033
 7410TIP3    H143645   6.284   2.364   2.577 -0.1107  0.4648 -3.1514
 7410TIP3    H243646   6.430   2.335   2.549  0.6035  2.7416 -2.0559
 7411TIP3   OH243647   6.427   5.050   1.424 -1.0747 -0.1301 -0.1898
 7411TIP3    H143648   6.481   5.052   1.503 -1.0519  1.0458 -0.2145
 7411TIP3    H243649   6.403   5.141   1.409 -1.5233 -0.4027 -1.2438
 7412TIP3   OH243650   0.471   3.607   0.457  0.4560  0.0017 -0.2358
 7412TIP3    H143651   0.493   3.677   0.519  0.6311 -0.4253  0.1890
 7412TIP3    H243652   0.438   3.653   0.380  0.3384  0.5470  0.1321
 7413TIP3   OH243653   5.498   5.282  12.557 -0.8517  0.1211 -0.1879
 7413TIP3    H143654   5.431   5.330  12.605 -2.6836  0.2522 -2.6766
 7413TIP3    H243655   5.490   5.313  12.466  1.7154 -0.8408 -0.8449
 7414TIP3   OH243656   6.051   2.799   5.828 -0.0471 -0.3373 -0.3106
 7414TIP3    H143657   6.121   2.793   5.893  1.3870 -0.6739 -1.8046
 7414TIP3    H243658   6.001   2.718   5.839  1.7698 -1.6687 -1.2965
 7415TIP3   OH243659   3.729   5.060  16.676 -0.0508 -0.0185 -0.8357
 7415TIP3    H143660   3.757   4.977  16.715  0.3550 -0.3448 -1.7777
 7415TIP3    H243661   3.636   5.066  16.694  0.1031 -0.2247  0.0472
 7416TIP3   OH243662   6.539   0.495   2.372 -0.1303 -0.1301  0.9058
 7416TIP3    H143663   6.511   0.555   2.440 -0.8995 -0.5560  0.9790
 7416TIP3    H243664   6.470   0.429   2.368 -0.9251  0.7418 -1.3665
 7417TIP3   OH243665   1.745   2.192  11.924 -0.3300 -0.0101  0.6122
 7417TIP3    H143666   1.785   2.106  11.914  0.3351  0.3554  0.0765
 7417TIP3    H243667   1.796   2.249  11.868 -1.7388  0.4269 -0.2888
 7418TIP3   OH243668   0.457   4.649  16.368 -0.3912  0.0692  0.0284
 7418TIP3    H143669   0.384   4.705  16.393 -0.1563  2.0434 -3.0542
 7418TIP3    H243670   0.416   4.568  16.338 -1.1617  0.3821  0.2128
 7419TIP3   OH243671   3.687   5.606  13.479  0.4645 -0.4118 -0.1954
 7419TIP3    H143672   3.701   5.697  13.455  0.7796 -0.5716 -0.6356
 7419TIP3    H243673   3.655   5.564  13.399 -0.3789 -0.5372  0.1948
 7420TIP3   OH243674   2.059   3.611   6.565 -0.5083  0.0110 -0.2073
 7420TIP3    H143675   1.991   3.565   6.615 -0.4669  0.1520 -0.0187
 7420TIP3    H243676   2.033   3.601   6.474 -0.0620 -1.0935 -0.2290
 7421TIP3   OH243677   0.615   6.459  12.237 -0.2355 -0.2127 -0.6140
 7421TIP3    H143678   0.690   6.465  12.178  0.3728 -0.1790  0.1448
 7421TIP3    H243679   0.540   6.445  12.179  0.4470 -0.9641 -1.3455
 7422TIP3   OH243680   1.542   6.131  13.006 -0.2999  0.1441  0.4867
 7422TIP3    H143681   1.475   6.186  13.046 -0.6362 -1.5058  2.3728
 7422TIP3    H243682   1.496   6.083  12.937 -0.2321  1.4468 -0.4924
 7423TIP3   OH243683   3.390   2.766  14.086  0.0468  0.2663 -0.3893
 7423TIP3    H143684   3.332   2.691  14.074 -2.5103  1.7539  1.5201
 7423TIP3    H243685   3.337   2.841  14.058  1.8083  1.5555 -0.4312
 7424TIP3   OH243686   3.191   4.938  12.608 -0.1861 -0.7134 -0.2786
 7424TIP3    H143687   3.098   4.937  12.584 -0.3729 -0.6566  0.4466
 7424TIP3    H243688   3.235   4.901  12.531 -0.7889 -0.5822 -0.6968
 7425TIP3   OH243689   6.647   4.517   3.640  0.1103 -0.2224 -0.1605
 7425TIP3    H143690   6.731   4.558   3.619  0.2763 -1.8382 -3.2351
 7425TIP3    H243691   6.654   4.429   3.605 -3.0971 -0.2170 -1.1096
 7426TIP3   OH243692   5.172   0.938   5.250 -0.4245  0.0917 -0.0006
 7426TIP3    H143693   5.207   0.863   5.297  2.3065  1.0559 -0.3172
 7426TIP3    H243694   5.172   1.009   5.315 -1.8098  0.1334 -0.0293
 7427TIP3   OH243695   6.526   1.230  13.352 -0.5090 -0.2944 -0.2791
 7427TIP3    H143696   6.578   1.163  13.396 -1.4369 -0.9815 -0.1812
 7427TIP3    H243697   6.513   1.196  13.264  0.7600  0.7541 -0.8842
 7428TIP3   OH243698   6.556   6.379  16.338  0.4096  0.5651  0.3482
 7428TIP3    H143699   6.479   6.431  16.317  0.8395  1.3686  0.7227
 7428TIP3    H243700   6.542   6.353  16.429 -1.3957 -2.8061 -0.7092
 7429TIP3   OH243701   4.923   1.353   0.951 -0.0698  0.3758  0.4157
 7429TIP3    H143702   4.863   1.387   1.018 -0.6530  0.8817 -0.3489
 7429TIP3    H243703   4.982   1.427   0.935 -0.7931  0.7517 -0.6148
 7430TIP3   OH243704   0.315   3.241   5.429 -0.0822 -0.4599  0.6409
 7430TIP3    H143705   0.395   3.238   5.481  0.1708 -1.0545  0.2336
 7430TIP3    H243706   0.255   3.181   5.473  0.2342 -1.1900  0.0945
 7431TIP3   OH243707   1.904   6.402   2.710 -0.2850 -0.1339 -0.1193
 7431TIP3    H143708   1.837   6.368   2.769  1.0474 -1.5713  0.6770
 7431TIP3    H243709   1.906   6.339   2.637 -0.7763  0.7011 -0.8660
 7432TIP3   OH243710   4.131   2.072   5.905 -0.5987  0.2942 -0.4753
 7432TIP3    H143711   4.074   1.996   5.894 -1.3744  0.7692  0.1962
 7432TIP3    H243712   4.072   2.146   5.915  0.1451  0.9073 -0.4906
 7433TIP3   OH243713   5.839   5.526   1.918  0.0972 -0.1620  0.4139
 7433TIP3    H143714   5.792   5.507   1.836 -1.3152  0.3976  1.0606
 7433TIP3    H243715   5.772   5.561   1.976  0.7899 -1.7521  2.2793
 7434TIP3   OH243716   2.145   3.602  13.018  0.3522 -0.3161 -0.3118
 7434TIP3    H143717   2.151   3.528  12.957  1.7988 -0.7516  0.3240
 7434TIP3    H243718   2.229   3.602  13.064 -0.7585 -0.1148  1.8429
 7435TIP3   OH243719   5.701   0.899   4.386 -0.3883  0.0957 -0.7519
 7435TIP3    H143720   5.681   0.919   4.294  0.2942  0.4433 -0.8310
 7435TIP3    H243721   5.693   0.983   4.431  1.5032  0.4008 -0.9057
 7436TIP3   OH243722   1.710   6.261   5.300  0.0238 -0.4589  0.1038
 7436TIP3    H143723   1.693   6.354   5.283  1.4451 -0.4254 -1.4453
 7436TIP3    H243724   1.733   6.257   5.392 -2.0808  0.3767  0.7233
 7437TIP3   OH243725   0.463   0.741  16.068 -0.9328  0.2975  0.2652
 7437TIP3    H143726   0.522   0.672  16.100 -0.9190 -0.1038 -0.5976
 7437TIP3    H243727   0.375   0.707  16.086 -0.9400 -0.2422 -0.7280
 7438TIP3   OH243728   6.612   3.609  15.371 -0.0554  0.4291  0.2330
 7438TIP3    H143729   6.580   3.533  15.420  0.8199 -0.2896 -0.2653
 7438TIP3    H243730   6.552   3.680  15.394 -1.0600 -0.4757  0.5019
 7439TIP3   OH243731   4.451   1.312   1.068  0.4818  0.5128  0.1100
 7439TIP3    H143732   4.544   1.304   1.092  0.4816  0.5768  0.1308
 7439TIP3    H243733   4.412   1.365   1.137  0.0525 -1.0037  1.0723
 7440TIP3   OH243734   3.444   4.386   2.691 -0.4985  0.2360 -0.1844
 7440TIP3    H143735   3.431   4.470   2.647 -1.0880 -0.5042 -1.4545
 7440TIP3    H243736   3.356   4.349   2.700 -0.1516 -0.7596 -0.6974
 7441TIP3   OH243737   2.782   3.231  14.785 -0.4662  0.3495 -0.1862
 7441TIP3    H143738   2.751   3.227  14.876 -0.9189  3.1545 -0.1443
 7441TIP3    H243739   2.875   3.251  14.793  0.0672 -1.8295 -0.3800
 7442TIP3   OH243740   2.691   0.274   3.319 -0.7557 -0.1998  0.1922
 7442TIP3    H143741   2.625   0.218   3.277 -0.6131 -0.7333  0.6596
 7442TIP3    H243742   2.771   0.258   3.269 -0.9727  0.4236 -0.3553
 7443TIP3   OH243743   2.922   0.221   3.181 -0.7142  0.2954 -0.5934
 7443TIP3    H143744   2.913   0.198   3.088  1.9095  1.7843 -1.3186
 7443TIP3    H243745   3.003   0.178   3.207 -0.4234  1.4682  0.4731
 7444TIP3   OH243746   0.123   4.573   0.815  0.5596  0.0118 -0.3948
 7444TIP3    H143747   0.079   4.502   0.861  2.7451 -1.3206 -0.2453
 7444TIP3    H243748   0.155   4.631   0.884 -0.3446  0.6477 -0.4835
 7445TIP3   OH243749   0.440   2.421   6.193 -0.2456  0.1379 -0.3018
 7445TIP3    H143750   0.399   2.396   6.275 -3.3468  1.2448 -1.3813
 7445TIP3    H243751   0.504   2.488   6.217 -0.5845 -0.0712  1.2647
 7446TIP3   OH243752   1.214   4.688   0.573  0.0777  0.5962  0.1568
 7446TIP3    H143753   1.290   4.649   0.616 -0.1002 -0.8238 -0.7555
 7446TIP3    H243754   1.143   4.627   0.589 -0.2082  0.5000 -1.3179
 7447TIP3   OH243755   0.840   1.336  12.120  0.1204 -0.0993  0.7016
 7447TIP3    H143756   0.771   1.319  12.183  0.5090 -0.5039  1.0285
 7447TIP3    H243757   0.828   1.269  12.052  0.3197 -0.3044  0.8674
 7448TIP3   OH243758   2.962   2.314  15.804 -0.3212  0.2554 -0.3612
 7448TIP3    H143759   2.930   2.244  15.862  0.7028  2.0059  2.5034
 7448TIP3    H243760   3.050   2.286  15.780 -0.8160 -0.5676 -1.2862
 7449TIP3   OH243761   2.561   5.840  16.859  0.0623  0.1734 -0.0690
 7449TIP3    H143762   2.554   5.842  16.955 -0.0331 -1.0347 -0.0352
 7449TIP3    H243763   2.472   5.824  16.828 -0.1263  1.7504 -0.4414
 7450TIP3   OH243764   6.559   0.751  11.699 -0.0538  0.1911  0.3392
 7450TIP3    H143765   6.574   0.672  11.751 -0.1100  0.1707  0.3240
 7450TIP3    H243766   6.496   0.725  11.633 -1.5482  0.7157  1.4803
 7451TIP3   OH243767   4.776   6.801   3.078 -0.3794 -0.1387 -0.3671
 7451TIP3    H143768   4.856   6.758   3.108 -0.7067  0.7824  2.0747
 7451TIP3    H243769   4.715   6.791   3.151 -1.4003  1.9799 -0.8634
 7452TIP3   OH243770   1.213   5.444  15.017 -1.1723  0.2711  0.0770
 7452TIP3    H143771   1.269   5.403  15.083 -1.3266 -1.1220 -0.6261
 7452TIP3    H243772   1.268   5.448  14.938 -0.9659  1.9790  0.2854
 7453TIP3   OH243773   3.013   6.463   3.436  0.2229 -0.4796  0.2106
 7453TIP3    H143774   3.037   6.427   3.351 -0.3125 -1.3369  0.4168
 7453TIP3    H243775   2.932   6.512   3.420  1.1919  1.0670 -0.1622
 7454TIP3   OH243776   2.948   3.065   4.322  0.1855 -0.7691 -0.3203
 7454TIP3    H143777   3.011   3.124   4.280 -1.3566  0.5662 -0.8874
 7454TIP3    H243778   2.973   3.065   4.414  0.0284  1.1177 -0.2325
 7455TIP3   OH243779   4.607   3.477  14.656  0.4788 -0.6099  0.2515
 7455TIP3    H143780   4.682   3.493  14.714 -0.0259  0.9062  0.5483
 7455TIP3    H243781   4.535   3.454  14.715 -0.1031  1.1925  0.3118
 7456TIP3   OH243782   3.968   5.814  12.390  0.1631 -0.1793  0.0703
 7456TIP3    H143783   4.055   5.796  12.354  0.0707 -2.7508  0.9923
 7456TIP3    H243784   3.916   5.737  12.368 -1.1696  0.1836  1.7260
 7457TIP3   OH243785   4.870   1.270   0.481 -0.0459  0.2687  0.5006
 7457TIP3    H143786   4.778   1.297   0.486 -0.2209  0.5090 -2.2796
 7457TIP3    H243787   4.912   1.314   0.555 -1.0656  5.1661 -1.4789
 7458TIP3   OH243788   5.894   6.481  14.335  0.1684 -0.1075 -0.2632
 7458TIP3    H143789   5.947   6.413  14.293  1.6445  1.1817 -0.6189
 7458TIP3    H243790   5.805   6.448  14.332  1.0312 -2.9764  1.4687
 7459TIP3   OH243791   3.962   5.665  15.837 -0.3143 -0.2002  0.2768
 7459TIP3    H143792   3.946   5.758  15.855 -0.5624  0.1517 -1.5519
 7459TIP3    H243793   3.912   5.619  15.905  0.6571  0.9766  1.8498
 7460TIP3   OH243794   5.334   1.209   5.341 -0.6029  0.3391  0.2141
 7460TIP3    H143795   5.288   1.251   5.413 -1.1817 -0.1557  0.1471
 7460TIP3    H243796   5.389   1.143   5.383 -0.3720  0.5542  0.2531
 7461TIP3   OH243797   0.214   4.901  11.947 -0.7868  0.0036 -0.4050
 7461TIP3    H143798   0.190   4.945  11.865  2.1225  0.2022 -1.2337
 7461TIP3    H243799   0.249   4.971  12.002  0.6263 -0.6694 -0.4087
 7462TIP3   OH243800   0.435   1.675  15.617 -0.1602 -0.0277 -0.5487
 7462TIP3    H143801   0.355   1.645  15.660  0.5603 -2.2498 -0.6113
 7462TIP3    H243802   0.410   1.756  15.573 -1.8857  0.3016  0.9300
 7463TIP3   OH243803   3.212   1.235  13.832  0.3565  0.0703  0.1839
 7463TIP3    H143804   3.234   1.145  13.858  0.4924  0.5447  1.8770
 7463TIP3    H243805   3.116   1.236  13.829  0.3751 -0.3132 -0.5538
 7464TIP3   OH243806   3.281   3.588  16.577  0.0996 -0.1354  0.3099
 7464TIP3    H143807   3.216   3.568  16.510 -1.2660  0.0349  1.5325
 7464TIP3    H243808   3.355   3.531  16.556 -1.3273 -2.0235  0.1739
 7465TIP3   OH243809   6.211   2.471   1.302 -0.1287  0.1284  0.2964
 7465TIP3    H143810   6.139   2.454   1.362  0.6259  0.2140  1.2372
 7465TIP3    H243811   6.289   2.437   1.347  0.4075 -0.0986 -0.7601
 7466TIP3   OH243812   6.329   0.221  16.419 -0.5636 -0.2701 -0.4236
 7466TIP3    H143813   6.384   0.149  16.451  1.0643  0.3922 -1.5702
 7466TIP3    H243814   6.335   0.288  16.487 -0.4638 -0.4600 -0.2445
 7467TIP3   OH243815   6.661   4.665   5.476  0.3307  0.0088 -0.0083
 7467TIP3    H143816   6.663   4.570   5.483  3.6229 -0.0819 -0.7127
 7467TIP3    H243817   6.730   4.696   5.535 -1.5007  2.1046  1.1800
 7468TIP3   OH243818   2.932   1.299   4.962 -0.3537  0.6435 -0.1429
 7468TIP3    H143819   2.990   1.314   4.888 -0.9656  1.2541 -0.5075
 7468TIP3    H243820   2.989   1.262   5.030 -0.0248 -1.2417 -1.3492
 7469TIP3   OH243821   6.641   3.963   1.078  0.3295 -0.2067  0.0729
 7469TIP3    H143822   6.567   3.979   1.138  1.4988 -1.3694  1.9237
 7469TIP3    H243823   6.614   3.886   1.028 -0.0957 -0.0525  0.0554
 7470TIP3   OH243824   5.993   1.206  11.708 -0.3432  0.2108 -0.3504
 7470TIP3    H143825   6.032   1.197  11.621  2.2930  0.5329  0.7126
 7470TIP3    H243826   5.975   1.116  11.735 -0.8267  0.0850 -1.0697
 7471TIP3   OH243827   2.155   1.420   6.130 -0.2384  0.3068  0.5930
 7471TIP3    H143828   2.223   1.352   6.128 -0.7101 -0.1932  1.3455
 7471TIP3    H243829   2.088   1.385   6.188 -0.8589  1.0736  0.3441
 7472TIP3   OH243830   0.817   3.542  15.454 -0.1500  0.2467 -0.0727
 7472TIP3    H143831   0.764   3.583  15.386  0.3287 -0.6097 -1.0051
 7472TIP3    H243832   0.757   3.524  15.525 -0.6320  1.3215 -0.1862
 7473TIP3   OH243833   6.747   1.784   5.672  0.2204 -0.2137 -0.1887
 7473TIP3    H143834   6.674   1.746   5.720 -0.2593  0.5043 -0.3301
 7473TIP3    H243835   6.811   1.714   5.665  0.0460 -0.5000  0.9643
 7474TIP3   OH243836   2.721   5.864  15.729 -0.6195 -0.1243  0.6609
 7474TIP3    H143837   2.740   5.806  15.802  1.2382 -0.0265  0.3003
 7474TIP3    H243838   2.731   5.810  15.651  1.4659  0.6818  0.3016
 7475TIP3   OH243839   1.840   5.877   0.777  0.1105 -0.1979 -0.2044
 7475TIP3    H143840   1.900   5.950   0.760 -1.4818  1.2804  0.2402
 7475TIP3    H243841   1.834   5.831   0.694  0.9426  0.3289 -0.5727
 7476TIP3   OH243842   3.954   0.676   3.803 -0.4129  0.1115  0.3857
 7476TIP3    H143843   3.938   0.668   3.897 -0.3801 -0.7267  0.3289
 7476TIP3    H243844   3.959   0.586   3.772  1.5336  0.3566 -0.0906
 7477TIP3   OH243845   5.208   6.753   1.122  0.6706 -0.1345  0.1585
 7477TIP3    H143846   5.237   6.829   1.173  1.0274  0.0554 -0.3288
 7477TIP3    H243847   5.175   6.692   1.188  2.0326 -0.2956  0.7366
 7478TIP3   OH243848   1.681   4.443  12.109  0.1903  0.3223  0.1738
 7478TIP3    H143849   1.642   4.367  12.066  0.6478  0.6906 -0.9227
 7478TIP3    H243850   1.766   4.412  12.139 -1.4751 -1.0396  4.2162
 7479TIP3   OH243851   1.748   1.347   0.478 -0.4858 -0.7517  0.1257
 7479TIP3    H143852   1.788   1.376   0.396 -0.8849  0.3777  0.3166
 7479TIP3    H243853   1.681   1.412   0.496  0.6840 -0.0527  2.2138
 7480TIP3   OH243854   1.515   1.531   0.537 -0.1089  1.0520  0.1453
 7480TIP3    H143855   1.451   1.563   0.474  1.0540 -0.3843 -1.9193
 7480TIP3    H243856   1.469   1.530   0.621 -2.2041  1.6843 -0.9329
 7481TIP3   OH243857   3.941   6.504  13.144 -0.3028  0.6720 -0.1540
 7481TIP3    H143858   4.023   6.551  13.155 -0.0983  0.3049 -0.0692
 7481TIP3    H243859   3.925   6.505  13.049  1.3804 -1.8322 -0.5668
 7482TIP3   OH243860   4.443   2.332   5.380 -0.4773 -0.3841 -0.0161
 7482TIP3    H143861   4.351   2.310   5.367 -0.3209 -0.4408 -1.1101
 7482TIP3    H243862   4.442   2.425   5.405 -0.7786 -0.0738 -1.1219
 7483TIP3   OH243863   1.855   2.770   1.949 -0.2699  0.5422  0.5240
 7483TIP3    H143864   1.901   2.828   1.888  0.8872  0.7697  1.5736
 7483TIP3    H243865   1.768   2.759   1.910  0.9077 -0.6710 -2.0511
 7484TIP3   OH243866   2.953   2.648  13.287 -0.3454  0.4613 -0.0299
 7484TIP3    H143867   2.953   2.578  13.221 -0.0132 -0.2782  0.7285
 7484TIP3    H243868   2.864   2.684  13.284 -0.5694 -0.1024 -0.3202
 7485TIP3   OH243869   2.110   0.758  11.487  0.1765  0.3694 -0.7136
 7485TIP3    H143870   2.206   0.749  11.485  0.1719  0.3627 -1.0012
 7485TIP3    H243871   2.082   0.700  11.557  0.3738  0.2576 -0.7265
 7486TIP3   OH243872   5.943   5.884   1.467  0.1702  0.7119 -0.3573
 7486TIP3    H143873   5.940   5.800   1.512 -1.9429  0.5040 -0.7598
 7486TIP3    H243874   6.033   5.914   1.477  0.6641 -1.0229  0.8310
 7487TIP3   OH243875   0.948   3.437   5.698  0.3296  0.1415 -0.2778
 7487TIP3    H143876   1.035   3.464   5.669 -0.2319  1.2137 -1.0263
 7487TIP3    H243877   0.964   3.393   5.782  1.6972 -0.6880 -0.9348
 7488TIP3   OH243878   2.047   4.371   3.825  0.0274  0.6542 -0.3540
 7488TIP3    H143879   1.969   4.372   3.881 -0.4568  0.2332 -0.9997
 7488TIP3    H243880   2.113   4.324   3.876 -1.0813 -1.7544 -0.9734
 7489TIP3   OH243881   5.189   5.709  15.499  0.2406 -0.5598 -0.3345
 7489TIP3    H143882   5.241   5.660  15.563 -0.7791 -0.6718  0.4416
 7489TIP3    H243883   5.205   5.801  15.520 -0.5073 -0.5964  0.4576
 7490TIP3   OH243884   6.352   3.531   6.114 -0.1445 -0.1942  0.5654
 7490TIP3    H143885   6.397   3.585   6.178 -0.1065  1.0236 -0.4435
 7490TIP3    H243886   6.420   3.509   6.050  0.1242 -2.4435  1.5329
 7491TIP3   OH243887   3.602   3.632   2.560 -0.0146  0.7976 -0.1353
 7491TIP3    H143888   3.600   3.727   2.567 -0.6602  0.6867  2.9189
 7491TIP3    H243889   3.546   3.602   2.632  1.0353 -1.9034 -0.3225
 7492TIP3   OH243890   3.617   0.031   3.205 -0.2557  0.1808  0.2794
 7492TIP3    H143891   3.599   0.113   3.252  0.4280  0.2932  0.3594
 7492TIP3    H243892   3.534   0.009   3.163 -0.0331  1.7855 -1.1021
 7493TIP3   OH243893   3.838   5.138   0.340 -0.2930 -0.3826  0.2230
 7493TIP3    H143894   3.872   5.196   0.408  0.7390  0.3615 -0.8832
 7493TIP3    H243895   3.744   5.136   0.354 -0.2785  1.0383  0.6928
 7494TIP3   OH243896   5.765   4.337  15.225  0.7476 -0.1968  0.3860
 7494TIP3    H143897   5.820   4.397  15.175  1.2517 -0.0881  1.0607
 7494TIP3    H243898   5.690   4.320  15.168 -0.0574  2.0808  0.6559
 7495TIP3   OH243899   5.492   2.570   0.748 -0.1793 -0.0511  0.2291
 7495TIP3    H143900   5.399   2.573   0.727  0.3158  0.4418 -2.1819
 7495TIP3    H243901   5.516   2.478   0.738  0.0775  0.1926 -1.7883
 7496TIP3   OH243902   2.969   3.778  12.774  0.7706 -0.8821  0.0820
 7496TIP3    H143903   3.034   3.728  12.725  1.2093 -1.2405  1.0253
 7496TIP3    H243904   3.018   3.820  12.845 -0.0426 -1.2948  0.9066
 7497TIP3   OH243905   3.980   0.834  14.739 -0.0320 -0.4913  0.2400
 7497TIP3    H143906   3.915   0.777  14.779  0.1318 -1.0191 -0.2332
 7497TIP3    H243907   4.059   0.822  14.793 -0.2315 -0.0822  0.6311
 7498TIP3   OH243908   0.437   6.370   1.365 -0.4188  0.2053 -0.0264
 7498TIP3    H143909   0.342   6.368   1.360 -0.4088 -0.9904  0.0073
 7498TIP3    H243910   0.463   6.278   1.363  0.8315  0.5664 -1.8303
 7499TIP3   OH243911   1.160   2.028   3.082 -0.7052  0.1358 -0.3999
 7499TIP3    H143912   1.177   2.053   2.991 -0.8076 -0.1905 -0.5129
 7499TIP3    H243913   1.239   2.054   3.129  0.3069 -1.6610 -0.9829
 7500TIP3   OH243914   4.124   5.990  12.940  0.2484  0.5255 -0.0580
 7500TIP3    H143915   4.139   5.988  12.846 -0.2561 -0.7176 -0.1342
 7500TIP3    H243916   4.077   6.072  12.955  1.1942  1.2088 -0.7363
 7501TIP3   OH243917   0.568   4.714  15.270 -0.0662 -0.3090  0.5494
 7501TIP3    H143918   0.615   4.640  15.230  1.0184  1.4485 -1.6732
 7501TIP3    H243919   0.476   4.699  15.248  0.2845 -0.4330 -0.9392
 7502TIP3   OH243920   4.599   6.138   2.662  0.2618  0.5463  0.3091
 7502TIP3    H143921   4.598   6.170   2.572 -0.8475  0.9551  0.4483
 7502TIP3    H243922   4.662   6.194   2.707  0.1669  0.9225 -0.0193
 7503TIP3   OH243923   5.862   0.331  11.796  0.2388 -0.4095  0.3761
 7503TIP3    H143924   5.877   0.394  11.726 -1.0755 -0.9631 -0.4353
 7503TIP3    H243925   5.935   0.345  11.857  0.3861  1.3565 -0.1539
 7504TIP3   OH243926   5.100   0.613  16.662 -0.6928 -0.0627 -0.9414
 7504TIP3    H143927   5.131   0.546  16.724 -0.8413  0.2349 -0.5394
 7504TIP3    H243928   5.007   0.623  16.683 -0.6176  0.4344 -0.8467
 7505TIP3   OH243929   2.777   3.684  15.339 -0.0222  0.2099  0.0085
 7505TIP3    H143930   2.802   3.768  15.300 -0.8095  0.6957  0.5288
 7505TIP3    H243931   2.739   3.707  15.423 -1.3582 -0.5722 -0.3590
 7506TIP3   OH243932   1.731   4.567  12.947  0.1056  0.4670 -0.4301
 7506TIP3    H143933   1.741   4.651  12.902 -0.5416  0.4710 -0.5757
 7506TIP3    H243934   1.657   4.580  13.006 -1.1436 -0.5187 -1.7134
 7507TIP3   OH243935   3.537   5.940   5.561  0.2472 -0.1296 -0.4763
 7507TIP3    H143936   3.632   5.954   5.570  0.3596 -0.5920 -0.9303
 7507TIP3    H243937   3.519   5.955   5.469 -0.1129 -0.1081 -0.4018
 7508TIP3   OH243938   4.362   4.123  14.551  0.4496  0.3088 -0.0659
 7508TIP3    H143939   4.447   4.101  14.587  0.7969  1.3618 -0.2065
 7508TIP3    H243940   4.350   4.061  14.479  0.8840 -0.1433  0.2450
 7509TIP3   OH243941   4.802   5.311  11.647 -0.5383 -0.3970  0.0373
 7509TIP3    H143942   4.785   5.310  11.553 -2.0692 -1.4048  0.2883
 7509TIP3    H243943   4.716   5.305  11.687  0.1450 -1.0437  1.4903
 7510TIP3   OH243944   4.555   5.700   1.644 -0.0407 -0.0105 -0.0816
 7510TIP3    H143945   4.600   5.721   1.562 -3.0800  0.1748 -1.8516
 7510TIP3    H243946   4.603   5.624   1.678  1.2340 -0.2235 -2.1393
 7511TIP3   OH243947   0.305   2.617   0.177 -0.3218  0.0812 -0.2105
 7511TIP3    H143948   0.261   2.655   0.102 -2.9390 -1.4765  0.4021
 7511TIP3    H243949   0.302   2.522   0.161 -0.4981 -0.2548  1.5728
 7512TIP3   OH243950   0.659   3.840   1.008  0.2539 -0.4564  0.0219
 7512TIP3    H143951   0.734   3.891   0.977 -0.4851  0.6602  0.0347
 7512TIP3    H243952   0.695   3.786   1.079  1.4653 -1.3833 -1.2328
 7513TIP3   OH243953   2.640   2.954   0.989  0.1001  0.0480  0.0855
 7513TIP3    H143954   2.728   2.976   0.959 -0.2064  0.7410 -0.3132
 7513TIP3    H243955   2.622   3.016   1.059 -0.8842  1.3455 -1.2466
 7514TIP3   OH243956   0.799   3.264  13.975  0.0804  0.1146  0.4584
 7514TIP3    H143957   0.849   3.320  13.917 -1.7318  0.7186 -0.6066
 7514TIP3    H243958   0.726   3.318  14.004 -0.3955 -0.9456  1.3450
 7515TIP3   OH243959   6.037   5.816  14.148  0.0976 -0.5874  0.0546
 7515TIP3    H143960   5.970   5.822  14.079  1.3068  1.0498 -1.0479
 7515TIP3    H243961   6.055   5.907  14.171  2.3190 -0.9674 -0.0556
 7516TIP3   OH243962   1.663   3.856   2.684 -0.0480 -0.3436  0.5119
 7516TIP3    H143963   1.673   3.821   2.773  0.4931  0.9694  0.9858
 7516TIP3    H243964   1.751   3.851   2.646  0.1751  1.0180  0.8023
 7517TIP3   OH243965   1.126   1.716   5.993  0.5380  0.2407 -0.7014
 7517TIP3    H143966   1.099   1.798   5.952 -2.0933 -0.9367 -1.5138
 7517TIP3    H243967   1.117   1.732   6.087 -2.5087  0.1832 -0.8990
 7518TIP3   OH243968   6.660   3.709  16.890  0.0780  0.2953  0.2836
 7518TIP3    H143969   6.710   3.787  16.916  0.5074 -0.1040  0.6621
 7518TIP3    H243970   6.690   3.640  16.949 -0.5064 -0.0944  0.1361
 7519TIP3   OH243971   6.793   5.722  14.917  0.2329  0.5425 -0.0075
 7519TIP3    H143972   6.708   5.736  14.957  1.6448  2.1740  2.7411
 7519TIP3    H243973   6.833   5.809  14.914  1.8171 -0.1752 -1.1735
 7520TIP3   OH243974   3.613   1.177   5.504 -0.7989  0.1446 -0.1692
 7520TIP3    H143975   3.643   1.095   5.464 -0.1949 -0.1996  0.9338
 7520TIP3    H243976   3.677   1.194   5.573 -1.8080  0.7133  0.6437
 7521TIP3   OH243977   1.454   5.254  12.500 -0.1435 -0.1508  0.2211
 7521TIP3    H143978   1.523   5.314  12.472 -0.5719  0.5037  0.5268
 7521TIP3    H243979   1.373   5.299  12.477 -0.4989  0.0168  1.6673
 7522TIP3   OH243980   6.257   2.240   6.021  0.1776  0.2044  0.0988
 7522TIP3    H143981   6.242   2.287   5.939 -1.2417  0.4022  0.4303
 7522TIP3    H243982   6.225   2.299   6.089 -0.8366 -0.8627  0.5974
 7523TIP3   OH243983   4.815   2.524   6.066 -0.0472  0.0945  0.1303
 7523TIP3    H143984   4.885   2.458   6.065 -0.1361 -0.0090 -0.9936
 7523TIP3    H243985   4.743   2.482   6.019  0.3552  1.4383 -1.8205
 7524TIP3   OH243986   5.547   6.696   5.654 -0.1862 -0.3315  0.0669
 7524TIP3    H143987   5.568   6.705   5.747  0.3479 -0.2770 -0.0574
 7524TIP3    H243988   5.616   6.640   5.619 -0.3024 -0.2284 -0.3306
 7525TIP3   OH243989   6.598   1.734   0.279  0.5229  0.1270 -0.2339
 7525TIP3    H143990   6.591   1.828   0.263  2.3340  0.6776  1.6767
 7525TIP3    H243991   6.666   1.705   0.218 -0.8462 -0.2202 -1.6393
 7526TIP3   OH243992   3.438   6.729   2.860 -0.7815  0.1534  0.2287
 7526TIP3    H143993   3.396   6.769   2.936 -0.7802  0.4151  0.0916
 7526TIP3    H243994   3.456   6.802   2.801  2.2006  0.4633  1.3334
 7527TIP3   OH243995   4.915   6.242   3.420 -0.7677 -0.3298  0.5834
 7527TIP3    H143996   5.010   6.255   3.419 -0.7050 -0.7557 -0.4832
 7527TIP3    H243997   4.885   6.290   3.497  0.1163  1.3066 -0.0291
 7528TIP3   OH243998   2.472   6.508   5.181 -0.1675 -0.0904  0.4411
 7528TIP3    H143999   2.530   6.433   5.166 -0.5281 -0.3792  0.4780
 7528TIP3    H244000   2.398   6.472   5.230 -1.5271 -0.2218 -1.5969
 7529TIP3   OH244001   5.410   5.620  14.246 -0.1630 -1.1467  0.3603
 7529TIP3    H144002   5.417   5.608  14.152  0.9078  1.1653  0.0663
 7529TIP3    H244003   5.499   5.642  14.274 -0.4659 -1.7405  1.9120
 7530TIP3   OH244004   1.901   1.015   2.643 -0.5429 -0.0486 -1.0415
 7530TIP3    H144005   1.840   0.947   2.613 -1.7488  0.7210 -0.4148
 7530TIP3    H244006   1.870   1.038   2.730  2.8406 -2.1951  0.9332
 7531TIP3   OH244007   1.210   3.559   0.297 -0.1844  0.5277 -0.6218
 7531TIP3    H144008   1.215   3.501   0.373  0.3887  1.9060  0.4338
 7531TIP3    H244009   1.234   3.645   0.331 -1.2482  1.4517 -2.0791
 7532TIP3   OH244010   2.501   0.863  13.032 -0.2691  0.1568  0.6986
 7532TIP3    H144011   2.513   0.800  12.961 -2.1558  1.1383 -0.5623
 7532TIP3    H244012   2.407   0.877  13.037  0.0130  2.1631  1.5892
 7533TIP3   OH244013   2.810   1.859   6.628 -0.3616 -0.3123 -0.1609
 7533TIP3    H144014   2.732   1.883   6.578 -0.5276  0.6152  0.5177
 7533TIP3    H244015   2.836   1.774   6.592 -0.3404  0.4106 -1.9640
 7534TIP3   OH244016   2.805   4.538   2.686 -0.0474  0.1741 -0.5529
 7534TIP3    H144017   2.886   4.505   2.647 -0.7982 -0.8605 -1.2567
 7534TIP3    H244018   2.745   4.464   2.685 -0.8101  0.7373  0.5819
 7535TIP3   OH244019   5.589   1.465  16.371  0.2654  0.3735 -0.0849
 7535TIP3    H144020   5.576   1.482  16.464 -0.9888 -1.7468  0.2049
 7535TIP3    H244021   5.646   1.389  16.368  0.4576  0.5405 -1.0631
 7536TIP3   OH244022   2.033   1.948   2.762 -0.1775  0.2011  0.2219
 7536TIP3    H144023   2.118   1.976   2.796 -0.2415  1.1064 -0.3463
 7536TIP3    H244024   1.973   2.020   2.784 -0.6670 -0.1564  0.0730
 7537TIP3   OH244025   0.387   3.990  14.977  0.6620  0.1941  0.6866
 7537TIP3    H144026   0.392   3.997  14.881  0.8683  0.0705  0.6874
 7537TIP3    H244027   0.310   4.043  15.001 -0.2430 -0.9122  0.3287
 7538TIP3   OH244028   6.785   0.320  12.455 -0.2499 -1.0676 -1.0566
 7538TIP3    H144029   6.691   0.330  12.440 -0.8131 -2.7875  0.8746
 7538TIP3    H244030   6.813   0.253  12.392 -0.2292 -0.3501 -1.8273
 7539TIP3   OH244031   6.287   2.184   4.419  0.0800 -0.1626 -0.3751
 7539TIP3    H144032   6.296   2.261   4.475  1.9349 -1.3694  1.0884
 7539TIP3    H244033   6.232   2.124   4.469 -0.6641 -0.1491 -1.1473
 7540TIP3   OH244034   3.797   6.170   2.117  0.0873  0.1624 -0.3080
 7540TIP3    H144035   3.784   6.210   2.031 -1.1547 -0.2926 -0.3449
 7540TIP3    H244036   3.824   6.080   2.098 -0.3553  0.0102 -0.2318
 7541TIP3   OH244037   5.061   3.677  14.686  0.0407 -0.6308 -0.5354
 7541TIP3    H144038   5.023   3.734  14.752  0.0441  0.1660 -1.1992
 7541TIP3    H244039   5.136   3.636  14.729 -0.3415 -0.6300  0.1437
 7542TIP3   OH244040   2.708   1.190  10.677  0.2183 -0.5004 -0.0557
 7542TIP3    H144041   2.632   1.217  10.625  0.5376 -2.2816 -1.5453
 7542TIP3    H244042   2.764   1.144  10.615  2.1156 -0.0208  1.2132
 7543TIP3   OH244043   6.587   5.956  10.949 -0.2297 -0.0549 -0.1947
 7543TIP3    H144044   6.600   5.861  10.951  0.0257 -0.0111  1.2967
 7543TIP3    H244045   6.522   5.970  10.880 -1.5151 -1.4711  0.6752
 7544TIP3   OH244046   2.996   0.650  11.202 -0.3117 -0.2869 -0.4714
 7544TIP3    H144047   3.073   0.687  11.245  0.9416 -2.5744 -0.6035
 7544TIP3    H244048   2.958   0.590  11.267 -0.6532 -0.8621 -1.1841
 7545TIP3   OH244049   6.521   2.961  16.763  0.3005 -0.1228 -0.1518
 7545TIP3    H144050   6.595   2.989  16.818  0.1365  0.7263 -0.3524
 7545TIP3    H244051   6.548   2.875  16.729  1.3675  0.3305 -0.5142
 7546TIP3   OH244052   5.010   4.985   4.188  0.1340 -0.2649  0.2976
 7546TIP3    H144053   5.062   5.034   4.124  1.7234 -0.8671  1.0552
 7546TIP3    H244054   4.978   5.051   4.249  1.4234 -0.0216  0.7481
 7547TIP3   OH244055   4.250   4.904  15.229  0.3158 -0.2268 -0.2075
 7547TIP3    H144056   4.159   4.901  15.259 -0.3247 -0.7547 -2.0666
 7547TIP3    H244057   4.288   4.821  15.259 -0.3180 -0.7537 -0.8233
 7548TIP3   OH244058   5.549   5.324  15.106 -0.6888  0.4449  0.0596
 7548TIP3    H144059   5.491   5.251  15.083  1.4881 -0.8554 -1.7234
 7548TIP3    H244060   5.595   5.294  15.184  0.3161 -0.2078 -0.7613
 7549TIP3   OH244061   6.248   5.176  14.061 -0.7306  0.2717  0.3084
 7549TIP3    H144062   6.327   5.181  14.008  1.3436 -1.8617  2.9110
 7549TIP3    H244063   6.213   5.266  14.061  1.4738  1.2175 -1.2012
 7550TIP3   OH244064   5.089   4.090  11.381  0.2537 -0.1816  0.0459
 7550TIP3    H144065   5.022   4.089  11.449  0.8637 -1.3591  0.6574
 7550TIP3    H244066   5.051   4.037  11.310 -0.2471  0.7743 -0.4183
 7551TIP3   OH244067   5.350   4.088  12.330  0.2739 -0.5191  0.4493
 7551TIP3    H144068   5.338   4.086  12.425 -1.2392 -0.9586  0.2830
 7551TIP3    H244069   5.434   4.132  12.317  0.5925 -0.6025  1.9880
 7552TIP3   OH244070   4.556   4.058  13.359  0.0552 -0.3695  0.3579
 7552TIP3    H144071   4.571   3.964  13.350  1.0853 -0.1082 -1.0800
 7552TIP3    H244072   4.643   4.095  13.373 -0.1667  0.4631 -0.3475
 7553TIP3   OH244073   5.280   4.743   1.552 -0.0563 -0.2615 -0.0060
 7553TIP3    H144074   5.272   4.742   1.647 -2.2984  0.4880 -0.1271
 7553TIP3    H244075   5.303   4.833   1.531 -2.5250  0.3682 -0.2814
 7554TIP3   OH244076   4.506   3.496   1.126  0.1999  0.1766 -0.3340
 7554TIP3    H144077   4.594   3.530   1.110 -0.0036  0.3325 -1.1494
 7554TIP3    H244078   4.517   3.401   1.125  0.2131  0.1860 -1.2934
 7555TIP3   OH244079   5.856   2.849   0.967 -0.3420  0.2437 -0.1365
 7555TIP3    H144080   5.766   2.816   0.966 -0.1234 -0.3628 -0.2209
 7555TIP3    H244081   5.869   2.882   1.056  0.3961 -2.6485  0.9147
 7556TIP3   OH244082   5.893   0.493  15.894  1.1408 -0.6656  0.6215
 7556TIP3    H144083   5.925   0.406  15.920 -0.8505 -1.2587  1.2629
 7556TIP3    H244084   5.801   0.493  15.920  0.6411  1.0083 -0.9807
 7557TIP3   OH244085   3.285   4.546  12.079  0.5628 -0.1233  0.1864
 7557TIP3    H144086   3.231   4.506  12.012  1.2579 -2.6698  1.0456
 7557TIP3    H244087   3.326   4.621  12.035 -2.6661  1.2418 -0.7938
 7558TIP3   OH244088   6.789   3.176  13.228  0.0494 -0.2382 -0.5060
 7558TIP3    H144089   6.731   3.103  13.246 -0.6602 -0.0180 -1.8110
 7558TIP3    H244090   6.866   3.137  13.185  0.2689 -0.3663 -0.0018
 7559TIP3   OH244091   0.226   3.000   1.187  0.1016 -0.2730  0.5868
 7559TIP3    H144092   0.160   3.053   1.232  0.9658  1.0049  0.4043
 7559TIP3    H244093   0.301   2.999   1.247  1.1226  1.1114 -0.5802
 7560TIP3   OH244094   3.535   1.709   2.615  0.3466 -0.6259  0.0047
 7560TIP3    H144095   3.595   1.634   2.620  0.7216 -0.2633  1.5800
 7560TIP3    H244096   3.455   1.677   2.656  0.3395 -0.3229  0.2265
 7561TIP3   OH244097   0.680   0.058   5.092 -0.0206  0.0455  0.4626
 7561TIP3    H144098   0.732  -0.001   5.146  0.6323 -0.2521 -0.4591
 7561TIP3    H244099   0.596   0.064   5.137  0.8401  0.6747  2.0876
 7562TIP3   OH244100   2.706   3.137   1.497  0.1880 -0.5022  0.1468
 7562TIP3    H144101   2.784   3.114   1.547  1.0788  1.7072 -0.1047
 7562TIP3    H244102   2.740   3.176   1.416 -1.1651  0.3958 -0.0202
 7563TIP3   OH244103   1.336   1.126   1.606  0.1334 -0.1876 -0.0629
 7563TIP3    H144104   1.343   1.204   1.552 -0.7458  1.9596  2.6595
 7563TIP3    H244105   1.242   1.118   1.626  0.4460 -0.6347  1.4075
 7564TIP3   OH244106   6.441   2.060   2.266  0.1557  0.0618 -0.6048
 7564TIP3    H144107   6.463   1.974   2.303 -0.6090  0.2509  0.3327
 7564TIP3    H244108   6.356   2.047   2.225  0.1779  0.2994 -0.7269
 7565TIP3   OH244109   0.736   2.272   3.096 -0.0247  0.3467 -0.0704
 7565TIP3    H144110   0.812   2.321   3.128 -0.7723  1.8833 -0.5266
 7565TIP3    H244111   0.670   2.283   3.165 -0.7049  1.3051 -0.8415
 7566TIP3   OH244112   4.062   2.035   1.799 -0.5612  0.1529 -0.0556
 7566TIP3    H144113   3.998   1.998   1.860  0.7069  0.0563  1.2710
 7566TIP3    H244114   4.116   1.961   1.772 -0.9073  0.2507 -1.0937
 7567TIP3   OH244115   3.770   5.597  16.839 -0.1532 -0.3298 -0.3639
 7567TIP3    H144116   3.724   5.680  16.828  0.1443 -0.1471 -0.2499
 7567TIP3    H244117   3.773   5.584  16.934 -0.6429 -0.7256 -0.3967
 7568TIP3   OH244118   1.090   3.606   4.905  0.1450 -0.2846 -0.5544
 7568TIP3    H144119   1.138   3.619   4.824  0.9521 -1.1107 -0.2308
 7568TIP3    H244120   1.000   3.592   4.878  0.6125 -1.8748 -1.4312
 7569TIP3   OH244121   1.893   3.142  10.588  0.3053 -0.4119  0.0396
 7569TIP3    H144122   1.897   3.087  10.509 -0.9868  0.4488 -0.6574
 7569TIP3    H244123   1.833   3.095  10.646 -0.5661  0.0844 -0.4378
 7570TIP3   OH244124   2.587   3.044  13.957 -0.4833 -0.2400 -0.1304
 7570TIP3    H144125   2.633   3.006  14.032 -1.1459  0.8067  0.8415
 7570TIP3    H244126   2.595   2.978  13.888 -0.0408 -1.3297  0.9228
 7571TIP3   OH244127   0.247   2.798  15.338  0.9895 -0.0209 -0.7679
 7571TIP3    H144128   0.196   2.843  15.405 -1.0990 -3.0186 -0.1361
 7571TIP3    H244129   0.337   2.829  15.351  0.3169  0.9977  2.1059
 7572TIP3   OH244130   2.208   4.538  14.470 -0.1546 -0.4756 -1.0137
 7572TIP3    H144131   2.254   4.465  14.513 -0.0994 -0.7805 -1.5789
 7572TIP3    H244132   2.276   4.583  14.420  0.2359  1.1924  0.8897
 7573TIP3   OH244133   5.727   3.787   3.148  0.8375 -0.2271 -0.1808
 7573TIP3    H144134   5.648   3.757   3.103 -1.7055 -0.0029  3.5968
 7573TIP3    H244135   5.739   3.878   3.119  2.8055 -1.5973 -4.3950
 7574TIP3   OH244136   4.113   4.787   0.067  0.0058  0.4452 -0.4739
 7574TIP3    H144137   4.065   4.870   0.073 -1.6983 -0.4311 -1.4080
 7574TIP3    H244138   4.079   4.734   0.138 -0.3617 -0.1453 -1.0750
 7575TIP3   OH244139   6.622   0.836   0.861  0.0268  1.0607 -0.9301
 7575TIP3    H144140   6.636   0.765   0.923 -1.8487  2.2212  0.9451
 7575TIP3    H244141   6.573   0.796   0.789 -0.6804  0.3740 -0.0858
 7576TIP3   OH244142   0.611   6.389  15.822 -0.2875 -0.1681  1.1472
 7576TIP3    H144143   0.583   6.297  15.820  0.2075 -0.3226 -0.7057
 7576TIP3    H244144   0.667   6.395  15.899  1.8112 -2.1222 -0.0983
 7577TIP3   OH244145   1.989   2.788   4.475 -0.0349 -0.4386 -0.1239
 7577TIP3    H144146   2.062   2.747   4.428  1.5085  1.5482  0.4407
 7577TIP3    H244147   1.993   2.880   4.451 -0.9292  0.1322  1.7189
 7578TIP3   OH244148   1.654   4.486  16.390  0.1491  0.2327 -0.9434
 7578TIP3    H144149   1.689   4.481  16.301  0.7607 -2.3763 -0.6371
 7578TIP3    H244150   1.714   4.546  16.436  0.2061  1.0950 -2.0854
 7579TIP3   OH244151   1.214   2.936  14.287 -0.2554  0.8904  0.3030
 7579TIP3    H144152   1.165   2.946  14.369 -0.0120  1.3464  0.3975
 7579TIP3    H244153   1.216   3.024  14.249 -1.1936  0.5048 -0.6807
 7580TIP3   OH244154   1.365   4.635   0.055  0.0999  0.2110 -0.1714
 7580TIP3    H144155   1.384   4.543   0.034 -0.9679  0.2874 -1.6288
 7580TIP3    H244156   1.348   4.634   0.149 -0.0888 -1.1397 -0.1921
 7581TIP3   OH244157   5.478   2.004   0.850 -0.0730 -0.1282  0.0026
 7581TIP3    H144158   5.394   1.980   0.811 -0.6008 -0.5533  1.3546
 7581TIP3    H244159   5.487   1.947   0.926 -0.2183  2.2184  1.9102
 7582TIP3   OH244160   4.881   6.234   5.104  0.3435 -0.1128  0.2870
 7582TIP3    H144161   4.959   6.285   5.085 -1.1456  1.8181 -1.0201
 7582TIP3    H244162   4.827   6.240   5.025 -1.7565 -0.1353  1.6238
 7583TIP3   OH244163   6.367   0.075  14.044  0.0423 -0.4250 -0.5070
 7583TIP3    H144164   6.404   0.142  14.100  0.6896  0.2710 -1.7270
 7583TIP3    H244165   6.376   0.109  13.955 -0.2482 -1.8183 -1.1103
 7584TIP3   OH244166   1.466   3.273   1.019  0.0732  0.4070  0.2781
 7584TIP3    H144167   1.556   3.301   1.035 -0.2948  0.9129  1.5613
 7584TIP3    H244168   1.412   3.341   1.060 -0.9467  0.8890 -1.6935
 7585TIP3   OH244169   6.799   3.931  16.965  0.5251  0.2121  0.1486
 7585TIP3    H144170   6.883   3.942  16.919  0.5156  0.5878  0.2179
 7585TIP3    H244171   6.820   3.876  17.040  0.8548  0.8701  0.5491
 7586TIP3   OH244172   3.042   2.327   5.086  0.6302 -0.0933  0.2025
 7586TIP3    H144173   3.101   2.252   5.094 -0.2337 -0.8629 -0.3262
 7586TIP3    H244174   2.954   2.289   5.093  0.1559  0.7607 -0.7462
 7587TIP3   OH244175   1.058   0.361  12.933  0.4960  0.3310 -0.0042
 7587TIP3    H144176   1.060   0.450  12.970 -1.1826 -0.5831  2.5405
 7587TIP3    H244177   1.138   0.320  12.966  1.6571  1.0373 -1.7899
 7588TIP3   OH244178   3.636   3.576   5.747 -0.0791  0.9261 -0.1977
 7588TIP3    H144179   3.582   3.550   5.672  0.7004 -1.6402  0.0154
 7588TIP3    H244180   3.725   3.578   5.712  0.4030 -1.1400  0.7613
 7589TIP3   OH244181   6.236   6.391  12.966 -0.2276  0.3719  0.5432
 7589TIP3    H144182   6.245   6.427  13.054  0.7598 -2.1693  1.5818
 7589TIP3    H244183   6.205   6.302  12.980  0.5685 -0.3141 -1.6317
 7590TIP3   OH244184   2.907   2.553  12.313  0.1364 -0.1992  0.0228
 7590TIP3    H144185   2.876   2.466  12.337 -0.8616 -0.1835 -1.0929
 7590TIP3    H244186   2.901   2.604  12.394 -0.0480 -0.9591  0.4938
 7591TIP3   OH244187   3.604   4.801   2.762 -0.7007  0.5259 -0.4263
 7591TIP3    H144188   3.575   4.778   2.850 -0.1947 -0.9056 -0.6083
 7591TIP3    H244189   3.580   4.893   2.752 -1.0111  0.6344  1.0992
 7592TIP3   OH244190   3.226   3.862   3.728 -0.2939  0.4233 -0.1191
 7592TIP3    H144191   3.187   3.931   3.675 -0.0772  0.5368 -0.1295
 7592TIP3    H244192   3.154   3.801   3.745 -0.4182  0.5087 -0.3435
 7593TIP3   OH244193   5.326   0.030   1.742 -0.7130  0.4734 -0.0321
 7593TIP3    H144194   5.274   0.074   1.809 -0.4482  0.3833  0.2343
 7593TIP3    H244195   5.292   0.064   1.659  0.0310  1.7989  0.1778
 7594TIP3   OH244196   6.502   4.423  12.019  0.0798 -0.3791  0.5406
 7594TIP3    H144197   6.498   4.401  12.112  0.9618 -1.6623  0.2918
 7594TIP3    H244198   6.590   4.457  12.006 -0.3326  0.6583  0.3315
 7595TIP3   OH244199   2.269   5.591   2.076 -0.1228 -0.6997 -0.1746
 7595TIP3    H144200   2.271   5.498   2.101  0.1935 -0.2161  1.7093
 7595TIP3    H244201   2.192   5.626   2.121 -1.4668 -0.4518 -2.5341
 7596TIP3   OH244202   1.224   1.698  10.603 -0.5295  0.4749  0.1619
 7596TIP3    H144203   1.216   1.700  10.508  0.7894  2.4293  0.0236
 7596TIP3    H244204   1.282   1.772  10.624  0.4550 -0.8210  2.3663
 7597TIP3   OH244205   1.871   0.636   2.278 -0.1741  0.1684 -0.2777
 7597TIP3    H144206   1.874   0.557   2.332 -0.5913  0.6145  0.4110
 7597TIP3    H244207   1.784   0.672   2.292 -0.4693  0.0434 -1.6332
 7598TIP3   OH244208   4.566   5.366  13.713  0.2131  0.1336  0.2175
 7598TIP3    H144209   4.631   5.391  13.779 -0.7870 -1.4434  1.8905
 7598TIP3    H244210   4.596   5.281  13.681 -0.3132  0.0276 -0.0094
 7599TIP3   OH244211   0.400   3.823  12.790 -0.1216  0.5310 -0.3578
 7599TIP3    H144212   0.314   3.783  12.777 -0.6996  2.0122 -1.3492
 7599TIP3    H244213   0.463   3.755  12.764 -0.9799 -0.4498  0.0476
 7600TIP3   OH244214   0.079   2.340   1.130 -0.0661  0.4996  0.1820
 7600TIP3    H144215   0.023   2.276   1.175 -0.0468  0.5514  0.2800
 7600TIP3    H244216   0.147   2.361   1.194  0.0369  0.4747  0.0815
 7601TIP3   OH244217   0.807   2.957   2.102 -0.0652 -0.1111  0.9585
 7601TIP3    H144218   0.790   2.992   2.190  0.5024  2.5642  0.0960
 7601TIP3    H244219   0.754   3.011   2.044 -0.0285 -1.4915 -0.4418
 7602TIP3   OH244220   1.273   3.428   1.150  0.2733 -0.2119  0.2024
 7602TIP3    H144221   1.338   3.485   1.191  1.2649 -0.7793 -0.5676
 7602TIP3    H244222   1.257   3.360   1.216 -2.0079  1.6516  1.7559
 7603TIP3   OH244223   6.185   3.834   1.118  0.7733  0.4386 -0.4872
 7603TIP3    H144224   6.171   3.874   1.204  1.1542 -0.3371 -0.0556
 7603TIP3    H244225   6.272   3.864   1.091  1.9412 -1.5751  0.7209
 7604TIP3   OH244226   0.107   3.668   4.397 -0.7628 -0.1280  0.2845
 7604TIP3    H144227   0.170   3.693   4.465  2.3609  2.4208 -3.1379
 7604TIP3    H244228   0.040   3.736   4.400 -0.1191  0.5139  0.1889
 7605TIP3   OH244229   0.956   3.011   5.724 -0.4372  0.2407 -0.0319
 7605TIP3    H144230   1.014   3.053   5.788 -1.2877  1.2094  0.1342
 7605TIP3    H244231   0.878   2.987   5.774 -0.8220  0.3780 -0.5505
 7606TIP3   OH244232   3.833   4.340   2.899 -0.0402  0.1068 -0.0691
 7606TIP3    H144233   3.928   4.347   2.905  0.0239 -0.7549 -0.0233
 7606TIP3    H244234   3.803   4.348   2.989  0.0160 -0.0127 -0.0398
 7607TIP3   OH244235   1.864   2.506  10.203 -0.2935  0.2202 -0.3636
 7607TIP3    H144236   1.771   2.489  10.218 -0.2447  0.8718  0.7858
 7607TIP3    H244237   1.870   2.602  10.200  0.3333  0.1784 -0.5672
 7608TIP3   OH244238   5.346   6.128   1.341  0.1616 -0.4614 -0.2324
 7608TIP3    H144239   5.396   6.064   1.290  1.4569 -0.2651  0.7384
 7608TIP3    H244240   5.384   6.213   1.317 -1.1335 -0.0719 -1.0503
 7609TIP3   OH244241   4.401   6.453  12.222  0.7433  0.1941 -0.3679
 7609TIP3    H144242   4.320   6.454  12.170  1.0565  0.0141 -0.8618
 7609TIP3    H244243   4.393   6.529  12.280 -1.1038 -1.3794  1.6300
 7610TIP3   OH244244   6.061   0.216   3.659 -0.3044 -0.1637 -0.0968
 7610TIP3    H144245   6.113   0.196   3.738  0.8758  0.5345 -0.6729
 7610TIP3    H244246   6.003   0.287   3.686  2.8153  2.9513 -0.7685
 7611TIP3   OH244247   0.574   2.088  16.704  0.3801 -0.1417  0.1561
 7611TIP3    H144248   0.595   2.182  16.708  0.1212  0.0987 -2.3029
 7611TIP3    H244249   0.640   2.046  16.759  0.4308  1.4735  1.3997
 7612TIP3   OH244250   4.258   1.352  14.809  0.4468 -0.1822 -0.4244
 7612TIP3    H144251   4.189   1.339  14.744  0.1156 -0.0387 -0.1086
 7612TIP3    H244252   4.215   1.401  14.879  0.8205 -0.2626 -0.1371
 7613TIP3   OH244253   1.631   4.451  11.041 -0.0914  0.2704 -0.3563
 7613TIP3    H144254   1.575   4.424  10.969 -0.0766  0.8860 -0.6077
 7613TIP3    H244255   1.642   4.546  11.029  0.2391  0.3127  0.2218
 7614TIP3   OH244256   0.316   5.602  12.829  0.5956  0.9835 -0.1736
 7614TIP3    H144257   0.363   5.604  12.912 -1.2022 -0.2424  0.9434
 7614TIP3    H244258   0.227   5.629  12.851 -0.6127 -1.8016 -1.1381
 7615TIP3   OH244259   4.113   0.396  14.758  0.1162  0.3447 -0.0592
 7615TIP3    H144260   4.047   0.455  14.795 -1.1954  0.0972 -1.8855
 7615TIP3    H244261   4.094   0.311  14.796  1.1543  0.7744  1.5241
 7616TIP3   OH244262   1.664   6.818   0.383 -0.7907 -0.0956  0.2338
 7616TIP3    H144263   1.639   6.897   0.335 -1.3895 -0.6390 -0.3772
 7616TIP3    H244264   1.757   6.807   0.366 -1.1057 -0.6143 -1.3532
 7617TIP3   OH244265   5.808   4.221  16.708  1.0393  0.1591 -0.2813
 7617TIP3    H144266   5.861   4.145  16.733  1.9964  0.6570 -0.7258
 7617TIP3    H244267   5.735   4.184  16.657 -0.2328 -0.7356  2.0555
 7618TIP3   OH244268   0.127   6.777  14.062 -0.1255  0.1156 -0.2966
 7618TIP3    H144269   0.048   6.760  14.113  0.5830 -0.6560  0.5804
 7618TIP3    H244270   0.189   6.813  14.126  0.2998  0.4969 -0.9229
 7619TIP3   OH244271   4.247   5.081  15.505  0.2034  0.4241 -0.0312
 7619TIP3    H144272   4.266   5.174  15.492 -0.7659  0.8393  1.2742
 7619TIP3    H244273   4.233   5.047  15.417 -3.3537  2.4164 -0.4169
 7620TIP3   OH244274   1.120   6.536   1.473 -0.1261  0.1051  0.4804
 7620TIP3    H144275   1.170   6.512   1.550  2.0967  0.1518 -0.8708
 7620TIP3    H244276   1.184   6.539   1.402 -2.0144  0.3773 -1.3252
 7621TIP3   OH244277   0.269   0.181   0.699 -0.3658  0.6615  0.5028
 7621TIP3    H144278   0.284   0.244   0.769  1.2826  1.1331 -0.2270
 7621TIP3    H244279   0.357   0.154   0.671 -1.0058 -0.9281 -0.1374
 7622TIP3   OH244280   3.945   1.270  11.846 -0.2651 -0.1202  0.3692
 7622TIP3    H144281   4.025   1.317  11.871 -0.2541 -1.2894  2.7401
 7622TIP3    H244282   3.892   1.336  11.801  1.9205  0.7264 -1.1328
 7623TIP3   OH244283   0.654   6.293   0.684  0.4774  0.3637 -0.3104
 7623TIP3    H144284   0.685   6.217   0.634  1.6206  0.9790 -0.5837
 7623TIP3    H244285   0.565   6.270   0.709  1.0343 -1.3744  0.2401
 7624TIP3   OH244286   6.248   4.882   6.173  0.0313 -0.2704  0.4770
 7624TIP3    H144287   6.193   4.804   6.177 -1.0651  0.4760  0.5172
 7624TIP3    H244288   6.225   4.932   6.252 -0.1149  0.6178 -0.1118
 7625TIP3   OH244289   5.632   3.301  15.872  0.7510 -0.9493  0.3200
 7625TIP3    H144290   5.659   3.376  15.925 -0.2681  0.4976 -1.0825
 7625TIP3    H244291   5.699   3.296  15.803  0.4125 -0.8352 -0.0204
 7626TIP3   OH244292   4.068   1.243   2.304 -0.1321  0.1089  0.2876
 7626TIP3    H144293   3.981   1.257   2.342 -0.0902  1.6517 -0.0985
 7626TIP3    H244294   4.113   1.327   2.315  0.5870 -0.0220 -1.3229
 7627TIP3   OH244295   4.129   2.019  13.635  0.3039 -0.3082  0.2516
 7627TIP3    H144296   4.201   2.081  13.628 -0.4569  0.7109  1.0409
 7627TIP3    H244297   4.052   2.074  13.650 -0.8001 -1.2921 -1.4057
 7628TIP3   OH244298   3.544   3.487   0.016 -0.1155  0.6712  0.0139
 7628TIP3    H144299   3.562   3.549   0.087  0.5130  0.0170  0.4363
 7628TIP3    H244300   3.619   3.429   0.015 -0.1853  0.5701 -1.1002
 7629TIP3   OH244301   0.862   3.949  11.638 -0.1630  0.1396  0.0942
 7629TIP3    H144302   0.793   3.940  11.572 -0.5852  1.7671  0.2645
 7629TIP3    H244303   0.941   3.917  11.594 -0.6387  0.1684 -0.8192
 7630TIP3   OH244304   2.544   2.963  13.394  0.5525  0.4606  0.1018
 7630TIP3    H144305   2.517   3.048  13.359  0.6894  0.5622  0.2449
 7630TIP3    H244306   2.627   2.979  13.438  0.7752  0.1719 -0.2112
 7631TIP3   OH244307   4.634   2.593  11.204  0.0866 -0.4560  0.4034
 7631TIP3    H144308   4.614   2.565  11.115  0.6941 -0.9498  0.4141
 7631TIP3    H244309   4.709   2.652  11.194 -0.2698  0.0312  0.5287
 7632TIP3   OH244310   3.009   6.411  14.677 -0.0020 -0.3731  0.2377
 7632TIP3    H144311   3.002   6.396  14.583  1.0835  3.3700 -0.6019
 7632TIP3    H244312   3.092   6.457  14.689 -0.1250 -0.6743  3.0613
 7633TIP3   OH244313   0.698   4.715   0.756  0.4317 -0.1844 -0.0449
 7633TIP3    H144314   0.694   4.806   0.730  0.9335  0.2125  1.1654
 7633TIP3    H244315   0.700   4.717   0.852 -1.9326 -1.5727  0.1129
 7634TIP3   OH244316   5.248   3.369  15.602 -0.4370 -0.0739  0.1451
 7634TIP3    H144317   5.269   3.342  15.692  0.3964  0.7867  0.2188
 7634TIP3    H244318   5.152   3.374  15.601 -0.4284  0.4988  1.1608
 7635TIP3   OH244319   6.328   0.844   0.395 -0.3235 -0.0745  0.6453
 7635TIP3    H144320   6.255   0.826   0.335 -0.0523  1.2080 -0.1095
 7635TIP3    H244321   6.399   0.788   0.363 -0.0579  0.8752 -0.5079
 7636TIP3   OH244322   6.414   2.250  14.930  0.6800 -0.0369 -0.0495
 7636TIP3    H144323   6.501   2.234  14.894  0.3149 -0.5368 -0.7283
 7636TIP3    H244324   6.355   2.243  14.855  0.1426  1.2034  0.2425
 7637TIP3   OH244325   4.198   1.762  16.351 -0.0050 -0.2531 -0.0552
 7637TIP3    H144326   4.239   1.823  16.413  0.8664 -0.9401  0.0688
 7637TIP3    H244327   4.116   1.737  16.394 -0.1992  0.5449  0.0584
 7638TIP3   OH244328   4.126   2.225   0.129  0.4390 -0.0588 -0.5660
 7638TIP3    H144329   4.072   2.150   0.103  0.5609  0.3347 -2.0180
 7638TIP3    H244330   4.176   2.193   0.204 -2.1162 -0.2960  1.1649
 7639TIP3   OH244331   5.430   5.672   1.059  0.0135 -0.0405 -0.1377
 7639TIP3    H144332   5.335   5.679   1.064  0.1518  1.8305  0.4115
 7639TIP3    H244333   5.445   5.619   0.980 -1.4602  0.5883 -0.8913
 7640TIP3   OH244334   1.701   0.922   1.103 -0.8653 -0.1313 -0.0658
 7640TIP3    H144335   1.721   0.968   1.022 -0.8168 -0.6468 -0.3515
 7640TIP3    H244336   1.623   0.965   1.137  0.4030  1.5993  0.8124
 7641TIP3   OH244337   4.582   1.387   3.116  1.4161 -0.5225 -0.6531
 7641TIP3    H144338   4.511   1.327   3.092  0.4972  0.9089 -1.6668
 7641TIP3    H244339   4.634   1.338   3.180 -0.5942 -1.5564  0.2765
 7642TIP3   OH244340   5.646   3.054  13.104  0.5966  0.1281 -0.4224
 7642TIP3    H144341   5.600   2.991  13.160 -0.6126  1.8631  0.6488
 7642TIP3    H244342   5.607   3.041  13.017 -0.8974  0.5415  0.1556
 7643TIP3   OH244343   2.247   2.047   3.794 -0.1896  0.6151  0.1643
 7643TIP3    H144344   2.208   2.102   3.862  0.4955  0.1039  0.9905
 7643TIP3    H244345   2.310   2.104   3.750 -1.5829  1.3464 -0.9571
 7644TIP3   OH244346   0.986   2.283  11.701 -0.4545  0.1756  0.1622
 7644TIP3    H144347   0.998   2.340  11.625 -0.1111  1.4379  1.1204
 7644TIP3    H244348   0.943   2.339  11.766  1.4420 -0.1043  1.7443
 7645TIP3   OH244349   1.154   6.770  12.799 -0.1239 -0.0797 -0.3403
 7645TIP3    H144350   1.212   6.740  12.868 -0.5865 -0.6861 -0.2130
 7645TIP3    H244351   1.124   6.690  12.755 -0.5716  0.2413 -0.6387
 7646TIP3   OH244352   1.836   5.473  12.779 -0.0367  0.1216  0.5340
 7646TIP3    H144353   1.763   5.533  12.795  0.3575  0.9678 -0.7332
 7646TIP3    H244354   1.914   5.527  12.789  0.4928 -0.9559  2.6638
 7647TIP3   OH244355   3.414   3.834   5.954  1.2145  0.2058 -0.4165
 7647TIP3    H144356   3.351   3.827   6.025 -0.3070 -0.9080 -1.7948
 7647TIP3    H244357   3.406   3.924   5.924  1.2933  0.4576  0.3044
 7648TIP3   OH244358   0.920   4.485   5.291  0.6897 -0.0577  0.1715
 7648TIP3    H144359   0.849   4.440   5.246  0.2101  1.7348 -0.9566
 7648TIP3    H244360   1.000   4.447   5.254  0.4093 -2.3187  1.6834
 7649TIP3   OH244361   6.193   6.627   2.246  0.1179  0.6299 -0.0309
 7649TIP3    H144362   6.196   6.609   2.340 -0.1405  1.7856  0.2192
 7649TIP3    H244363   6.253   6.564   2.207 -0.4053 -0.4233  0.8099
 7650TIP3   OH244364   2.147   6.425  15.189  0.7012  0.1916  0.1187
 7650TIP3    H144365   2.218   6.489  15.183  0.9549 -0.1793 -1.1239
 7650TIP3    H244366   2.077   6.463  15.136  0.0954  0.3835  1.0418
 7651TIP3   OH244367   6.162   0.962  15.611  0.4107 -0.1133 -0.3062
 7651TIP3    H144368   6.202   0.945  15.697  0.1439  1.0963  0.0768
 7651TIP3    H244369   6.236   0.967  15.551  0.7297  0.6886  0.1495
 7652TIP3   OH244370   2.059   1.584  14.608 -0.3956  0.2414 -0.4511
 7652TIP3    H144371   2.040   1.658  14.667 -0.3293 -0.3437  0.3189
 7652TIP3    H244372   2.154   1.577  14.608 -0.3604  0.6239 -1.1245
 7653TIP3   OH244373   1.336   4.171  14.221  0.2772  0.5153 -0.1922
 7653TIP3    H144374   1.277   4.246  14.220  0.5324  0.7215 -1.3819
 7653TIP3    H244375   1.279   4.096  14.205  0.1028  0.5094  0.4225
 7654TIP3   OH244376   6.306   4.741  13.554 -0.5721 -0.0584 -0.3941
 7654TIP3    H144377   6.373   4.763  13.490  0.8229 -0.4436  0.8919
 7654TIP3    H244378   6.227   4.726  13.501  0.4892 -0.2294 -1.9982
 7655TIP3   OH244379   6.341   6.451  16.997  0.2085  0.1633 -0.4791
 7655TIP3    H144380   6.340   6.358  16.974 -4.3267 -0.7282  2.0465
 7655TIP3    H244381   6.429   6.468  17.029  1.4928 -2.9215 -2.0025
 7656TIP3   OH244382   2.990   4.574   1.665 -0.1387  0.2805 -0.3731
 7656TIP3    H144383   2.956   4.643   1.722 -1.6473 -0.2820 -0.5415
 7656TIP3    H244384   2.912   4.525   1.638  0.9170 -1.8440  0.1919
 7657TIP3   OH244385   0.719   1.922  12.463  0.4981 -0.2601  0.0628
 7657TIP3    H144386   0.720   1.833  12.498 -2.0294  0.0133  1.0531
 7657TIP3    H244387   0.668   1.915  12.382  0.2528  0.2822  0.1638
 7658TIP3   OH244388   5.136   2.440   1.162  0.7083  0.1499  0.0694
 7658TIP3    H144389   5.122   2.532   1.187  1.0222  0.2971 -0.2930
 7658TIP3    H244390   5.227   2.422   1.187  0.6800 -0.0325  0.0419
 7659TIP3   OH244391   1.754   2.489   6.639  0.1332  0.1665  0.3913
 7659TIP3    H144392   1.770   2.440   6.558 -0.7610 -1.2512  1.0316
 7659TIP3    H244393   1.660   2.511   6.636  0.3527  1.1966  0.4889
 7660TIP3   OH244394   3.653   5.555  11.346 -0.0493  0.0296 -0.5576
 7660TIP3    H144395   3.744   5.543  11.320 -0.1900 -0.9706 -0.6380
 7660TIP3    H244396   3.633   5.646  11.326  1.8315  1.1797  2.2430
 7661TIP3   OH244397   1.932   0.799  14.156  0.8240  0.5915 -0.9700
 7661TIP3    H144398   1.938   0.818  14.250 -0.5372  1.2996 -1.0025
 7661TIP3    H244399   2.023   0.793  14.127  1.2618 -0.1983  0.4959
 7662TIP3   OH244400   6.474   4.989   4.990 -0.1405  0.4369 -0.2946
 7662TIP3    H144401   6.391   5.029   5.015  1.5342  3.5640  0.8777
 7662TIP3    H244402   6.457   4.894   4.990 -3.5040  0.9363  0.3670
 7663TIP3   OH244403   0.120   2.103   4.189  0.1067 -0.1016  0.5868
 7663TIP3    H144404   0.045   2.049   4.166 -0.5356  0.2889  1.6788
 7663TIP3    H244405   0.125   2.097   4.284  0.7179  0.8525  0.6246
 7664TIP3   OH244406   1.571   1.352  11.702 -0.1648 -0.4067 -0.2591
 7664TIP3    H144407   1.507   1.330  11.769  0.0496  0.2510  0.1764
 7664TIP3    H244408   1.562   1.284  11.636 -1.4071 -0.2534 -0.2691
 7665TIP3   OH244409   0.077   6.259   1.584  0.3881  0.4492 -0.0980
 7665TIP3    H144410   0.105   6.330   1.525  1.4760  0.0860 -0.0458
 7665TIP3    H244411   0.003   6.296   1.632  1.8421  2.1144  0.9868
 7666TIP3   OH244412   4.842   2.126   1.811  0.0688 -0.2262  0.3277
 7666TIP3    H144413   4.926   2.085   1.833  0.5011  0.9775  0.9936
 7666TIP3    H244414   4.799   2.062   1.754  1.4491 -0.8607 -0.0620
 7667TIP3   OH244415   0.147   5.893   3.845 -0.7218  0.0785  0.2209
 7667TIP3    H144416   0.164   5.926   3.933 -2.0378  0.6958  0.2624
 7667TIP3    H244417   0.170   5.967   3.788  1.1641 -0.6701 -0.0710
 7668TIP3   OH244418   5.439   2.690   5.621 -0.4477  0.5526  0.4679
 7668TIP3    H144419   5.410   2.781   5.615  0.7096  0.9415  0.5062
 7668TIP3    H244420   5.530   2.692   5.590 -0.9637 -0.9005 -1.3394
 7669TIP3   OH244421   2.630   6.736  13.576 -0.0671 -0.4584  0.2609
 7669TIP3    H144422   2.720   6.758  13.553  0.2035 -0.3601  1.3498
 7669TIP3    H244423   2.613   6.785  13.656 -0.9297 -0.8520  0.3318
 7670TIP3   OH244424   4.513   4.149  11.525 -0.3145 -0.0808 -0.3170
 7670TIP3    H144425   4.435   4.094  11.531 -0.0415 -0.4622 -0.2855
 7670TIP3    H244426   4.483   4.235  11.554 -0.5480 -0.3949  0.3967
 7671TIP3   OH244427   1.821   4.116  13.324  0.4552 -0.5104  0.1054
 7671TIP3    H144428   1.770   4.035  13.318  1.9553 -1.4447 -0.6661
 7671TIP3    H244429   1.755   4.185  13.329 -0.9096 -1.8480  2.9604
 7672TIP3   OH244430   1.563   6.715  10.871 -0.4802 -0.1700 -0.6065
 7672TIP3    H144431   1.480   6.667  10.860  0.7435 -3.0121  1.2183
 7672TIP3    H244432   1.606   6.706  10.786 -1.0322 -0.8236 -0.8382
 7673TIP3   OH244433   4.622   5.690  16.427  0.1826  0.4896 -0.2594
 7673TIP3    H144434   4.607   5.595  16.420  0.7908  0.2114  1.4764
 7673TIP3    H244435   4.536   5.727  16.446  0.2816 -0.0290  1.3241
 7674TIP3   OH244436   4.976   1.000  16.585 -0.1326  0.1150  0.2478
 7674TIP3    H144437   5.029   1.049  16.646 -0.0385 -0.5102  0.6711
 7674TIP3    H244438   4.933   0.933  16.638  0.3475 -0.7583 -0.4462
 7675TIP3   OH244439   4.341   1.142   5.348 -0.1472  0.3667  0.9513
 7675TIP3    H144440   4.389   1.070   5.307 -0.0113  0.0677  1.6206
 7675TIP3    H244441   4.268   1.160   5.288  0.1061  0.0093  0.5341
 7676TIP3   OH244442   6.089   5.584  11.401 -0.3513  0.5928  0.1800
 7676TIP3    H144443   6.134   5.660  11.439 -0.0726  1.6127 -2.0335
 7676TIP3    H244444   6.155   5.541  11.347 -0.8718 -0.4700  0.3573
 7677TIP3   OH244445   1.341   6.670  13.936 -0.5783  0.2536 -0.0955
 7677TIP3    H144446   1.305   6.730  14.001 -0.9042  0.1567 -0.1857
 7677TIP3    H244447   1.282   6.679  13.861  0.3062  1.0512 -0.7280
 7678TIP3   OH244448   6.263   4.476   2.468 -0.6371  0.3229  0.6295
 7678TIP3    H144449   6.347   4.519   2.483 -0.6736  0.9462 -0.8098
 7678TIP3    H244450   6.277   4.386   2.498  0.6693  0.3127  0.0717
 7679TIP3   OH244451   1.786   0.446   4.101 -0.4049 -0.5624  0.1482
 7679TIP3    H144452   1.758   0.374   4.157 -2.6328  0.5370  0.5338
 7679TIP3    H244453   1.852   0.492   4.153 -0.9715 -0.7203  1.0241
 7680TIP3   OH244454   4.467   1.664  13.110  0.2154 -0.7985  0.1388
 7680TIP3    H144455   4.519   1.711  13.045  0.2833 -1.4220 -0.2716
 7680TIP3    H244456   4.431   1.589  13.062 -1.2386 -0.2723  0.3547
 7681TIP3   OH244457   2.808   2.531   1.808 -0.2860 -0.3502 -0.4364
 7681TIP3    H144458   2.823   2.597   1.741 -0.9381  0.2477 -0.0108
 7681TIP3    H244459   2.775   2.580   1.883 -1.2608 -1.2244 -0.2724
 7682TIP3   OH244460   0.681   1.875   5.077 -0.5224  0.3747 -0.2809
 7682TIP3    H144461   0.628   1.819   5.020  0.2548 -0.2046 -0.4526
 7682TIP3    H244462   0.706   1.949   5.023 -0.7386  0.4030 -0.3436
 7683TIP3   OH244463   3.998   0.021  13.698 -0.0939 -0.1502 -0.3366
 7683TIP3    H144464   3.921   0.057  13.654  0.8202  1.6015 -0.6345
 7683TIP3    H244465   4.049  -0.020  13.628 -0.2896 -0.4545 -0.3029
 7684TIP3   OH244466   6.292   2.116  12.528  0.1127  0.4196  0.1659
 7684TIP3    H144467   6.321   2.166  12.451 -0.0828  1.1608  0.5640
 7684TIP3    H244468   6.360   2.049  12.540  0.0370  0.1629 -0.7726
 7685TIP3   OH244469   5.755   2.360   2.056 -0.0954  0.6651  0.0836
 7685TIP3    H144470   5.714   2.407   2.129 -1.3289  0.2797 -0.3353
 7685TIP3    H244471   5.704   2.279   2.049  1.5327 -0.4300  0.3344
 7686TIP3   OH244472   4.712   0.975   4.232 -0.2839 -0.1018 -0.3032
 7686TIP3    H144473   4.806   0.954   4.231 -0.3035 -0.3064  0.8450
 7686TIP3    H244474   4.669   0.890   4.221 -0.3369 -0.1305  0.1133
 7687TIP3   OH244475   4.231   4.994  16.894 -0.0482 -0.0543  0.1863
 7687TIP3    H144476   4.158   5.050  16.919 -1.2136 -1.9395  1.2284
 7687TIP3    H244477   4.304   5.024  16.947 -0.9285 -0.1361  1.4818
 7688TIP3   OH244478   4.986   3.292   0.019 -0.3599  0.6117  0.0207
 7688TIP3    H144479   5.060   3.246   0.058 -0.6653  0.2124  0.1373
 7688TIP3    H244480   4.923   3.223  -0.001 -0.7941  0.9727  0.1365
 7689TIP3   OH244481   4.820   1.778  11.711  0.2823  0.1982 -0.3418
 7689TIP3    H144482   4.845   1.690  11.684 -1.1962 -0.2451 -0.3492
 7689TIP3    H244483   4.867   1.791  11.794  1.2977 -0.1815 -0.8321
 7690TIP3   OH244484   0.722   4.320   2.670 -0.2854 -0.3290  0.0195
 7690TIP3    H144485   0.773   4.240   2.682 -0.9885 -0.8699 -0.5825
 7690TIP3    H244486   0.769   4.368   2.601  0.3130 -0.0611  0.6005
 7691TIP3   OH244487   5.758   1.212  12.196  0.4071  0.5461 -0.2350
 7691TIP3    H144488   5.734   1.285  12.138  1.0244 -0.0029 -1.1874
 7691TIP3    H244489   5.758   1.251  12.283 -0.6328  1.3633 -0.5737
 7692TIP3   OH244490   2.297   4.000  15.578 -0.0921  0.1274 -0.1533
 7692TIP3    H144491   2.316   4.048  15.658 -0.3468  2.9420 -1.6566
 7692TIP3    H244492   2.380   3.999  15.530  0.1110 -1.6989  0.1532
 7693TIP3   OH244493   1.318   1.722   1.919 -0.4477 -0.6744  0.3092
 7693TIP3    H144494   1.278   1.655   1.975 -0.4907 -0.6520  0.3059
 7693TIP3    H244495   1.386   1.761   1.972 -1.5305  0.4414  0.9228
 7694TIP3   OH244496   2.241   4.161   2.722 -0.3445  0.2824 -0.0648
 7694TIP3    H144497   2.249   4.182   2.629  0.2249  1.1049  0.1555
 7694TIP3    H244498   2.149   4.174   2.743 -0.7998 -1.4499 -0.8597
 7695TIP3   OH244499   0.038   1.042  11.187 -0.0029  0.2774 -0.2096
 7695TIP3    H144500  -0.051   1.011  11.207 -0.3238  1.6973  0.7801
 7695TIP3    H244501   0.084   1.039  11.271  0.7987 -0.1227 -0.6504
 7696TIP3   OH244502   4.920   3.999   3.791  0.5757  0.2746 -0.4815
 7696TIP3    H144503   4.842   4.009   3.736  1.3509  1.2069 -1.4663
 7696TIP3    H244504   4.887   4.003   3.881 -0.5066  0.7251 -0.8791
 7697TIP3   OH244505   5.945   4.197   4.148  0.2260 -0.1705 -0.1127
 7697TIP3    H144506   5.952   4.289   4.172  3.6978 -0.1748 -0.5931
 7697TIP3    H244507   5.921   4.153   4.230  0.9877  0.9479  0.7469
 7698TIP3   OH244508   3.805   2.437   2.588  0.1826  0.4616  0.3424
 7698TIP3    H144509   3.835   2.522   2.620 -0.5601  1.0876 -0.5499
 7698TIP3    H244510   3.871   2.375   2.618  0.9019  1.3970  0.7516
 7699TIP3   OH244511   5.341   2.392   0.567  0.2650  0.5550 -0.6285
 7699TIP3    H144512   5.427   2.381   0.526  1.6923  2.6667  1.5237
 7699TIP3    H244513   5.347   2.344   0.650 -1.3683 -0.8553 -1.2612
 7700TIP3   OH244514   2.351   1.424   5.781  0.0274 -0.4685 -0.4138
 7700TIP3    H144515   2.324   1.507   5.820  2.1676 -0.4688  1.2354
 7700TIP3    H244516   2.435   1.443   5.739  2.3355 -2.3204  2.8341
 7701TIP3   OH244517   4.819   5.721   5.289 -0.0970  0.2691  0.5918
 7701TIP3    H144518   4.910   5.743   5.307  0.5240 -2.2377  0.9132
 7701TIP3    H244519   4.801   5.645   5.345 -1.9679 -0.1068 -0.4293
 7702TIP3   OH244520   4.184   0.786   5.063 -0.0796  0.0842  0.5830
 7702TIP3    H144521   4.227   0.701   5.067  1.4480  0.8085  0.0166
 7702TIP3    H244522   4.235   0.842   5.121 -0.0900  1.0338 -0.2970
 7703TIP3   OH244523   2.822   3.618  16.120 -0.7182 -0.0494 -0.3190
 7703TIP3    H144524   2.877   3.677  16.171 -1.4807  0.3274  0.0850
 7703TIP3    H244525   2.764   3.577  16.184  1.1374 -2.8591 -0.2403
 7704TIP3   OH244526   2.892   5.051   2.926 -0.4328 -0.0363 -0.5311
 7704TIP3    H144527   2.916   5.132   2.970 -0.0257  0.0087 -0.8291
 7704TIP3    H244528   2.811   5.071   2.881 -0.2278  0.2669 -0.7696
 7705TIP3   OH244529   1.802   6.529  14.408  0.4048 -0.0567  0.0978
 7705TIP3    H144530   1.859   6.533  14.332 -2.0535 -2.4491 -2.0633
 7705TIP3    H244531   1.774   6.438  14.413 -1.2610  0.4874  2.5471
 7706TIP3   OH244532   1.342   2.295   5.462 -0.3040 -0.1062 -0.1031
 7706TIP3    H144533   1.432   2.264   5.453 -0.3280  0.1758 -1.6102
 7706TIP3    H244534   1.332   2.315   5.555  0.3643 -2.6339  0.5964
 7707TIP3   OH244535   3.985   4.467   4.551 -0.6484  0.2229 -0.2016
 7707TIP3    H144536   3.986   4.488   4.644 -1.3577 -0.4579 -0.0291
 7707TIP3    H244537   4.077   4.459   4.527 -0.4740 -0.6020  0.6810
 7708TIP3   OH244538   6.458   6.592   5.407  1.0374 -0.2144  0.1644
 7708TIP3    H144539   6.539   6.577   5.456  0.4585 -0.4267  1.0761
 7708TIP3    H244540   6.425   6.504   5.388  0.5293 -0.1260  0.6308
 7709TIP3   OH244541   5.575   4.939   4.760  0.2797 -0.5588 -0.2957
 7709TIP3    H144542   5.594   4.846   4.765 -0.4475 -0.7380 -0.6643
 7709TIP3    H244543   5.523   4.957   4.838  0.4136 -0.4598 -0.2287
 7710TIP3   OH244544   5.359   0.497   0.512  0.1378  0.1508  0.5505
 7710TIP3    H144545   5.369   0.537   0.426 -0.6728  0.8046  0.7425
 7710TIP3    H244546   5.373   0.403   0.497 -1.2277  0.0916 -0.5407
 7711TIP3   OH244547   3.173   6.380  14.394 -0.1998  0.2598  0.0338
 7711TIP3    H144548   3.188   6.361  14.301 -0.2823  2.3603 -0.4476
 7711TIP3    H244549   3.079   6.396  14.400  0.0358  1.7507  0.1229
 7712TIP3   OH244550   2.210   3.059  11.593  0.0636  0.1172  0.3545
 7712TIP3    H144551   2.302   3.032  11.593 -0.1239 -0.5584  0.0800
 7712TIP3    H244552   2.203   3.125  11.661  0.7004 -0.0228  0.5540
 7713TIP3   OH244553   2.516   4.027  13.731 -0.1705  0.1796 -0.0614
 7713TIP3    H144554   2.454   4.083  13.684 -0.5383 -1.2197 -1.3436
 7713TIP3    H244555   2.601   4.070  13.718 -0.5865  1.0476 -0.0027
 7714TIP3   OH244556   0.215   3.174   4.228  0.8071  0.4206  0.4840
 7714TIP3    H144557   0.235   3.267   4.242 -0.7586  0.7657  0.5826
 7714TIP3    H244558   0.147   3.174   4.161  2.2978 -0.8081 -1.1168
 7715TIP3   OH244559   4.846   1.522  12.849  0.1012  0.4711 -0.6732
 7715TIP3    H144560   4.898   1.444  12.832 -0.3364 -0.0730  0.3745
 7715TIP3    H244561   4.903   1.578  12.903 -1.0466 -1.0815  2.4066
 7716TIP3   OH244562   6.723   2.210   4.670  0.1676  0.0715 -0.3540
 7716TIP3    H144563   6.741   2.300   4.645  0.2997  0.5731  1.3897
 7716TIP3    H244564   6.635   2.193   4.638 -0.9669  1.7855  1.6150
 7717TIP3   OH244565   0.041   1.423  16.921  0.3678  0.4920 -0.2988
 7717TIP3    H144566   0.051   1.474  16.841  1.1305  0.2883 -0.3426
 7717TIP3    H244567   0.007   1.338  16.891  0.5492  0.4536 -0.3953
 7718TIP3   OH244568   2.087   2.704  14.902 -0.0809 -1.1685  0.0072
 7718TIP3    H144569   2.097   2.798  14.891 -0.5191 -1.0656  0.4217
 7718TIP3    H244570   2.166   2.666  14.864  0.1990 -0.6196  0.0361
 7719TIP3   OH244571   5.889   0.117   5.142  0.3324 -0.1345 -0.7242
 7719TIP3    H144572   5.819   0.170   5.180 -0.0179  0.2688 -1.9001
 7719TIP3    H244573   5.933   0.078   5.218  0.9787  2.2713  0.2152
 7720TIP3   OH244574   5.391   2.754  14.503 -0.1620  0.0396 -0.5753
 7720TIP3    H144575   5.398   2.844  14.474 -1.4215  0.0222 -0.9604
 7720TIP3    H244576   5.335   2.757  14.581  0.1770 -0.3582 -0.3063
 7721TIP3   OH244577   2.028   4.946   2.855  0.7697  0.6081 -0.1451
 7721TIP3    H144578   1.936   4.922   2.869  1.0076  0.2464  0.9418
 7721TIP3    H244579   2.051   4.906   2.772 -0.1953  1.1197 -0.6764
 7722TIP3   OH244580   1.044   0.766   6.396 -0.0644  0.8915 -0.2428
 7722TIP3    H144581   0.981   0.705   6.356 -0.3606  1.7473 -1.1336
 7722TIP3    H244582   0.996   0.804   6.469 -0.0845  0.4865 -0.0436
 7723TIP3   OH244583   5.330   5.587   3.880 -0.1785  0.0523 -0.1238
 7723TIP3    H144584   5.285   5.662   3.919  0.5741  1.4451 -1.7579
 7723TIP3    H244585   5.420   5.618   3.869  0.9588 -2.2120  1.9276
 7724TIP3   OH244586   5.729   6.070  13.663  0.1563 -0.3008  0.2681
 7724TIP3    H144587   5.810   6.106  13.627  0.2097 -1.7328 -1.0834
 7724TIP3    H244588   5.758   6.009  13.731  0.1362  0.4099  0.9301
 7725TIP3   OH244589   6.163   2.521   1.909 -0.0229 -0.2336 -0.4421
 7725TIP3    H144590   6.176   2.582   1.837 -0.2443 -1.5780 -1.6485
 7725TIP3    H244591   6.139   2.439   1.868 -1.9855 -0.5930  1.2266
 7726TIP3   OH244592   6.190   4.570   5.106 -0.4663  0.0931  0.5289
 7726TIP3    H144593   6.156   4.561   5.017  0.9252 -0.5300  0.0377
 7726TIP3    H244594   6.233   4.487   5.124 -0.2807  0.4060  1.5913
 7727TIP3   OH244595   2.301   2.925   4.463 -0.1584 -0.0225 -0.1030
 7727TIP3    H144596   2.386   2.957   4.432  0.0980  0.3998  0.9592
 7727TIP3    H244597   2.299   2.951   4.555  0.3444 -3.5996  1.0870
 7728TIP3   OH244598   5.488   2.461  12.864  0.0017 -0.0423 -0.4558
 7728TIP3    H144599   5.439   2.535  12.830 -0.9844 -0.7922 -0.7365
 7728TIP3    H244600   5.456   2.449  12.953  1.7073  1.1686  0.3626
 7729TIP3   OH244601   0.951   1.317   2.080  0.6211  0.1628 -0.4462
 7729TIP3    H144602   1.026   1.258   2.074  1.0120  0.5063  0.6778
 7729TIP3    H244603   0.876   1.263   2.055  1.1535 -0.3706 -0.9333
 7730TIP3   OH244604   3.286   6.739  11.605 -0.0877  0.2943  0.0686
 7730TIP3    H144605   3.350   6.718  11.674  0.6262  1.4733 -0.2043
 7730TIP3    H244606   3.231   6.807  11.645 -1.2303 -0.7563  0.3209
 7731TIP3   OH244607   3.398   1.504   5.474 -0.6629  0.0160 -0.2797
 7731TIP3    H144608   3.318   1.455   5.495  0.0588 -1.5929 -1.1360
 7731TIP3    H244609   3.444   1.449   5.411  0.4867  1.5529 -0.8320
 7732TIP3   OH244610   0.563   3.592   5.446  0.5087 -1.0509  0.2777
 7732TIP3    H144611   0.600   3.636   5.522  1.0176 -0.0908 -0.4929
 7732TIP3    H244612   0.633   3.533   5.416  0.9989 -0.1229 -0.4676
 7733TIP3   OH244613   2.566   0.836  10.872 -0.3250 -0.3405 -0.7118
 7733TIP3    H144614   2.660   0.817  10.862  0.5312  0.9668  2.9760
 7733TIP3    H244615   2.564   0.920  10.918 -3.3097 -0.4922 -0.4055
 7734TIP3   OH244616   3.674   3.619  12.032  0.4354 -0.6176 -0.3194
 7734TIP3    H144617   3.606   3.568  11.989  0.3555 -0.8818  0.1155
 7734TIP3    H244618   3.755   3.572  12.014  0.4029 -0.7224 -0.1990
 7735TIP3   OH244619   5.544   4.854  13.227  0.6422 -0.1662 -0.6060
 7735TIP3    H144620   5.485   4.887  13.295  0.1749  0.2970 -1.2200
 7735TIP3    H244621   5.629   4.891  13.249  0.5020 -0.0448 -0.2552
 7736TIP3   OH244622   2.904   6.818  13.576  0.8812  0.0015  0.3552
 7736TIP3    H144623   2.950   6.824  13.492  0.0031  0.0638 -0.1294
 7736TIP3    H244624   2.973   6.831  13.642  1.5063  0.3730 -0.3570
 7737TIP3   OH244625   3.798   1.537   3.565 -0.0427 -0.2883 -0.6449
 7737TIP3    H144626   3.792   1.600   3.637  0.6401  0.1447 -0.9625
 7737TIP3    H244627   3.708   1.505   3.554 -0.0411 -0.9106  0.8766
 7738TIP3   OH244628   2.159   6.093   5.149  0.6553  0.4027 -0.1644
 7738TIP3    H144629   2.121   6.025   5.204  0.4204  0.8294  0.2036
 7738TIP3    H244630   2.105   6.094   5.070 -0.2561  1.1590  0.4470
 7739TIP3   OH244631   4.734   3.363  14.255 -0.1805 -0.4246 -0.1999
 7739TIP3    H144632   4.645   3.380  14.284  0.2837  0.5530  0.7226
 7739TIP3    H244633   4.770   3.450  14.235  0.5644 -0.8054 -0.5767
 7740TIP3   OH244634   4.623   0.379  12.400  0.2886 -0.0315  0.8136
 7740TIP3    H144635   4.545   0.412  12.446  2.0541  0.9031  3.3821
 7740TIP3    H244636   4.628   0.287  12.425 -1.0967 -0.7084 -1.1399
 7741TIP3   OH244637   6.306   3.522  14.483  0.0440  0.2577  0.1591
 7741TIP3    H144638   6.285   3.431  14.503 -1.5439  0.7628  0.9934
 7741TIP3    H244639   6.396   3.533  14.514 -0.2244 -0.6621  1.3511
 7742TIP3   OH244640   2.674   6.808  15.260  0.1163  0.2488 -0.7086
 7742TIP3    H144641   2.593   6.801  15.311  1.9803 -0.1288  2.4678
 7742TIP3    H244642   2.681   6.724  15.214 -1.3565  0.3812 -1.2351
 7743TIP3   OH244643   0.708   3.912   3.878  0.6649 -0.1430 -0.3222
 7743TIP3    H144644   0.660   3.966   3.941  0.1851 -0.4133 -0.4513
 7743TIP3    H244645   0.714   3.826   3.920 -0.2987 -0.5278 -0.9478
 7744TIP3   OH244646   3.451   2.082   5.509 -0.0877  0.7175  0.5617
 7744TIP3    H144647   3.388   2.154   5.515 -0.8589  0.0916  0.1393
 7744TIP3    H244648   3.467   2.072   5.415 -0.6040 -0.1729  0.5574
 7745TIP3   OH244649   6.369   0.639   1.454 -0.4511 -0.2294 -0.3050
 7745TIP3    H144650   6.390   0.730   1.477 -0.5175  0.0664 -1.3777
 7745TIP3    H244651   6.386   0.634   1.360  1.1932 -1.7784  0.0164
 7746TIP3   OH244652   0.289   4.990   4.513  0.2202  0.1705  0.5146
 7746TIP3    H144653   0.338   5.045   4.451 -0.3998  1.5776  1.2314
 7746TIP3    H244654   0.305   5.029   4.598 -1.0879 -0.1229  0.9258
 7747TIP3   OH244655   1.998   6.596  15.038 -0.0662  0.4059  0.3591
 7747TIP3    H144656   1.992   6.691  15.026  0.6242  0.7016  2.0735
 7747TIP3    H244657   2.058   6.567  14.969  2.2976  1.7089  1.7548
 7748TIP3   OH244658   1.627   3.106   0.249  0.0663  0.0557 -0.0302
 7748TIP3    H144659   1.570   3.167   0.297  0.2258  2.1620 -2.2928
 7748TIP3    H244660   1.716   3.138   0.266  0.0572  2.4946 -3.4428
 7749TIP3   OH244661   0.606   6.384   4.502 -0.3104  0.5783 -0.2921
 7749TIP3    H144662   0.537   6.393   4.567 -1.2317  0.6259 -1.2531
 7749TIP3    H244663   0.675   6.443   4.532 -0.2199 -0.2486  1.2465
 7750TIP3   OH244664   5.816   2.551   4.522  0.3749  0.2625  0.1021
 7750TIP3    H144665   5.734   2.600   4.523 -0.0925 -0.3831 -1.8984
 7750TIP3    H244666   5.882   2.615   4.550 -0.5038  1.4340 -0.4049
 7751TIP3   OH244667   6.081   3.135   4.526  0.1769 -0.5431  0.3058
 7751TIP3    H144668   6.120   3.064   4.578 -0.1787 -1.0378 -0.1005
 7751TIP3    H244669   6.156   3.190   4.501  0.2333  0.3984  2.3459
 7752TIP3   OH244670   1.705   4.674  11.915 -0.0142  0.4350 -0.2765
 7752TIP3    H144671   1.635   4.645  11.974  2.2693  1.8019  3.4255
 7752TIP3    H244672   1.742   4.593  11.880 -0.4314 -0.5671  1.4992
 7753TIP3   OH244673   5.488   5.059  14.508 -0.0070  0.0492 -0.5615
 7753TIP3    H144674   5.425   5.000  14.467  0.1382 -0.3326 -0.2377
 7753TIP3    H244675   5.473   5.144  14.466 -2.6551  0.6733  1.3768
 7754TIP3   OH244676   1.279   3.395  13.456  0.0020 -0.1397  0.0523
 7754TIP3    H144677   1.289   3.477  13.505  1.7528  1.0737 -2.1259
 7754TIP3    H244678   1.362   3.350  13.468  1.9115  1.7020 -4.0932
 7755TIP3   OH244679   5.154   1.931   5.189  0.1636  0.7431 -0.7606
 7755TIP3    H144680   5.135   1.985   5.112  0.0345  1.3391 -0.3169
 7755TIP3    H244681   5.229   1.878   5.162  0.2131  1.0520 -1.2532
 7756TIP3   OH244682   4.234   5.563  11.088 -0.9407  0.7459  0.1690
 7756TIP3    H144683   4.239   5.645  11.038  0.8635  0.4504 -0.1674
 7756TIP3    H244684   4.265   5.496  11.028  1.7424  0.4457  1.7603
 7757TIP3   OH244685   1.158   1.787  12.329  0.4690  0.2049  0.0741
 7757TIP3    H144686   1.088   1.765  12.266  1.4922 -0.7591 -0.7696
 7757TIP3    H244687   1.123   1.861  12.378 -0.8987  0.1543 -0.7567
 7758TIP3   OH244688   4.449   0.702  12.172  0.5334 -0.1232  0.4663
 7758TIP3    H144689   4.481   0.615  12.197  1.3670 -0.8108 -2.5978
 7758TIP3    H244690   4.527   0.757  12.172  0.2716  0.2534  0.8716
 7759TIP3   OH244691   3.779   2.933  15.517  0.2936  0.3918  0.5029
 7759TIP3    H144692   3.822   2.854  15.483 -2.3763 -0.7674 -0.4344
 7759TIP3    H244693   3.744   2.906  15.602 -0.7795  0.4829  0.1025
 7760TIP3   OH244694   3.194   4.681   4.221  0.2828 -0.0614  0.4171
 7760TIP3    H144695   3.101   4.660   4.206 -0.0800  1.3388  0.5841
 7760TIP3    H244696   3.209   4.656   4.312 -0.3091  0.9563  0.8051
 7761TIP3   OH244697   5.410   6.687   4.636  0.6727 -0.2174  0.0362
 7761TIP3    H144698   5.370   6.754   4.581  0.1996 -0.9123 -0.4902
 7761TIP3    H244699   5.497   6.721   4.657 -0.2373  1.4157  1.3726
 7762TIP3   OH244700   1.202   4.479  12.308  0.0723 -0.3664 -0.4369
 7762TIP3    H144701   1.298   4.480  12.304  0.0873 -2.0657 -0.8225
 7762TIP3    H244702   1.180   4.566  12.343  1.8375 -0.6648  1.6278
 7763TIP3   OH244703   5.917   4.459   3.429  0.1296  0.0288  0.7914
 7763TIP3    H144704   5.926   4.407   3.349 -2.1754 -0.6804  0.9090
 7763TIP3    H244705   5.935   4.549   3.402  0.1005 -0.2988 -0.3790
 7764TIP3   OH244706   4.000   3.822   6.371 -0.3681 -0.7038  0.1481
 7764TIP3    H144707   4.047   3.757   6.422 -0.9427 -0.3005  1.2126
 7764TIP3    H244708   3.922   3.776   6.339 -0.5728 -0.6493  0.5674
 7765TIP3   OH244709   3.116   1.267  12.696 -0.5631  0.4904 -0.0807
 7765TIP3    H144710   3.105   1.214  12.617  2.2915  3.9267 -3.1447
 7765TIP3    H244711   3.041   1.328  12.695 -0.9512  0.0329  0.3788
 7766TIP3   OH244712   4.844   5.355   0.025  0.1395 -0.0156  0.0776
 7766TIP3    H144713   4.844   5.437  -0.024 -0.2329  0.6407  1.1301
 7766TIP3    H244714   4.780   5.369   0.095  0.4086 -1.0344  0.5523
 7767TIP3   OH244715   1.579   0.779   0.410  0.7146  0.0555 -0.1293
 7767TIP3    H144716   1.615   0.722   0.477  0.6580  1.5639  1.2510
 7767TIP3    H244717   1.638   0.769   0.335  2.8647  0.9012  1.3472
 7768TIP3   OH244718   4.245   3.010  11.641  0.0010  0.1912  0.2718
 7768TIP3    H144719   4.165   3.054  11.613  0.7078  0.1839 -1.9308
 7768TIP3    H244720   4.226   2.982  11.731 -1.5373  2.3549  0.7231
 7769TIP3   OH244721   6.140   1.618  14.360 -0.3055  0.7556  0.3038
 7769TIP3    H144722   6.225   1.602  14.402 -0.6926 -1.1974  0.4325
 7769TIP3    H244723   6.093   1.673  14.422 -0.8274 -1.9596  2.5512
 7770TIP3   OH244724   1.855   4.597   4.160  0.1748 -0.5130  0.3263
 7770TIP3    H144725   1.924   4.646   4.204  0.4856 -0.3468 -0.3323
 7770TIP3    H244726   1.835   4.649   4.082 -0.6350 -0.6049  0.4658
 7771TIP3   OH244727   2.702   4.051   0.003  0.1050 -0.1569 -0.4708
 7771TIP3    H144728   2.630   3.994   0.030  0.2258 -1.4333 -2.6112
 7771TIP3    H244729   2.768   3.992  -0.032  1.0711  1.1702 -0.9917
 7772TIP3   OH244730   3.834   2.560   5.794 -0.1577  0.2366 -0.6984
 7772TIP3    H144731   3.869   2.596   5.875 -0.7791 -1.0991  0.1947
 7772TIP3    H244732   3.739   2.555   5.808 -0.3723  0.7436 -1.8263
 7773TIP3   OH244733   2.617   3.892   3.546 -0.1737 -0.3085  0.5584
 7773TIP3    H144734   2.602   3.817   3.604  0.4969 -0.7911  0.1246
 7773TIP3    H244735   2.646   3.962   3.604  1.4101 -1.0626  0.7313
 7774TIP3   OH244736   0.895   0.833   4.333 -0.0932  0.4201 -0.0489
 7774TIP3    H144737   0.914   0.778   4.408  1.3030  0.2163 -0.5205
 7774TIP3    H244738   0.944   0.794   4.261  1.4019  2.5574 -0.2719
 7775TIP3   OH244739   5.507   6.423   4.940 -0.1419 -0.3914 -0.3027
 7775TIP3    H144740   5.490   6.383   4.855  0.2556  0.6494 -0.8975
 7775TIP3    H244741   5.562   6.499   4.920 -1.2203  0.7026  0.7156
 7776TIP3   OH244742   2.726   0.099  16.906  0.1836  0.4509 -0.2350
 7776TIP3    H144743   2.688   0.186  16.920 -0.5865  0.9414 -4.1130
 7776TIP3    H244744   2.650   0.043  16.890  0.7737 -0.4555  0.1148
 7777TIP3   OH244745   1.902   3.476  12.670  0.3007 -0.0299 -0.2806
 7777TIP3    H144746   1.839   3.419  12.626  0.8643  0.3610 -1.6225
 7777TIP3    H244747   1.849   3.550  12.701 -0.3069 -0.8921  0.8446
 7778TIP3   OH244748   5.541   3.990  13.782  0.2755 -0.2273  0.0918
 7778TIP3    H144749   5.513   3.983  13.691  1.0458 -0.0297 -0.1724
 7778TIP3    H244750   5.517   3.906  13.822 -0.8168 -0.0012 -0.0715
 7779TIP3   OH244751   0.477   5.279   2.583  0.6326  0.0508  0.1041
 7779TIP3    H144752   0.484   5.336   2.507 -2.8271  2.0108  1.0012
 7779TIP3    H244753   0.512   5.330   2.656  1.7160 -0.8533  0.2427
 7780TIP3   OH244754   3.620   1.964   0.837  1.5790  0.1125 -0.0068
 7780TIP3    H144755   3.684   1.907   0.881  1.0377  0.6320  1.5132
 7780TIP3    H244756   3.550   1.974   0.901  0.7722  0.9427 -1.0040
 7781TIP3   OH244757   5.988   5.411  10.984  0.0895  0.2628  0.3817
 7781TIP3    H144758   5.975   5.408  10.889 -0.2036  0.8510  0.3953
 7781TIP3    H244759   6.049   5.484  10.997 -0.5935  0.7857  0.7129
 7782TIP3   OH244760   0.061   5.928   1.851 -0.2292 -0.4036  0.0111
 7782TIP3    H144761  -0.033   5.909   1.847 -0.4882  0.6103  0.7519
 7782TIP3    H244762   0.103   5.842   1.857 -0.9800 -0.9572 -1.9337
 7783TIP3   OH244763   2.002   6.098   3.908 -0.8350 -0.7015  0.3798
 7783TIP3    H144764   1.980   6.007   3.887  0.3695 -1.0197  0.4442
 7783TIP3    H244765   2.095   6.106   3.887 -0.8403  0.4135  0.7323
 7784TIP3   OH244766   1.529   5.711  10.615  0.5893  0.3092  0.0509
 7784TIP3    H144767   1.600   5.743  10.670  1.9454 -0.1078 -1.4073
 7784TIP3    H244768   1.568   5.644  10.560 -1.0038 -0.1402 -0.6023
 7785TIP3   OH244769   1.297   2.693  15.473 -0.4306  0.5174  0.4824
 7785TIP3    H144770   1.299   2.784  15.501  0.2113  0.0275  2.2305
 7785TIP3    H244771   1.383   2.659  15.499 -0.4165 -0.4280 -0.7304
 7786TIP3   OH244772   6.244   2.506  12.386 -0.6208 -0.3555  0.6338
 7786TIP3    H144773   6.274   2.416  12.374 -0.0482  0.0517 -1.3329
 7786TIP3    H244774   6.279   2.553  12.310 -1.8307  1.2952  1.0545
 7787TIP3   OH244775   4.448   2.674   4.770  0.2169  0.6316  0.2983
 7787TIP3    H144776   4.426   2.755   4.816 -0.0104  1.0746 -0.5662
 7787TIP3    H244777   4.440   2.697   4.677 -2.7276 -1.1592 -0.0030
 7788TIP3   OH244778   0.503   4.626   2.376  0.0155  0.0316  0.2158
 7788TIP3    H144779   0.448   4.703   2.360 -2.0445 -1.2868  0.6087
 7788TIP3    H244780   0.441   4.553   2.384  1.2863 -0.9022  5.4193
 7789TIP3   OH244781   3.371   5.354  12.648 -0.3535  0.3826  0.5605
 7789TIP3    H144782   3.322   5.424  12.605 -0.3103 -0.3450 -0.7292
 7789TIP3    H244783   3.431   5.399  12.708 -0.7006  1.4110  0.1497
 7790TIP3   OH244784   3.802   5.293  16.955 -0.1394 -0.1291 -0.4830
 7790TIP3    H144785   3.767   5.377  16.984  2.2206  0.4578  0.9039
 7790TIP3    H244786   3.733   5.230  16.975 -1.5460  1.3307 -0.5959
 7791TIP3   OH244787   6.101   5.224   3.996 -0.1332 -0.3621 -0.6230
 7791TIP3    H144788   6.071   5.181   3.916 -0.3383  0.3738 -0.9466
 7791TIP3    H244789   6.047   5.185   4.065  0.0732 -1.0302 -0.8331
 7792TIP3   OH244790   2.982   3.487   0.569  0.2631  0.1949  0.2706
 7792TIP3    H144791   2.957   3.524   0.484  3.0194  2.3672  0.2642
 7792TIP3    H244792   2.946   3.548   0.634  1.8446  1.0179  0.4180
 7793TIP3   OH244793   6.378   2.385  13.148  0.3339  0.1906  0.4229
 7793TIP3    H144794   6.465   2.348  13.159  0.1903 -0.5174 -0.6617
 7793TIP3    H244795   6.384   2.441  13.071  0.1649  1.2624  1.1631
 7794TIP3   OH244796   4.006   4.433  14.923  0.2670  0.7622  0.7203
 7794TIP3    H144797   4.099   4.441  14.903  0.7814 -2.8182  1.0125
 7794TIP3    H244798   3.970   4.381  14.852 -1.4224  1.5650  0.9325
 7795TIP3   OH244799   4.540   3.800  11.257  0.2196  0.2391  0.1166
 7795TIP3    H144800   4.580   3.721  11.293 -2.7164 -1.5551 -0.2142
 7795TIP3    H244801   4.535   3.860  11.332  1.2552 -0.4151  0.7322
 7796TIP3   OH244802   3.285   0.952   0.625  0.5221 -0.6797 -0.7417
 7796TIP3    H144803   3.240   0.943   0.541  0.5435 -3.3239 -0.5695
 7796TIP3    H244804   3.343   0.876   0.629 -0.4027 -1.3752  2.2018
 7797TIP3   OH244805   5.290   6.400   3.792 -0.3378  0.8263 -0.2402
 7797TIP3    H144806   5.303   6.447   3.874  0.0920  1.6245 -0.7550
 7797TIP3    H244807   5.226   6.332   3.813 -0.0523  0.8682  0.8100
 7798TIP3   OH244808   6.527   2.939   4.801 -0.0826 -0.6941  0.1482
 7798TIP3    H144809   6.574   2.971   4.724 -0.7552 -3.0058 -1.3175
 7798TIP3    H244810   6.576   2.861   4.828 -1.2535 -1.2975  0.5755
 7799TIP3   OH244811   2.189   1.327   2.079 -0.3866  0.4438 -0.6180
 7799TIP3    H144812   2.282   1.307   2.067  0.0109  2.2914 -0.9235
 7799TIP3    H244813   2.169   1.299   2.168  0.4692  0.0562 -0.5388
 7800TIP3   OH244814   2.933   3.769  15.071  0.3825 -0.3481  0.3773
 7800TIP3    H144815   2.985   3.784  14.992  0.2213 -1.1629  0.1099
 7800TIP3    H244816   2.852   3.730  15.040  0.4228 -0.9179  0.9552
 7801TIP3   OH244817   4.331   2.216  13.665 -0.2326  0.7777 -0.2201
 7801TIP3    H144818   4.423   2.192  13.665 -0.0424  1.4891  0.3842
 7801TIP3    H244819   4.325   2.292  13.723 -1.0563  1.2792 -0.9259
 7802TIP3   OH244820   0.473   4.479   4.364 -0.2338 -0.1356  0.0417
 7802TIP3    H144821   0.485   4.427   4.284 -0.9842 -0.4567  0.1323
 7802TIP3    H244822   0.489   4.570   4.336 -0.3012 -0.2664 -0.4320
 7803TIP3   OH244823   1.577   4.652   3.541  0.1642 -0.1996 -0.1975
 7803TIP3    H144824   1.502   4.656   3.599 -0.5427  1.1356 -1.1544
 7803TIP3    H244825   1.587   4.559   3.521 -1.1588 -0.4129  0.0373
 7804TIP3   OH244826   5.055   3.912  12.311  0.4570 -0.0712 -0.2392
 7804TIP3    H144827   5.096   3.826  12.302  2.4787  0.9777 -1.9716
 7804TIP3    H244828   5.062   3.932  12.405  2.0800 -0.8426 -0.1602
 7805TIP3   OH244829   1.850   0.778  11.408 -0.0238 -0.7256 -0.5925
 7805TIP3    H144830   1.940   0.774  11.439 -0.2476  1.9819  0.6856
 7805TIP3    H244831   1.853   0.738  11.321  2.6084  0.0838 -0.9583
 7806TIP3   OH244832   0.495   5.288   1.349 -0.2384  0.0005  0.6972
 7806TIP3    H144833   0.526   5.372   1.383  1.3387 -0.7083  1.1189
 7806TIP3    H244834   0.483   5.234   1.427  0.5215 -0.7193  0.3268
 7807TIP3   OH244835   3.549   4.950  12.297  0.2014 -0.8540  0.6069
 7807TIP3    H144836   3.475   5.011  12.305  0.1088 -0.7639 -0.6879
 7807TIP3    H244837   3.514   4.865  12.322  0.0750 -0.5416  1.5001
 7808TIP3   OH244838   5.763   0.553  10.766 -0.2518 -0.2395 -0.5636
 7808TIP3    H144839   5.694   0.578  10.705 -0.7074 -0.0360  0.0264
 7808TIP3    H244840   5.761   0.458  10.767 -0.7267 -0.2318 -0.3292
 7809TIP3   OH244841   1.477   4.035  16.833 -0.3957  0.2864  0.1057
 7809TIP3    H144842   1.425   3.957  16.852  1.9803 -1.3223  0.4399
 7809TIP3    H244843   1.494   4.029  16.739  0.0333  0.2488  0.1876
 7810TIP3   OH244844   4.898   5.382   3.648  0.3248 -0.1587  0.1901
 7810TIP3    H144845   4.992   5.376   3.629  0.7867  2.0079  1.5940
 7810TIP3    H244846   4.857   5.391   3.561  1.2229 -2.3115 -0.5407
 7811TIP3   OH244847   5.880   5.038  10.428  0.1401  0.4128 -0.1098
 7811TIP3    H144848   5.923   4.960  10.464 -1.4561 -0.3006  0.3561
 7811TIP3    H244849   5.825   5.070  10.500 -0.6695  0.8452 -0.8985
 7812TIP3   OH244850   6.250   5.833   1.881 -0.1768  0.4445 -0.3807
 7812TIP3    H144851   6.199   5.756   1.907 -1.2275  0.7499 -1.4684
 7812TIP3    H244852   6.292   5.807   1.799 -0.9771  1.2047 -1.0447
 7813TIP3   OH244853   6.742   4.759   4.722 -0.1045  0.0905  0.1949
 7813TIP3    H144854   6.648   4.750   4.733 -0.1899 -0.3014 -0.8107
 7813TIP3    H244855   6.760   4.728   4.634  0.7403  1.7848 -0.2899
 7814TIP3   OH244856   0.995   1.401  13.605  0.1856 -0.0174  0.0293
 7814TIP3    H144857   1.012   1.468  13.671  0.5428 -1.4038  1.4110
 7814TIP3    H244858   1.022   1.441  13.523 -0.3984  1.8161  0.6901
 7815TIP3   OH244859   5.827   0.274   5.608  0.2686 -0.5497 -0.1289
 7815TIP3    H144860   5.828   0.178   5.603 -1.7211 -0.6780  0.9033
 7815TIP3    H244861   5.740   0.295   5.641 -0.0848  1.7419 -2.2547
 7816TIP3   OH244862   2.273   1.443   6.540  0.6952 -0.5516 -0.2828
 7816TIP3    H144863   2.338   1.496   6.587 -0.2154  0.4081 -0.0725
 7816TIP3    H244864   2.251   1.494   6.463  0.9626 -1.3684 -0.9182
 7817TIP3   OH244865   2.320   3.951  15.116  0.1131  0.6068 -0.1582
 7817TIP3    H144866   2.374   4.030  15.116  1.8671 -0.5274 -0.7818
 7817TIP3    H244867   2.294   3.939  15.025  0.0035  0.3660 -0.0960
 7818TIP3   OH244868   0.940   5.481   3.201 -0.7859 -0.2473 -0.4215
 7818TIP3    H144869   0.854   5.440   3.194 -0.1143 -1.6018 -0.9502
 7818TIP3    H244870   1.001   5.418   3.163  0.3176  1.1598 -1.1040
 7819TIP3   OH244871   6.710   1.722   6.637  0.4016  0.0777 -0.5588
 7819TIP3    H144872   6.734   1.674   6.716  0.2036 -0.2927 -0.7226
 7819TIP3    H244873   6.616   1.710   6.628  0.5169 -0.4328 -1.2058
 7820TIP3   OH244874   5.534   5.509   5.069 -0.3318  0.0244 -0.0616
 7820TIP3    H144875   5.492   5.584   5.111  0.9911  0.5103  0.4356
 7820TIP3    H244876   5.623   5.538   5.050 -0.0489 -1.1380 -0.6342
 7821TIP3   OH244877   4.235   0.460   1.401  0.4492 -0.1199  0.1875
 7821TIP3    H144878   4.255   0.476   1.309  1.0721 -1.8212 -0.0067
 7821TIP3    H244879   4.209   0.368   1.405 -0.7417  0.2245  1.5423
 7822TIP3   OH244880   1.431   6.185   0.145  0.3015 -0.4933  0.4275
 7822TIP3    H144881   1.442   6.099   0.185 -0.7587 -0.9839 -0.2704
 7822TIP3    H244882   1.499   6.240   0.184  0.1860 -1.3091  1.8379
 7823TIP3   OH244883   1.820   0.137   3.471 -0.1789 -0.1313  0.2061
 7823TIP3    H144884   1.883   0.065   3.473 -0.7897 -0.6587  1.5522
 7823TIP3    H244885   1.793   0.148   3.562  0.0631  1.9598  0.0865
 7824TIP3   OH244886   2.716   5.800   0.944  0.1604 -0.5481 -1.1054
 7824TIP3    H144887   2.693   5.785   0.852  1.0204  1.4428 -1.7095
 7824TIP3    H244888   2.807   5.832   0.941  0.1206 -0.2120  0.4210
 7825TIP3   OH244889   0.253   6.151  15.554  0.6888  0.7977  0.5863
 7825TIP3    H144890   0.260   6.218  15.623 -2.3620  0.9363  0.8993
 7825TIP3    H244891   0.180   6.096  15.582  1.5706 -1.2314 -0.8921
 7826TIP3   OH244892   4.916   0.311   5.331 -0.1087 -0.3176 -0.6299
 7826TIP3    H144893   4.956   0.380   5.277 -1.4201  0.3451 -0.7883
 7826TIP3    H244894   4.835   0.350   5.364 -0.3787 -1.4528  0.1086
 7827TIP3   OH244895   3.856   5.679   1.142 -0.6529  0.1636  0.4261
 7827TIP3    H144896   3.765   5.684   1.113 -0.3184  0.1723 -0.6598
 7827TIP3    H244897   3.906   5.671   1.061  0.4603  1.9820  0.8982
 7828TIP3   OH244898   2.706   0.170   0.817  0.0733 -0.0694  0.0115
 7828TIP3    H144899   2.688   0.080   0.845  1.7934 -0.4176  0.1043
 7828TIP3    H244900   2.641   0.223   0.862  0.4946 -1.0234  1.8434
 7829TIP3   OH244901   5.662   6.174  12.612 -0.3448 -0.2006  0.0535
 7829TIP3    H144902   5.720   6.208  12.680  0.9674  3.1716 -2.5275
 7829TIP3    H244903   5.718   6.160  12.536 -2.6187  2.2590 -2.2723
 7830TIP3   OH244904   5.939   5.890   4.902  0.2598 -0.0365  0.1126
 7830TIP3    H144905   5.869   5.941   4.943 -0.6343 -2.3457  1.6850
 7830TIP3    H244906   5.996   5.864   4.975  0.4221 -1.6061 -0.5237
 7831TIP3   OH244907   2.405   1.055   2.991 -0.0320  0.2100  0.5108
 7831TIP3    H144908   2.399   0.974   3.042 -0.7630 -0.1172 -0.0762
 7831TIP3    H244909   2.348   1.040   2.916  1.3314  0.5276 -0.6173
 7832TIP3   OH244910   2.996   4.494  11.847  0.9331 -0.8583  0.4040
 7832TIP3    H144911   3.053   4.418  11.836  2.0137  0.0841 -0.7482
 7832TIP3    H244912   2.989   4.532  11.760  2.4288  1.7463  1.3084
 7833TIP3   OH244913   5.880   0.961   6.040 -0.0357 -0.4862  0.3520
 7833TIP3    H144914   5.796   0.983   6.081  1.1159  2.2327  1.4744
 7833TIP3    H244915   5.923   0.903   6.102  0.3254  0.9589  1.5097
 7834TIP3   OH244916   1.454   3.631  15.698 -0.3623  0.7441 -0.0467
 7834TIP3    H144917   1.546   3.624  15.673 -1.0297 -0.1741 -2.5234
 7834TIP3    H244918   1.453   3.696  15.768  1.9664  1.9657 -1.0475
 7835TIP3   OH244919   1.375   1.209  15.721  0.2650  0.0283  0.4003
 7835TIP3    H144920   1.287   1.243  15.738 -0.1050 -1.0792  0.7978
 7835TIP3    H244921   1.413   1.271  15.660 -0.5941  0.8275  0.6519
 7836TIP3   OH244922   1.599   3.311  11.593  0.3755 -0.1544  0.2166
 7836TIP3    H144923   1.686   3.348  11.610 -0.2339  1.7939 -0.5895
 7836TIP3    H244924   1.598   3.229  11.642  1.8678  0.8337  2.0366
 7837TIP3   OH244925   4.857   6.698   0.168 -0.2446  0.1849 -0.4016
 7837TIP3    H144926   4.890   6.611   0.148  1.9997  0.8549  0.0909
 7837TIP3    H244927   4.900   6.755   0.104 -1.1342  1.0403 -0.2667
 7838TIP3   OH244928   1.666   3.869   3.797 -0.4213  0.1541  0.3667
 7838TIP3    H144929   1.625   3.825   3.871  0.3932  2.1766  2.1437
 7838TIP3    H244930   1.759   3.869   3.818 -0.3290  2.1242  0.1815
 7839TIP3   OH244931   2.813   1.085  11.135 -0.5274  0.0082 -0.1454
 7839TIP3    H144932   2.812   0.998  11.174 -0.6549 -0.0307 -0.2369
 7839TIP3    H244933   2.736   1.129  11.171 -0.4474  0.0945 -0.0765
 7840TIP3   OH244934   2.793   4.531   1.976  0.2388  0.2850 -0.2346
 7840TIP3    H144935   2.775   4.586   2.051  0.4145 -0.4289  0.3469
 7840TIP3    H244936   2.730   4.459   1.983  0.7127 -0.1500 -0.3719
 7841TIP3   OH244937   3.768   5.081   3.561 -1.0429  0.4102 -0.3682
 7841TIP3    H144938   3.811   5.008   3.516  0.5289  1.1945 -0.2165
 7841TIP3    H244939   3.691   5.042   3.602 -0.8477 -0.9350 -1.2048
 7842TIP3   OH244940   0.944   4.811   1.825  0.0741 -0.6854  0.5694
 7842TIP3    H144941   0.980   4.842   1.742  0.3711 -0.7839  0.6612
 7842TIP3    H244942   0.975   4.874   1.890  0.4623 -1.0216  0.7170
 7843TIP3   OH244943   0.778   6.570   4.629  0.3292 -0.3466  0.3449
 7843TIP3    H144944   0.792   6.560   4.723 -0.7562 -0.4505  0.5072
 7843TIP3    H244945   0.817   6.654   4.607  1.8025 -0.9270  0.6147
 7844TIP3   OH244946   6.547   4.579  10.654  0.0308 -0.2301 -0.1257
 7844TIP3    H144947   6.555   4.669  10.686  2.3651 -0.8707  1.3796
 7844TIP3    H244948   6.637   4.552  10.635 -0.1067 -3.2583  2.6072
 7845TIP3   OH244949   1.139   0.698   5.198 -0.8116 -0.2408 -0.2345
 7845TIP3    H144950   1.079   0.656   5.137  1.1916 -0.5608 -2.1368
 7845TIP3    H244951   1.161   0.781   5.156 -0.1531 -0.0080  0.5464
 7846TIP3   OH244952   6.555   0.938  14.110  0.3616  0.0003  0.0995
 7846TIP3    H144953   6.598   1.006  14.058 -0.2657  1.6440  1.6006
 7846TIP3    H244954   6.608   0.932  14.189 -0.2776 -0.3787  0.5095
 7847TIP3   OH244955   5.685   3.276   1.204 -0.4216 -0.2553  0.7095
 7847TIP3    H144956   5.676   3.363   1.166 -0.1823 -0.8439 -0.7532
 7847TIP3    H244957   5.704   3.292   1.297  0.0910  1.2515  0.3710
 7848TIP3   OH244958   3.319   4.822  12.373 -0.5933  0.1615  0.1801
 7848TIP3    H144959   3.324   4.739  12.421 -0.8689  0.0407  0.0034
 7848TIP3    H244960   3.254   4.806  12.304 -0.4235  0.4277 -0.0448
 7849TIP3   OH244961   4.862   6.593  16.238 -0.0587 -0.0943 -0.8327
 7849TIP3    H144962   4.933   6.536  16.210  0.8959  0.8680 -0.4442
 7849TIP3    H244963   4.883   6.679  16.201  1.4645  1.3468  2.8911
 7850TIP3   OH244964   3.400   0.962  12.125 -0.1085  0.4026 -0.3287
 7850TIP3    H144965   3.355   0.884  12.094 -0.6634  1.4911 -2.4281
 7850TIP3    H244966   3.491   0.949  12.098 -0.1770  0.4226 -0.5721
 7851TIP3   OH244967   4.723   6.400  14.686  0.2663  0.1594  0.4831
 7851TIP3    H144968   4.646   6.396  14.743 -1.4503 -1.6744 -1.7688
 7851TIP3    H244969   4.723   6.489  14.650 -1.0455  0.0771  0.2439
 7852TIP3   OH244970   5.754   1.416  11.497  0.3847  0.2510  0.2716
 7852TIP3    H144971   5.737   1.341  11.440  1.5646  0.1435  0.0330
 7852TIP3    H244972   5.774   1.488  11.437 -0.7705  0.7854  0.4989
 7853TIP3   OH244973   5.768   2.504   1.234  0.2492  0.0982  0.0820
 7853TIP3    H144974   5.808   2.574   1.287  1.7223 -1.6234  1.3763
 7853TIP3    H244975   5.701   2.467   1.291 -1.1380  0.9439 -0.9287
 7854TIP3   OH244976   4.541   0.815   1.139  0.3814 -0.4212  0.1571
 7854TIP3    H144977   4.594   0.770   1.073 -0.9754 -0.8981 -0.6637
 7854TIP3    H244978   4.603   0.839   1.207  1.2812 -3.0914  0.4053
 7855TIP3   OH244979   2.560   3.037  15.107  0.6904  0.0882  0.8252
 7855TIP3    H144980   2.564   3.038  15.203  2.2637  1.1591  0.7792
 7855TIP3    H244981   2.575   3.127  15.081  0.9744 -0.3051 -0.4529
 7856TIP3   OH244982   5.823   1.237   2.326 -0.7123 -0.7001 -0.6429
 7856TIP3    H144983   5.793   1.276   2.244  1.4449  1.0941 -0.7032
 7856TIP3    H244984   5.911   1.204   2.305 -0.1068 -0.1505  0.9098
 7857TIP3   OH244985   4.341   0.498  11.491 -0.3098 -1.4003  0.0663
 7857TIP3    H144986   4.401   0.424  11.499  1.3666 -0.2229 -1.0179
 7857TIP3    H244987   4.393   0.567  11.450 -1.8402  0.3674  0.9510
 7858TIP3   OH244988   1.946   5.374   3.851  0.2320  0.5221  0.2587
 7858TIP3    H144989   1.967   5.383   3.758  2.7701 -1.1493  0.5876
 7858TIP3    H244990   1.863   5.326   3.852  0.0388  0.7748 -1.1191
 7859TIP3   OH244991   0.099   5.073  11.737 -0.2583 -0.2366  0.1599
 7859TIP3    H144992   0.083   5.060  11.644  0.5860  0.9729 -0.1798
 7859TIP3    H244993   0.071   5.163  11.754  2.4762  0.6928  0.3293
 7860TIP3   OH244994   5.336   6.020   1.772 -0.0508 -0.3260 -0.3489
 7860TIP3    H144995   5.321   6.094   1.831 -0.2275 -0.8197  0.2381
 7860TIP3    H244996   5.291   5.947   1.814  1.8301 -1.2648  0.1440
 7861TIP3   OH244997   5.895   4.693  16.333  0.3523  0.3115 -0.0985
 7861TIP3    H144998   5.925   4.627  16.270  0.0818 -1.7159  1.8008
 7861TIP3    H244999   5.800   4.694  16.321  0.0297 -1.7720  1.7457
 7862TIP3   OH245000   3.763   1.307   3.835 -0.0144  0.2909 -0.0409
 7862TIP3    H145001   3.704   1.232   3.846 -0.2048  0.5019  0.4188
 7862TIP3    H245002   3.851   1.269   3.833 -0.1029  0.0677  0.3216
 7863TIP3   OH245003   5.475   0.388  16.634 -0.9440  0.4234  0.1235
 7863TIP3    H145004   5.508   0.368  16.722 -0.5368 -0.5672 -0.2384
 7863TIP3    H245005   5.554   0.409  16.584 -0.7378 -2.1893 -0.8121
 7864TIP3   OH245006   0.890   4.485   6.444 -0.3959 -0.1312 -0.2910
 7864TIP3    H145007   0.964   4.427   6.429 -0.7806 -0.4596 -0.9972
 7864TIP3    H245008   0.918   4.569   6.408  0.3778  0.2933  1.2508
 7865TIP3   OH245009   4.041   1.177  16.559 -0.2877 -0.2080 -0.0785
 7865TIP3    H145010   4.040   1.269  16.533 -0.3928 -0.3776 -0.6925
 7865TIP3    H245011   4.095   1.175  16.638 -2.0382  0.7072  1.2124
 7866TIP3   OH245012   6.275   1.202   0.750 -0.0273 -0.3648 -0.4453
 7866TIP3    H145013   6.238   1.271   0.695  0.6261 -1.0908 -1.8421
 7866TIP3    H245014   6.338   1.157   0.694  0.3534 -1.4234  0.7677
 7867TIP3   OH245015   2.283   5.864   1.975  1.0835 -0.3119  0.3892
 7867TIP3    H145016   2.316   5.916   2.048  0.2145 -0.4744  0.9175
 7867TIP3    H245017   2.300   5.773   2.000 -3.7358 -0.8685  2.9703
 7868TIP3   OH245018   1.636   3.842   1.476  0.1434 -0.1786 -0.3102
 7868TIP3    H145019   1.718   3.833   1.525 -0.5667  0.0533  0.9605
 7868TIP3    H245020   1.576   3.782   1.519 -1.5842  2.6645  1.5338
 7869TIP3   OH245021   4.533   2.077   5.311 -0.1617 -0.4422  0.2804
 7869TIP3    H145022   4.509   2.044   5.224 -4.1663 -1.4830  1.5640
 7869TIP3    H245023   4.490   2.163   5.316  1.1615  0.2160  0.8310
 7870TIP3   OH245024   3.239   1.011   1.830  0.2034  0.0826  0.6854
 7870TIP3    H145025   3.144   1.016   1.834  0.1396 -0.0925 -0.3146
 7870TIP3    H245026   3.259   1.019   1.737  1.1946  0.5867  0.9359
 7871TIP3   OH245027   5.318   3.847  11.889 -0.3102  0.2427 -0.0677
 7871TIP3    H145028   5.264   3.769  11.880  0.6427 -0.3834 -0.5010
 7871TIP3    H245029   5.257   3.915  11.918 -1.4896 -0.2292 -1.3513
 7872TIP3   OH245030   4.111   0.894   5.689  0.0626 -1.0963  0.4811
 7872TIP3    H145031   4.103   0.911   5.595  0.9257 -0.2538  0.5461
 7872TIP3    H245032   4.098   0.979   5.730  0.7901 -1.2526  1.0582
 7873TIP3   OH245033   0.667   1.649   6.170  0.0555 -0.2175  0.5352
 7873TIP3    H145034   0.605   1.659   6.243 -0.4824 -0.7348  0.1588
 7873TIP3    H245035   0.728   1.583   6.201  0.4655  0.3386  0.9334
 7874TIP3   OH245036   4.688   2.753  12.617  0.1863 -0.7097  0.9454
 7874TIP3    H145037   4.782   2.733  12.611 -0.1389 -2.1461 -0.0048
 7874TIP3    H245038   4.673   2.771  12.709  1.3375 -0.8236  1.1760
 7875TIP3   OH245039   2.084   1.191   0.548 -0.4080  0.5110  0.3212
 7875TIP3    H145040   2.172   1.210   0.580 -0.8895 -0.1781  2.1810
 7875TIP3    H245041   2.028   1.197   0.625 -1.8939  0.2175 -0.6850
 7876TIP3   OH245042   1.989   1.832  15.322  0.3649 -0.5077 -0.4211
 7876TIP3    H145043   1.902   1.865  15.342  0.2021 -0.8683 -0.5245
 7876TIP3    H245044   1.975   1.739  15.300  0.6625 -0.3650 -1.2541
 7877TIP3   OH245045   6.299   0.837   4.706 -0.7713  0.1408 -0.2908
 7877TIP3    H145046   6.327   0.752   4.741  0.3165 -0.3694 -2.1931
 7877TIP3    H245047   6.296   0.895   4.781  0.8138 -1.0102  0.7333
 7878TIP3   OH245048   0.649   0.876  15.149 -0.4102  0.5672 -0.2514
 7878TIP3    H145049   0.613   0.793  15.118  0.6267  0.5940 -1.6056
 7878TIP3    H245050   0.743   0.869  15.133 -0.3403  2.1213 -0.7238
 7879TIP3   OH245051   3.426   4.021  11.272  0.1461  0.1515  0.2483
 7879TIP3    H145052   3.441   3.927  11.287 -0.3459  0.1990  1.1563
 7879TIP3    H245053   3.513   4.058  11.258  0.2663 -0.5927 -1.1189
 7880TIP3   OH245054   1.377   1.005   5.035 -0.0191  0.0678  0.1146
 7880TIP3    H145055   1.323   1.084   5.039 -1.1119 -0.6869  1.1918
 7880TIP3    H245056   1.439   1.016   5.107  0.7334  0.5612 -0.6041
 7881TIP3   OH245057   5.969   4.973  16.914  0.1174  0.2912 -0.2046
 7881TIP3    H145058   6.060   4.983  16.886  0.1099 -0.0944 -0.3755
 7881TIP3    H245059   5.970   4.895  16.969 -0.0410  0.5075  0.1062
 7882TIP3   OH245060   2.264   2.339   3.287  0.3235  0.2762 -0.1362
 7882TIP3    H145061   2.299   2.393   3.216  1.6021  1.2438  1.1684
 7882TIP3    H245062   2.245   2.255   3.246  1.1665  0.7643 -1.5914
 7883TIP3   OH245063   3.200   1.819   4.416 -0.0044  0.2000  0.0681
 7883TIP3    H145064   3.120   1.868   4.435  1.4223  2.9342 -0.6087
 7883TIP3    H245065   3.219   1.838   4.325  0.1740 -2.4107 -0.5199
 7884TIP3   OH245066   2.249   2.587   2.788  0.4476 -0.1899  0.5337
 7884TIP3    H145067   2.294   2.605   2.870  1.2093 -0.8849  0.2791
 7884TIP3    H245068   2.307   2.622   2.720  0.6553 -1.1563  0.1989
 7885TIP3   OH245069   3.636   4.110  15.925 -0.1730  0.0855  0.4729
 7885TIP3    H145070   3.667   4.134  15.838 -0.0127  0.3687  0.6094
 7885TIP3    H245071   3.715   4.088  15.974 -0.0386  2.0766  1.2185
 7886TIP3   OH245072   5.478   3.314  11.347  0.0337 -0.5151  0.1388
 7886TIP3    H145073   5.405   3.375  11.340  1.1173  0.8390  0.2622
 7886TIP3    H245074   5.554   3.363  11.315  0.6315 -2.4450 -1.6407
 7887TIP3   OH245075   5.037   2.456   5.865 -0.2691 -0.2608  0.3020
 7887TIP3    H145076   4.972   2.386   5.865  0.0146 -0.5237  0.4024
 7887TIP3    H245077   5.033   2.492   5.777  2.5675 -3.1703 -1.2254
 7888TIP3   OH245078   5.792   2.981  16.061 -0.2480  0.5131 -0.6601
 7888TIP3    H145079   5.760   2.897  16.028  0.3583  0.1051 -0.2327
 7888TIP3    H245080   5.848   2.957  16.135 -0.9359  1.3612  0.1464
 7889TIP3   OH245081   2.591   0.101  12.691 -0.6961  0.3651  0.3516
 7889TIP3    H145082   2.504   0.117  12.654 -0.6744  0.6515  0.4235
 7889TIP3    H245083   2.574   0.077  12.782 -0.7590 -0.4806  0.1235
 7890TIP3   OH245084   1.781   3.734   0.202  0.3302 -0.6022 -0.0340
 7890TIP3    H145085   1.704   3.733   0.259  0.4797  0.4216  0.1968
 7890TIP3    H245086   1.748   3.767   0.118  0.3262 -1.1126 -0.2398
 7891TIP3   OH245087   1.720   4.973   4.878 -0.1595 -0.4146  0.3528
 7891TIP3    H145088   1.647   4.927   4.837 -1.1572 -1.5740  3.1759
 7891TIP3    H245089   1.708   5.065   4.853 -2.0717 -0.7230  0.0115
 7892TIP3   OH245090   5.634   6.448   6.389 -0.4142  0.7365 -0.4149
 7892TIP3    H145091   5.587   6.479   6.466  0.6173  0.7434  0.2199
 7892TIP3    H245092   5.645   6.354   6.403 -0.2958  0.7210 -0.6049
 7893TIP3   OH245093   2.066   5.137   4.422 -0.4638  0.2815  0.4378
 7893TIP3    H145094   2.136   5.153   4.359 -1.5244 -0.0054 -0.8791
 7893TIP3    H245095   2.095   5.179   4.503  1.6311 -0.6415  0.2143
 7894TIP3   OH245096   5.930   2.804  13.653  0.3556  0.2275 -0.1617
 7894TIP3    H145097   5.869   2.745  13.698 -1.3508  1.3907 -0.8389
 7894TIP3    H245098   5.910   2.793  13.560 -0.0628  1.9038 -0.3017
 7895TIP3   OH245099   3.131   6.542   6.540 -0.1832  0.2685  0.1494
 7895TIP3    H145100   3.076   6.575   6.611 -0.5301  0.8727 -0.3957
 7895TIP3    H245101   3.089   6.573   6.460  1.0141  0.8745 -0.2736
 7896TIP3   OH245102   4.387   5.267   5.420 -0.2515  0.3012 -0.0954
 7896TIP3    H145103   4.449   5.194   5.409 -0.7073 -0.0526 -0.3566
 7896TIP3    H245104   4.305   5.234   5.384 -0.3138  1.1572 -0.7601
 7897TIP3   OH245105   2.966   2.696   2.252 -0.1106  0.2341  0.6337
 7897TIP3    H145106   2.915   2.754   2.196  1.0852  1.1434  0.4485
 7897TIP3    H245107   2.955   2.609   2.211  0.8095  0.8861 -1.1139
 7898TIP3   OH245108   0.333   6.787   4.099 -0.0962  0.3044  0.2943
 7898TIP3    H145109   0.416   6.755   4.135  1.0152  1.1673 -1.3150
 7898TIP3    H245110   0.267   6.728   4.134  0.9928  0.3891  2.7188
 7899TIP3   OH245111   3.193   1.598   4.599 -0.4483 -0.3067  0.8813
 7899TIP3    H145112   3.250   1.661   4.641 -0.1298  0.0784 -0.1045
 7899TIP3    H245113   3.124   1.651   4.557 -1.2261 -0.7287  1.5880
 7900TIP3   OH245114   6.091   6.432  15.578 -0.7607  0.3117 -0.5580
 7900TIP3    H145115   6.124   6.353  15.621 -0.4988  0.7207  0.0094
 7900TIP3    H245116   6.167   6.466  15.531 -0.1095  1.6892  1.3929
 7901TIP3   OH245117   2.861   5.005  11.766  0.1474  0.0886  0.1134
 7901TIP3    H145118   2.824   4.929  11.720 -2.0955 -0.0322  1.8827
 7901TIP3    H245119   2.784   5.059  11.788  1.3131  1.1795  1.7704
 7902TIP3   OH245120   3.725   4.441   2.638  0.0022 -0.3704 -0.3215
 7902TIP3    H145121   3.635   4.415   2.656  0.2438 -0.9864  0.0260
 7902TIP3    H245122   3.772   4.422   2.719  0.1885  1.2506 -0.0089
 7903TIP3   OH245123   5.467   2.776   6.039  0.6889 -0.3244 -0.2415
 7903TIP3    H145124   5.385   2.729   6.032  0.3105  0.0396  1.3888
 7903TIP3    H245125   5.442   2.868   6.051  1.2725 -0.3413  1.3327
 7904TIP3   OH245126   6.685   0.557  14.521  0.0148 -0.3331 -0.1975
 7904TIP3    H145127   6.667   0.649  14.505 -0.3121  0.0107  1.9127
 7904TIP3    H245128   6.766   0.556  14.571  0.1073 -1.2150 -0.3451
 7905TIP3   OH245129   2.551   3.792  13.529 -0.1346 -0.6936  0.1982
 7905TIP3    H145130   2.525   3.845  13.604 -0.3983 -0.5885  0.0337
 7905TIP3    H245131   2.550   3.854  13.455  1.3264 -0.4909  0.3137
 7906TIP3   OH245132   3.757   0.977  12.432 -0.2900  0.0459 -0.0945
 7906TIP3    H145133   3.703   0.899  12.420 -2.8087  1.9079 -2.2886
 7906TIP3    H245134   3.831   0.965  12.374 -0.1072 -1.1210  0.3644
 7907TIP3   OH245135   3.482   1.828  13.744  0.2965  0.3186  0.7865
 7907TIP3    H145136   3.477   1.923  13.737  0.3885  0.3139  0.6670
 7907TIP3    H245137   3.456   1.810  13.834  2.6758  0.6221  1.5843
 7908TIP3   OH245138   6.386   2.592  14.541  0.0754 -0.3567 -0.3568
 7908TIP3    H145139   6.444   2.664  14.516  0.1791 -1.0758 -2.4557
 7908TIP3    H245140   6.444   2.526  14.578  0.4191 -0.5123 -1.1536
 7909TIP3   OH245141   0.147   1.667  10.330 -0.6908  0.1583  1.0886
 7909TIP3    H145142   0.060   1.651  10.367 -0.8247  0.1971  0.7966
 7909TIP3    H245143   0.193   1.584  10.342 -0.8169  0.0919  1.1194
 7910TIP3   OH245144   4.611   6.361  12.491  0.2622 -0.0023 -0.2339
 7910TIP3    H145145   4.629   6.416  12.415  0.6627 -0.8972 -0.8155
 7910TIP3    H245146   4.698   6.335  12.523  0.0991 -1.5137 -0.9185
 7911TIP3   OH245147   3.343   6.611  17.010  0.0548 -0.0127  0.2751
 7911TIP3    H145148   3.422   6.664  17.023  0.3330 -0.1472 -0.7690
 7911TIP3    H245149   3.370   6.522  17.032 -0.5299  0.2906  2.4612
 7912TIP3   OH245150   6.502   5.803   3.573  1.1658  0.1406 -0.4706
 7912TIP3    H145151   6.555   5.882   3.574 -1.8309  2.3739  1.1727
 7912TIP3    H245152   6.509   5.767   3.661 -0.9350  1.2783  0.2423
 7913TIP3   OH245153   6.759   1.493  10.384 -0.2964 -0.5001 -0.5511
 7913TIP3    H145154   6.791   1.402  10.381  0.6827 -0.1961  0.1713
 7913TIP3    H245155   6.674   1.489  10.341  0.2352 -1.5450 -1.5845
 7914TIP3   OH245156   4.018   1.170   3.829  0.4299 -0.1130 -0.0259
 7914TIP3    H145157   4.017   1.081   3.794 -1.2108  0.2650 -1.0404
 7914TIP3    H245158   4.097   1.210   3.792 -0.1066 -0.4101 -1.5309
 7915TIP3   OH245159   3.475   2.522   5.814 -0.3609  0.3114 -0.2821
 7915TIP3    H145160   3.384   2.514   5.785 -0.8406 -0.0219  1.2544
 7915TIP3    H245161   3.489   2.616   5.821 -0.7963  0.3552  0.0779
 7916TIP3   OH245162   6.272   1.650  12.617  0.0297 -0.4389 -0.6711
 7916TIP3    H145163   6.262   1.740  12.647 -0.0992 -0.7049  0.1236
 7916TIP3    H245164   6.367   1.640  12.603  0.3310 -0.7743  1.2794
 7917TIP3   OH245165   3.748   3.964   2.643  0.0077  0.1749 -0.2361
 7917TIP3    H145166   3.782   3.875   2.654  0.8949  0.5361  0.0697
 7917TIP3    H245167   3.779   4.011   2.720 -1.4091  0.4809  0.1722
 7918TIP3   OH245168   3.063   0.057  15.695  0.0603 -0.5232  0.2640
 7918TIP3    H145169   3.002  -0.009  15.662 -1.5485  0.9291  0.1437
 7918TIP3    H245170   3.010   0.137  15.701  1.3610  0.2678  2.4098
 7919TIP3   OH245171   1.583   0.418   3.138  0.3174  0.3807  0.2467
 7919TIP3    H145172   1.533   0.338   3.120 -0.5638  1.3964 -2.2454
 7919TIP3    H245173   1.621   0.404   3.225  1.4697 -3.3627 -0.7007
 7920TIP3   OH245174   3.273   5.857  15.437 -0.1369  0.2158  0.0260
 7920TIP3    H145175   3.218   5.930  15.411 -1.7060 -0.7309  0.5807
 7920TIP3    H245176   3.245   5.785  15.381  0.4073 -0.3340  0.4532
 7921TIP3   OH245177   0.173   2.978   4.863  0.6377  0.1086 -0.4307
 7921TIP3    H145178   0.228   3.027   4.924 -1.8145  2.7453 -0.1148
 7921TIP3    H245179   0.120   2.922   4.919 -0.1526  0.9860 -0.2741
 7922TIP3   OH245180   3.214   1.250  15.570 -0.3808  0.2605 -0.5677
 7922TIP3    H145181   3.217   1.345  15.578 -1.2900  0.3167 -0.7834
 7922TIP3    H245182   3.303   1.225  15.546 -0.1112  1.0435 -0.4178
 7923TIP3   OH245183   1.326   0.265  10.281 -0.1458 -0.1042 -0.2320
 7923TIP3    H145184   1.287   0.208  10.347  1.9912 -0.3995  0.8704
 7923TIP3    H245185   1.256   0.281  10.218 -2.0823 -0.3555  1.7397
 7924TIP3   OH245186   5.739   6.529   3.464  0.6919  0.7013  0.8486
 7924TIP3    H145187   5.718   6.585   3.539  0.7991 -0.8028  2.0753
 7924TIP3    H245188   5.680   6.454   3.474  1.0607  0.2388 -0.3064
 7925TIP3   OH245189   2.097   1.354   5.645  0.0218 -0.2257  0.0987
 7925TIP3    H145190   2.189   1.327   5.653 -0.0736 -0.3162  0.9610
 7925TIP3    H245191   2.101   1.440   5.603  0.3842 -1.1279 -1.8354
 7926TIP3   OH245192   5.831   2.970   2.978 -0.1233  0.0904 -0.0116
 7926TIP3    H145193   5.913   3.012   2.952  1.3420 -1.1884  2.2386
 7926TIP3    H245194   5.802   3.018   3.055 -0.5532 -0.5448  0.2331
 7927TIP3   OH245195   1.357   6.536   1.664 -0.2677 -0.1042  0.3430
 7927TIP3    H145196   1.378   6.629   1.649 -1.0230 -0.0767 -0.6011
 7927TIP3    H245197   1.442   6.493   1.667  0.0610  0.4950 -0.0882
 7928TIP3   OH245198   3.145   3.553  11.543  0.4532  0.0313  0.0572
 7928TIP3    H145199   3.073   3.612  11.564 -0.9431 -2.0621  1.6159
 7928TIP3    H245200   3.113   3.500  11.471  0.2565 -1.1140  0.9515
 7929TIP3   OH245201   5.538   5.724   4.143  0.4407  0.0154  0.3963
 7929TIP3    H145202   5.522   5.751   4.053 -1.5854 -1.6093  0.1925
 7929TIP3    H245203   5.626   5.686   4.142 -0.1125 -1.3040 -1.2633
 7930TIP3   OH245204   4.659   3.776   2.560 -0.1071 -0.1684 -0.4788
 7930TIP3    H145205   4.627   3.803   2.646  3.2170 -1.6437  1.4497
 7930TIP3    H245206   4.705   3.854   2.527 -0.6192  0.1259 -0.5084
 7931TIP3   OH245207   3.593   0.516  11.033 -0.3608 -0.0973  0.6849
 7931TIP3    H145208   3.548   0.465  11.101 -0.4038  0.5171  1.1270
 7931TIP3    H245209   3.631   0.590  11.081  1.7527 -0.9555  0.4661
 7932TIP3   OH245210   1.505   1.934   4.464  0.1020 -0.1230  0.0045
 7932TIP3    H145211   1.483   1.897   4.379  3.5585 -1.9979 -0.2660
 7932TIP3    H245212   1.501   2.029   4.450  0.8238 -0.3708 -2.3745
 7933TIP3   OH245213   1.951   2.195  11.430 -0.5284 -0.0570  0.4290
 7933TIP3    H145214   1.955   2.130  11.361 -0.8235 -0.4092  0.7354
 7933TIP3    H245215   1.886   2.160  11.492  0.5284 -0.3023  1.4376
 7934TIP3   OH245216   3.407   6.356   4.667 -0.6513 -0.0825  0.2067
 7934TIP3    H145217   3.360   6.440   4.675  0.7340  0.7470 -0.1536
 7934TIP3    H245218   3.490   6.379   4.626  0.2824 -1.4428  1.2644
 7935TIP3   OH245219   1.901   4.624   0.555 -0.8005 -0.0023  0.0721
 7935TIP3    H145220   1.964   4.633   0.625 -0.7471 -0.3814  0.0743
 7935TIP3    H245221   1.951   4.586   0.482 -0.5967  1.3881 -0.5376
 7936TIP3   OH245222   0.586   5.254  15.007 -0.1194 -0.1296 -0.1431
 7936TIP3    H145223   0.563   5.161  15.009  0.1282 -0.2000 -0.5068
 7936TIP3    H245224   0.678   5.257  15.035  0.0820 -0.0660 -0.7977
 7937TIP3   OH245225   1.947   5.612  13.369  0.1595 -0.7298  0.0373
 7937TIP3    H145226   1.869   5.663  13.392  0.6555  1.1113 -2.0630
 7937TIP3    H245227   1.920   5.562  13.291  0.8398 -0.7150 -0.2118
 7938TIP3   OH245228   3.452   2.160   1.220  0.4323 -0.6658 -0.2550
 7938TIP3    H145229   3.547   2.167   1.214  0.4081 -1.1881 -1.4568
 7938TIP3    H245230   3.431   2.191   1.308  1.7246 -0.6692  0.0663
 7939TIP3   OH245231   2.694   5.377   3.186  0.3400 -0.0239 -0.0015
 7939TIP3    H145232   2.691   5.471   3.171 -0.8382  0.2450  1.6639
 7939TIP3    H245233   2.620   5.342   3.136 -0.4500  0.2197  0.9610
 7940TIP3   OH245234   2.336   0.389   0.930  0.0507 -0.3124  0.1056
 7940TIP3    H145235   2.382   0.312   0.964  0.6111 -0.3502 -0.7076
 7940TIP3    H245236   2.287   0.422   1.005  1.0595 -0.5353  0.8957
 7941TIP3   OH245237   0.310   3.047   1.869 -0.2562  0.4051 -0.5698
 7941TIP3    H145238   0.353   3.012   1.947  1.5954 -1.4567 -2.2926
 7941TIP3    H245239   0.221   3.014   1.875  0.1464 -0.6101  0.2472
 7942TIP3   OH245240   3.828   4.572   3.963 -0.6285 -0.0016  0.5173
 7942TIP3    H145241   3.844   4.646   3.904 -1.3524 -0.3178 -0.1060
 7942TIP3    H245242   3.739   4.544   3.941 -0.4546 -0.8952  0.9208
 7943TIP3   OH245243   2.262   0.218  13.007 -0.3615  0.3571 -0.1867
 7943TIP3    H145244   2.194   0.270  13.051  1.1770  2.1203  0.2586
 7943TIP3    H245245   2.226   0.201  12.921 -1.5701  0.8498  0.1894
 7944TIP3   OH245246   2.547   6.186  10.719 -0.0425  0.5484  0.4700
 7944TIP3    H145247   2.514   6.134  10.645 -0.6614  1.1060  0.3405
 7944TIP3    H245248   2.492   6.161  10.793  0.4489  0.1363  0.7012
 7945TIP3   OH245249   4.950   4.347  15.408 -0.2265  0.2538  0.2798
 7945TIP3    H145250   5.005   4.421  15.435 -0.7626  1.3492 -1.4618
 7945TIP3    H245251   4.993   4.312  15.330  0.1716 -1.5044  1.2453
 7946TIP3   OH245252   0.226   2.750  16.271 -0.0490 -0.1228 -0.2753
 7946TIP3    H145253   0.289   2.816  16.301 -1.9834  1.3858  0.7122
 7946TIP3    H245254   0.214   2.770  16.178  1.1325 -0.6243 -0.5458
 7947TIP3   OH245255   1.264   5.930  10.966 -0.0611 -0.4116 -0.4857
 7947TIP3    H145256   1.242   6.023  10.966 -0.4698 -0.4992 -1.3386
 7947TIP3    H245257   1.271   5.907  10.873 -0.5869 -1.3659 -0.3026
 7948TIP3   OH245258   0.063   2.965   3.717 -0.3601  0.2427  0.7636
 7948TIP3    H145259   0.114   3.038   3.684  0.3513  0.1044  1.5192
 7948TIP3    H245260   0.111   2.887   3.690 -0.9556  0.0482  0.2227
 7949TIP3   OH245261   1.739   5.623   3.155 -0.0523 -0.3086 -0.1843
 7949TIP3    H145262   1.732   5.529   3.173 -1.0364 -0.9774 -3.3281
 7949TIP3    H245263   1.663   5.661   3.199  0.3505 -0.9501  1.1248
 7950TIP3   OH245264   2.914   1.561   3.340  0.6072  0.4991 -0.2000
 7950TIP3    H145265   2.929   1.490   3.278 -1.7052  1.0487 -1.5213
 7950TIP3    H245266   2.992   1.616   3.333  0.7670  0.1068 -2.0443
 7951TIP3   OH245267   6.058   4.679  11.484  0.6240  0.1489 -0.1987
 7951TIP3    H145268   6.136   4.656  11.535  0.7675  0.7284 -0.1549
 7951TIP3    H245269   6.025   4.759  11.526  0.4724  0.3636 -0.7247
 7952TIP3   OH245270   6.173   3.005   1.854 -0.5156  0.2747 -0.1049
 7952TIP3    H145271   6.190   2.983   1.946 -1.7148 -0.6535 -0.0691
 7952TIP3    H245272   6.239   3.071   1.832  2.4082 -2.3028  0.2276
 7953TIP3   OH245273   4.553   3.054   5.059  0.2162  0.1988 -0.6914
 7953TIP3    H145274   4.580   3.145   5.050  1.8331 -0.0124  1.4105
 7953TIP3    H245275   4.634   3.006   5.075 -0.8270 -1.2708  0.4996
 7954TIP3   OH245276   2.075   2.803  14.210 -0.1109 -0.3816 -0.0431
 7954TIP3    H145277   2.089   2.888  14.250 -2.1376 -0.6573  1.3958
 7954TIP3    H245278   2.138   2.745  14.254 -2.0833 -0.6178  2.7357
 7955TIP3   OH245279   5.480   1.417   5.769  0.0802  0.1476 -0.3484
 7955TIP3    H145280   5.529   1.488   5.728  1.1627 -0.8888 -0.9516
 7955TIP3    H245281   5.477   1.440   5.862 -0.4023  1.4176 -0.6680
 7956TIP3   OH245282   4.206   0.913  15.497  0.4530 -0.0164  0.0022
 7956TIP3    H145283   4.147   0.845  15.529  0.6894  0.4938  1.5814
 7956TIP3    H245284   4.178   0.992  15.542  1.3934  0.5429 -0.3724
 7957TIP3   OH245285   3.791   0.720  12.552  0.2106  0.1772  0.4699
 7957TIP3    H145286   3.863   0.724  12.615 -0.5267 -1.5518  1.5015
 7957TIP3    H245287   3.832   0.736  12.467  1.3950  1.5594  1.2563
 7958TIP3   OH245288   3.175   2.942   5.133 -0.0193  0.4648  0.4899
 7958TIP3    H145289   3.231   2.958   5.208  0.6523 -1.4130  0.4355
 7958TIP3    H245290   3.181   2.847   5.118 -1.3199  0.5777 -0.9960
 7959TIP3   OH245291   3.770   0.639   1.214  0.2619 -0.3865  0.0953
 7959TIP3    H145292   3.748   0.583   1.140  0.0396 -2.9055  1.9330
 7959TIP3    H245293   3.695   0.698   1.224  0.0614 -0.3840 -1.3078
 7960TIP3   OH245294   3.723   2.057  13.512 -0.5903 -0.7207  0.2419
 7960TIP3    H145295   3.634   2.027  13.527 -0.3518 -2.0627 -0.7882
 7960TIP3    H245296   3.745   2.110  13.588 -1.6210 -1.9036  1.3925
 7961TIP3   OH245297   3.450   6.361   1.837 -0.3030  0.3097 -0.1609
 7961TIP3    H145298   3.470   6.299   1.908  0.9263 -0.2944 -0.9948
 7961TIP3    H245299   3.360   6.342   1.814  0.3445 -1.9752 -1.0985
 7962TIP3   OH245300   3.957   0.593   2.473 -0.5012  0.1057 -0.0258
 7962TIP3    H145301   4.020   0.554   2.412  0.0433 -0.5099  0.9046
 7962TIP3    H245302   3.936   0.678   2.435  0.4174  0.0519 -0.6737
 7963TIP3   OH245303   6.068   3.268  12.546 -0.1980 -0.5923 -0.6262
 7963TIP3    H145304   6.163   3.277  12.535 -0.0652  0.1182  0.8432
 7963TIP3    H245305   6.032   3.349  12.511 -0.1431 -0.2991 -0.0203
 7964TIP3   OH245306   0.027   1.641   1.351  0.2440 -0.0205 -0.3045
 7964TIP3    H145307   0.042   1.727   1.391  0.3669 -0.6704  1.0931
 7964TIP3    H245308   0.115   1.608   1.333  0.2222 -0.2176 -0.0460
 7965TIP3   OH245309   4.289   3.804   2.659 -0.1802 -0.0566  0.0019
 7965TIP3    H145310   4.299   3.710   2.645 -1.1120  0.1347 -2.4077
 7965TIP3    H245311   4.271   3.840   2.572  0.7896  2.4645  0.7421
 7966TIP3   OH245312   5.576   2.714  15.556  0.1271 -0.0135 -0.0516
 7966TIP3    H145313   5.582   2.620  15.540  2.2040 -0.0749  0.8025
 7966TIP3    H245314   5.514   2.722  15.628  0.8312 -0.8543  0.6720
 7967TIP3   OH245315   3.803   4.776  11.537  0.4170 -0.1846  0.4136
 7967TIP3    H145316   3.712   4.773  11.507  0.7359 -0.0771 -0.5840
 7967TIP3    H245317   3.838   4.690  11.516  1.6513  0.9926 -2.8662
 7968TIP3   OH245318   2.394   4.338   1.008  0.4201 -0.1842  0.3701
 7968TIP3    H145319   2.303   4.352   1.035 -0.3104 -3.1275 -0.2135
 7968TIP3    H245320   2.446   4.380   1.076 -1.3226  1.7486  0.6289
 7969TIP3   OH245321   5.505   5.938   5.558  0.2341 -0.1722 -0.3485
 7969TIP3    H145322   5.497   6.027   5.593  0.4466  0.5379 -2.0175
 7969TIP3    H245323   5.490   5.948   5.464 -1.2037 -2.1341 -0.3894
 7970TIP3   OH245324   0.105   2.059  11.094  0.2084 -0.2441  0.5737
 7970TIP3    H145325   0.126   1.980  11.045  0.4697 -1.0822  2.0002
 7970TIP3    H245326   0.023   2.090  11.055  0.6642 -0.5913 -0.7064
 7971TIP3   OH245327   1.611   6.532   1.238  0.5784  0.3596 -0.3802
 7971TIP3    H145328   1.516   6.543   1.231  0.7150  1.9572  0.0414
 7971TIP3    H245329   1.628   6.448   1.194 -0.9752  0.2039 -0.7521
 7972TIP3   OH245330   3.843   4.284  13.174  0.1307 -0.1596 -0.1774
 7972TIP3    H145331   3.880   4.221  13.113 -3.7942 -2.0616 -0.9449
 7972TIP3    H245332   3.861   4.370  13.135  1.5979 -1.0514 -1.5633
 7973TIP3   OH245333   6.707   0.128  12.971 -0.2413  0.1959 -0.1613
 7973TIP3    H145334   6.723   0.035  12.958  1.9421  0.6642 -1.3813
 7973TIP3    H245335   6.674   0.160  12.887 -0.0662  0.6885 -0.0479
 7974TIP3   OH245336   2.228   3.526   2.188 -0.5743  0.7273  0.5610
 7974TIP3    H145337   2.138   3.552   2.169  0.1564  2.2499 -1.0092
 7974TIP3    H245338   2.277   3.608   2.196  0.9337 -0.0660  0.0009
 7975TIP3   OH245339   6.282   2.130  11.025 -0.5499 -0.3192  0.0829
 7975TIP3    H145340   6.301   2.217  10.991 -0.0495 -0.1985  0.6679
 7975TIP3    H245341   6.361   2.079  11.008 -1.0278 -0.8122 -0.7288
 7976TIP3   OH245342   6.125   6.025   3.859 -0.2284  0.2652 -0.1640
 7976TIP3    H145343   6.207   6.026   3.909 -0.3468  1.2461  0.0307
 7976TIP3    H245344   6.133   5.950   3.801 -0.7278 -1.9201  2.3834
 7977TIP3   OH245345   1.748   1.575  14.672 -0.2755  0.6960 -0.5823
 7977TIP3    H145346   1.801   1.496  14.659 -0.2938  0.3439  1.2462
 7977TIP3    H245347   1.810   1.647  14.663 -0.0209  0.4218 -1.0707
 7978TIP3   OH245348   2.153   1.310   2.662  0.4270 -0.0903 -0.4616
 7978TIP3    H145349   2.178   1.402   2.670 -0.4434  0.0888  0.3142
 7978TIP3    H245350   2.058   1.311   2.653  0.5813 -0.7713 -3.0720
 7979TIP3   OH245351   1.990   3.427  14.689 -0.5970  0.1663  0.7306
 7979TIP3    H145352   1.963   3.372  14.763 -2.0962  0.4811  0.4514
 7979TIP3    H245353   1.920   3.492  14.681  1.3266  2.4087  1.3037
 7980TIP3   OH245354   2.352   3.887  12.332  0.0147 -0.7000  0.0387
 7980TIP3    H145355   2.342   3.865  12.424 -1.5393  1.5245  0.4963
 7980TIP3    H245356   2.263   3.900  12.300  0.6054  1.2375 -1.0244
 7981TIP3   OH245357   4.159   5.701   1.956 -0.3477 -0.3069  0.2295
 7981TIP3    H145358   4.238   5.725   1.907 -1.1034  2.1062  0.0823
 7981TIP3    H245359   4.088   5.710   1.893 -1.1811  1.5417  1.3734
 7982TIP3   OH245360   4.338   1.637   3.241  0.6005  0.2101  0.0636
 7982TIP3    H145361   4.305   1.624   3.330 -1.2528 -0.4685 -0.6755
 7982TIP3    H245362   4.261   1.630   3.186  1.9359 -0.9934 -1.7632
 7983TIP3   OH245363   5.036   1.149  14.233  0.2635  0.1023  0.1894
 7983TIP3    H145364   5.117   1.183  14.270  0.3227  1.8138 -1.3687
 7983TIP3    H245365   4.973   1.220  14.241 -0.8147 -0.8514  0.4657
 7984TIP3   OH245366   6.237   1.406   6.184 -0.0510 -0.1719  0.0732
 7984TIP3    H145367   6.299   1.477   6.198  1.3777 -1.1292 -1.1610
 7984TIP3    H245368   6.188   1.401   6.266  1.5459  0.5784  1.1200
 7985TIP3   OH245369   3.116   6.651  16.838  0.0305 -0.2529  0.1759
 7985TIP3    H145370   3.202   6.628  16.872  0.2121 -2.4438 -1.4879
 7985TIP3    H245371   3.133   6.685  16.750 -0.7787 -0.9597 -0.2760
 7986TIP3   OH245372   6.806   4.458   2.353 -0.1537  0.1055 -0.0004
 7986TIP3    H145373   6.876   4.406   2.315 -0.9038  0.6679 -2.3489
 7986TIP3    H245374   6.834   4.549   2.342 -0.8977  0.3134 -0.2490
 7987TIP3   OH245375   5.717   4.050  14.108  0.4187 -0.0815 -0.3358
 7987TIP3    H145376   5.724   4.033  14.014 -0.5092 -0.2872 -0.3848
 7987TIP3    H245377   5.663   4.129  14.114 -0.0931 -0.4460  0.0280
 7988TIP3   OH245378   5.537   3.517  14.522  0.2682 -0.7312  0.2123
 7988TIP3    H145379   5.542   3.489  14.613  1.7211  1.4296  0.8851
 7988TIP3    H245380   5.626   3.503  14.488 -0.2724 -1.5809 -0.9340
 7989TIP3   OH245381   4.496   4.205  11.215  0.4607  0.0447 -0.4823
 7989TIP3    H145382   4.451   4.172  11.138  2.0495 -0.9432 -1.0427
 7989TIP3    H245383   4.447   4.170  11.289 -0.0035 -0.5415 -1.0583
 7990TIP3   OH245384   4.736   3.174   1.541 -0.2463  0.4242  0.4968
 7990TIP3    H145385   4.734   3.091   1.492  1.6079  0.8060 -0.3044
 7990TIP3    H245386   4.770   3.150   1.627  0.0392  0.3136  0.3533
 7991TIP3   OH245387   4.792   0.379   2.366 -0.5471 -0.2885 -0.4605
 7991TIP3    H145388   4.841   0.343   2.292  0.2259 -0.2603  0.0242
 7991TIP3    H245389   4.781   0.305   2.426  0.8540  0.1898  0.4411
 7992TIP3   OH245390   0.798   2.406  15.657  0.3931 -0.4657 -0.1601
 7992TIP3    H145391   0.766   2.349  15.587  0.0274  0.9204 -1.1560
 7992TIP3    H245392   0.870   2.455  15.618  2.1744 -1.7224  1.3219
 7993TIP3   OH245393   1.647   2.054  14.244  0.0403 -0.1012 -0.8385
 7993TIP3    H145394   1.636   2.015  14.157  1.9221 -0.4563 -0.9575
 7993TIP3    H245395   1.697   1.989  14.293  0.0791  0.6325  0.1235
 7994TIP3   OH245396   4.902   2.055   0.334 -0.2143  0.1661  0.6026
 7994TIP3    H145397   4.987   2.082   0.368 -0.2473 -0.1707  0.9578
 7994TIP3    H245398   4.866   2.134   0.294  0.7307  0.0628 -0.5219
 7995TIP3   OH245399   0.256   2.666   6.244  0.2284 -0.7530  0.8390
 7995TIP3    H145400   0.300   2.732   6.299  0.0776 -0.3178  0.4471
 7995TIP3    H245401   0.328   2.623   6.198  0.4425 -1.7918  2.0807
 7996TIP3   OH245402   6.259   2.323   5.444 -0.3834 -0.6433 -0.0035
 7996TIP3    H145403   6.349   2.292   5.438  0.3627  1.4945 -0.9108
 7996TIP3    H245404   6.230   2.333   5.353 -1.2876 -0.6363  0.2678
 7997TIP3   OH245405   6.333   6.743   0.869  0.1433 -0.1427  0.2816
 7997TIP3    H145406   6.330   6.838   0.857  0.7936 -0.2431 -0.7937
 7997TIP3    H245407   6.248   6.721   0.907 -1.7068  0.4010 -3.1829
 7998TIP3   OH245408   5.929   6.160  10.339 -0.0115  0.4443 -0.1482
 7998TIP3    H145409   5.918   6.255  10.329 -0.8121  0.3519 -0.1940
 7998TIP3    H245410   5.853   6.132  10.389  0.2913 -0.1623 -0.0177
 7999TIP3   OH245411   1.355   1.257  14.588  0.0350  0.3641 -0.2076
 7999TIP3    H145412   1.353   1.303  14.671 -2.5571 -1.7851  1.0671
 7999TIP3    H245413   1.276   1.287  14.542 -0.1345 -0.6339 -0.5847
 8000TIP3   OH245414   5.405   0.361  13.643 -0.2279 -0.3146  0.1088
 8000TIP3    H145415   5.320   0.347  13.601  0.4044  1.3802 -1.8860
 8000TIP3    H245416   5.468   0.316  13.586  0.5289  1.0785 -0.2000
 8001TIP3   OH245417   1.689   3.753  13.648  0.3535 -0.3387 -0.4176
 8001TIP3    H145418   1.725   3.707  13.572 -0.3012  2.1699 -2.3946
 8001TIP3    H245419   1.596   3.766  13.626 -0.0253 -0.1774  1.1682
 8002TIP3   OH245420   1.012   2.195  16.803 -0.8813 -1.2378 -0.8377
 8002TIP3    H145421   1.063   2.116  16.823  1.0910 -0.5401 -2.7004
 8002TIP3    H245422   1.075   2.267  16.813 -2.7293  0.2307  1.2445
 8003TIP3   OH245423   4.429   5.926  16.000 -0.2745  0.3872  0.2081
 8003TIP3    H145424   4.514   5.884  15.990  0.2810  1.6044 -0.3297
 8003TIP3    H245425   4.391   5.924  15.913 -0.6911  0.0993  0.3906
 8004TIP3   OH245426   5.077   6.078  13.217  0.0399  0.2778  0.0664
 8004TIP3    H145427   5.155   6.036  13.181  0.5636 -0.3456  1.8315
 8004TIP3    H245428   5.046   6.136  13.147  0.2903 -1.7308 -1.8150
 8005TIP3   OH245429   5.514   3.766   4.372  0.3593  0.2302 -0.5940
 8005TIP3    H145430   5.531   3.672   4.379  1.4030  0.4484  0.0917
 8005TIP3    H245431   5.566   3.793   4.296 -0.6578  0.1146 -1.3543
 8006TIP3   OH245432   5.948   2.055  13.505  0.2205  0.0592  0.4673
 8006TIP3    H145433   5.925   2.144  13.480 -1.8533 -0.2080  1.2032
 8006TIP3    H245434   5.991   2.064  13.590 -1.6847  0.2871  1.4695
 8007TIP3   OH245435   3.981   4.682  15.190 -0.0637 -0.2638 -0.0769
 8007TIP3    H145436   3.916   4.655  15.125  1.5133 -2.7073 -0.7612
 8007TIP3    H245437   4.023   4.601  15.218  0.6130  0.9181  2.6409
 8008TIP3   OH245438   1.106   3.690  11.316 -0.0506  0.1254  0.3604
 8008TIP3    H145439   1.040   3.715  11.381  1.7396  1.7772  1.6678
 8008TIP3    H245440   1.124   3.770  11.268  1.5654 -0.0614  0.5895
 8009TIP3   OH245441   5.367   6.203   6.125 -0.2735  0.5282  0.2320
 8009TIP3    H145442   5.362   6.108   6.118  2.2918  0.4123 -1.2563
 8009TIP3    H245443   5.394   6.220   6.215  1.3801 -0.3259 -0.0768
 8010TIP3   OH245444   2.696   2.336   4.325  0.2554 -0.4080  0.0545
 8010TIP3    H145445   2.742   2.388   4.391  0.6788 -1.1977  0.3824
 8010TIP3    H245446   2.611   2.318   4.364 -0.4251  1.1558 -0.5998
 8011TIP3   OH245447   3.773   3.693   6.717  0.0980  0.1852 -0.0726
 8011TIP3    H145448   3.784   3.647   6.633  0.3061  0.8806 -0.4346
 8011TIP3    H245449   3.783   3.785   6.695  0.2118  0.3727  0.7371
 8012TIP3   OH245450   3.798   5.329  11.582  0.3109  0.2077 -0.1469
 8012TIP3    H145451   3.782   5.270  11.655  2.3988 -0.2551 -0.0153
 8012TIP3    H245452   3.760   5.284  11.506  1.2017 -0.9916  0.0837
 8013TIP3   OH245453   0.263   2.702   0.879 -0.4780  0.1224 -0.4399
 8013TIP3    H145454   0.214   2.750   0.946  0.8547 -0.3520  0.9262
 8013TIP3    H245455   0.286   2.768   0.814 -1.5357  0.6589 -0.2802
 8014TIP3   OH245456   3.284   0.546  16.148  0.0300 -0.0674 -0.4791
 8014TIP3    H145457   3.300   0.638  16.128 -3.2595  0.7409  0.0677
 8014TIP3    H245458   3.289   0.501  16.064  2.8576  0.3142 -0.5985
 8015TIP3   OH245459   0.432   2.629  11.391 -0.3090 -0.3029 -0.4093
 8015TIP3    H145460   0.374   2.607  11.464 -0.2607  0.1441 -0.2335
 8015TIP3    H245461   0.425   2.554  11.332  1.7330 -1.9557  1.2992
 8016TIP3   OH245462   5.313   3.340  16.947  0.0033 -0.0784  0.3313
 8016TIP3    H145463   5.235   3.284  16.951  0.6926 -0.9959  1.9395
 8016TIP3    H245464   5.319   3.378  17.035  1.2037  0.2235  0.1288
 8017TIP3   OH245465   5.152   1.629   4.888  0.3643  0.0783 -0.4117
 8017TIP3    H145466   5.231   1.677   4.861  1.8979 -1.0589  1.6728
 8017TIP3    H245467   5.172   1.600   4.977 -1.8109 -1.6109 -0.3980
 8018TIP3   OH245468   5.315   6.216  11.120  0.0849  0.3971  0.3736
 8018TIP3    H145469   5.400   6.259  11.129 -0.4966  1.6300  0.2250
 8018TIP3    H245470   5.257   6.267  11.178 -0.8390  0.4192 -0.5448
 8019TIP3   OH245471   2.356   1.573   1.971  0.4046  0.2051 -0.0201
 8019TIP3    H145472   2.292   1.505   1.994  2.1067 -1.2490  0.6434
 8019TIP3    H245473   2.377   1.555   1.880  0.9804 -0.2823  0.2047
 8020TIP3   OH245474   6.021   1.022  10.265 -0.6703 -0.3139 -0.0294
 8020TIP3    H145475   6.066   1.092  10.217 -1.6628  2.0372  2.2461
 8020TIP3    H245476   6.086   0.951  10.271  0.6315  0.6549 -1.7853
 8021TIP3   OH245477   3.137   3.226   0.819  0.1873 -0.0043  0.5245
 8021TIP3    H145478   3.189   3.278   0.758  0.1147  0.3910  0.7905
 8021TIP3    H245479   3.173   3.248   0.905  0.0381 -0.2610  0.6532
 8022TIP3   OH245480   6.434   0.048  12.541  0.0720  0.6968 -0.3865
 8022TIP3    H145481   6.377  -0.028  12.550 -0.8593  1.5286  1.0549
 8022TIP3    H245482   6.468   0.042  12.451  2.3077 -2.9686  0.4564
 8023TIP3   OH245483   4.581   3.594  13.034 -0.2817  1.0755 -0.2710
 8023TIP3    H145484   4.640   3.596  13.109 -2.1197  0.7801  1.2586
 8023TIP3    H245485   4.531   3.675  13.040  1.6644  2.6614 -3.1024
 8024TIP3   OH245486   4.471   1.020   4.366 -0.0015 -0.2225  0.1182
 8024TIP3    H145487   4.382   1.047   4.343  0.6217  4.4510  2.1917
 8024TIP3    H245488   4.526   1.058   4.298  0.6093 -0.9815  0.1767
 8025TIP3   OH245489   6.145   4.763   0.334  0.6453  0.2503  0.3917
 8025TIP3    H145490   6.232   4.766   0.374  1.1141 -1.5435 -0.4306
 8025TIP3    H245491   6.161   4.744   0.242 -0.5493  1.9324 -0.2195
 8026TIP3   OH245492   3.156   3.927  11.057 -0.0412 -0.3266 -0.0261
 8026TIP3    H145493   3.173   3.868  10.983  1.7011  0.4501 -0.3012
 8026TIP3    H245494   3.211   4.003  11.039 -0.8133  0.5637  1.2757
 8027TIP3   OH245495   6.271   4.115   4.275  0.1747 -0.5840 -0.3312
 8027TIP3    H145496   6.353   4.161   4.261 -0.5329  0.7727 -0.2525
 8027TIP3    H245497   6.228   4.114   4.189 -0.3200 -0.0496 -0.0996
 8028TIP3   OH245498   0.780   0.008  15.886  0.2493  0.1901 -0.0440
 8028TIP3    H145499   0.791  -0.050  15.810  1.2161  0.9979 -0.5433
 8028TIP3    H245500   0.815   0.092  15.857 -0.9259  0.9762  0.7448
 8029TIP3   OH245501   3.890   2.561  16.077 -0.2396 -0.0640  0.7254
 8029TIP3    H145502   3.924   2.475  16.052 -0.4702  0.5749 -2.0986
 8029TIP3    H245503   3.939   2.584  16.156  0.8665 -2.1481  0.7040
 8030TIP3   OH245504   0.128   3.665  14.236  0.6740 -0.0120 -0.2314
 8030TIP3    H145505   0.068   3.710  14.176 -0.3297  1.1232  1.5279
 8030TIP3    H245506   0.123   3.573  14.210 -1.8213  0.0416 -0.2116
 8031TIP3   OH245507   3.961   2.519   5.558 -0.0876  0.0522 -0.2621
 8031TIP3    H145508   3.938   2.560   5.641  0.3231  0.3988 -0.3136
 8031TIP3    H245509   3.952   2.425   5.575 -0.8521  0.1475 -0.0873
 8032TIP3   OH245510   3.041   2.770  13.540  0.3436  0.3575 -0.1976
 8032TIP3    H145511   3.027   2.695  13.482  2.3520 -0.1189 -0.1481
 8032TIP3    H245512   3.115   2.744  13.596 -0.8913  1.1786  1.9481
 8033TIP3   OH245513   0.530   5.729  14.910 -0.1307 -0.1651 -0.4543
 8033TIP3    H145514   0.452   5.759  14.956  0.6174  0.8380  0.1893
 8033TIP3    H245515   0.508   5.640  14.882 -0.8795 -0.5431  1.1981
 8034TIP3   OH245516   4.865   6.088   1.776  0.5374  0.2197 -0.2194
 8034TIP3    H145517   4.811   6.125   1.845 -0.8049  1.3108 -1.7884
 8034TIP3    H245518   4.955   6.098   1.807 -0.0291  0.6214  1.3671
 8035TIP3   OH245519   1.378   0.849  16.121  0.4639 -0.1826 -0.3327
 8035TIP3    H145520   1.448   0.911  16.102 -0.3889  1.5475  1.7773
 8035TIP3    H245521   1.325   0.847  16.041  1.1490  0.9215 -0.8350
 8036TIP3   OH245522   3.328   4.316   3.918  0.8393 -0.7521 -0.4954
 8036TIP3    H145523   3.284   4.388   3.874  1.0108 -0.2917  0.0702
 8036TIP3    H245524   3.351   4.254   3.848  1.6902  0.2682 -1.1457
 8037TIP3   OH245525   6.811   3.894   2.534  0.1699 -0.4768  0.3401
 8037TIP3    H145526   6.895   3.909   2.577  0.5800  0.1787 -0.6327
 8037TIP3    H245527   6.770   3.824   2.584  0.4026  0.5614  2.0720
 8038TIP3   OH245528   1.084   5.906   2.895 -0.1935 -0.4146  0.0478
 8038TIP3    H145529   1.075   5.962   2.818  1.7482  0.4838  0.4110
 8038TIP3    H245530   1.058   5.962   2.968  0.5222 -0.3796  0.2840
 8039TIP3   OH245531   0.409   0.914   3.894 -0.6682 -0.0348  0.1318
 8039TIP3    H145532   0.441   1.003   3.913 -1.9349  1.0614 -2.4283
 8039TIP3    H245533   0.340   0.900   3.959  0.1561  0.4599  1.1445
 8040TIP3   OH245534   5.869   1.262  10.941 -0.5365 -0.3854  0.2848
 8040TIP3    H145535   5.887   1.321  10.868 -1.0586  1.3350  1.4677
 8040TIP3    H245536   5.877   1.174  10.904  0.3835  0.4062 -1.5340
 8041TIP3   OH245537   6.099   2.423  13.659  0.0412  0.0911 -1.0839
 8041TIP3    H145538   6.088   2.483  13.585 -1.1167  0.5037 -0.6132
 8041TIP3    H245539   6.012   2.385  13.672  0.2192  0.0321  0.0643
 8042TIP3   OH245540   0.895   1.217   3.753  0.5410 -0.2200 -0.4423
 8042TIP3    H145541   0.821   1.157   3.744 -0.3003  0.6237  0.6205
 8042TIP3    H245542   0.953   1.173   3.815  0.6156 -0.5830 -0.7655
 8043TIP3   OH245543   0.673   5.606   3.909 -0.3427  0.2802  0.2974
 8043TIP3    H145544   0.662   5.699   3.888  0.3474  1.1228  3.1605
 8043TIP3    H245545   0.656   5.601   4.003  0.2103 -2.4130  0.3239
 8044TIP3   OH245546   5.785   0.911  11.976  0.1423  0.0551 -0.4597
 8044TIP3    H145547   5.825   0.868  12.053 -1.6622  0.3011  0.6807
 8044TIP3    H245548   5.697   0.935  12.006 -1.3610 -1.5902 -3.2045
 8045TIP3   OH245549   1.081   2.780  11.156 -0.4603  0.1949 -0.4067
 8045TIP3    H145550   1.109   2.774  11.247 -0.8133 -0.7783 -0.3559
 8045TIP3    H245551   1.014   2.848  11.155  0.3690  1.0463 -0.1612
 8046TIP3   OH245552   5.374   2.143   1.956 -0.0997  0.3283 -0.5306
 8046TIP3    H145553   5.393   2.123   1.865 -0.5957 -1.6667 -0.2519
 8046TIP3    H245554   5.306   2.080   1.980  1.2953 -0.4348  1.7161
 8047TIP3   OH245555   2.234   0.777   5.172  0.3908 -0.5083  0.3409
 8047TIP3    H145556   2.310   0.829   5.198 -0.7405  1.7127 -0.4615
 8047TIP3    H245557   2.251   0.689   5.205  2.0522  0.5624  2.5546
 8048TIP3   OH245558   0.954   3.444   0.191 -0.0505  0.4174  0.1287
 8048TIP3    H145559   1.033   3.477   0.233  0.6523 -0.8769 -0.1432
 8048TIP3    H245560   0.893   3.428   0.264 -0.0087  1.2509  0.3514
 8049TIP3   OH245561   5.258   0.784  12.734  0.0496 -0.2976 -0.4699
 8049TIP3    H145562   5.285   0.845  12.802  4.1109 -1.0695 -1.1584
 8049TIP3    H245563   5.176   0.747  12.766  0.0938  1.7731  2.3682
 8050TIP3   OH245564   1.384   0.226   3.104  0.9013 -0.3493  0.1572
 8050TIP3    H145565   1.323   0.152   3.102  0.5073 -0.0218  0.1016
 8050TIP3    H245566   1.352   0.282   3.175  1.0795 -0.1285  0.0629
 8051TIP3   OH245567   0.262   2.448   5.871 -0.1788  0.2208  0.6051
 8051TIP3    H145568   0.204   2.519   5.845  1.4245  1.0463 -0.9179
 8051TIP3    H245569   0.310   2.425   5.791  1.3512 -0.6334  1.7128
 8052TIP3   OH245570   2.474   4.635  10.584 -0.0009 -0.4498  0.1555
 8052TIP3    H145571   2.464   4.729  10.569 -0.2164 -0.4336  0.3889
 8052TIP3    H245572   2.527   4.630  10.664 -1.9082 -0.4995  1.4861
 8053TIP3   OH245573   3.440   5.363   0.237 -0.3148 -0.4573  0.6040
 8053TIP3    H145574   3.361   5.329   0.194  0.6023  0.6445 -2.1891
 8053TIP3    H245575   3.429   5.458   0.234  1.4387 -0.2562 -0.5523
 8054TIP3   OH245576   1.813   4.638   5.310  0.1821  0.0953 -0.6348
 8054TIP3    H145577   1.745   4.705   5.309 -0.5176 -0.5936 -0.1027
 8054TIP3    H245578   1.772   4.561   5.271  0.8247 -0.1722 -0.7940
 8055TIP3   OH245579   0.713   0.712   2.649  0.4036  0.1503  0.3859
 8055TIP3    H145580   0.692   0.805   2.656 -0.1471  0.0175  0.5477
 8055TIP3    H245581   0.629   0.669   2.636  0.7999 -0.1912 -1.2696
 8056TIP3   OH245582   2.278   4.864  14.627 -0.5090  0.0505  0.5039
 8056TIP3    H145583   2.298   4.789  14.683 -0.7910 -0.6098 -0.2556
 8056TIP3    H245584   2.192   4.893  14.657 -0.9483 -0.6998  0.0206
 8057TIP3   OH245585   5.288   5.204  16.452  0.7513  0.1058 -0.0686
 8057TIP3    H145586   5.210   5.210  16.506 -0.1986  0.9351 -1.4519
 8057TIP3    H245587   5.299   5.110  16.437 -0.8576  0.0183 -1.0038
 8058TIP3   OH245588   6.023   2.444  15.290 -0.5688  0.7640 -0.2546
 8058TIP3    H145589   5.982   2.391  15.358  0.5558 -2.8188 -2.0680
 8058TIP3    H245590   5.974   2.423  15.210  0.6150  1.6205 -1.2475
 8059TIP3   OH245591   3.234   2.561  16.967 -0.0880 -0.4526  0.2450
 8059TIP3    H145592   3.228   2.505  16.889  0.0418  0.2109 -0.2495
 8059TIP3    H245593   3.321   2.543  17.003  0.2881  0.0457 -0.3957
 8060TIP3   OH245594   2.869   2.117   1.919  0.5612  0.0145 -0.2530
 8060TIP3    H145595   2.930   2.053   1.883  2.4392  0.5134  1.8220
 8060TIP3    H245596   2.845   2.082   2.005 -0.7380  0.6896 -0.3124
 8061TIP3   OH245597   1.478   1.672   0.792 -0.4168 -0.4797  0.3336
 8061TIP3    H145598   1.523   1.749   0.827 -1.0423 -0.1472  0.4186
 8061TIP3    H245599   1.386   1.695   0.794 -0.4401  0.0172 -2.6636
 8062TIP3   OH245600   4.626   2.802  13.445  0.2161 -0.2396  0.2041
 8062TIP3    H145601   4.556   2.760  13.394  0.9614 -0.4684 -0.6602
 8062TIP3    H245602   4.706   2.759  13.415  0.6120 -0.9887  2.1902
 8063TIP3   OH245603   6.444   5.460   5.149  0.2764  0.0766 -0.2407
 8063TIP3    H145604   6.437   5.520   5.075  1.4401 -1.2140 -1.4615
 8063TIP3    H245605   6.441   5.517   5.226  4.7772  2.2644 -1.3188
 8064TIP3   OH245606   6.161   4.389  12.045 -0.4839  0.4209 -0.5414
 8064TIP3    H145607   6.089   4.358  11.991 -1.4274  2.7567 -0.7447
 8064TIP3    H245608   6.230   4.324  12.033 -1.7265 -0.6751 -2.1779
 8065TIP3   OH245609   3.584   2.035  12.988  0.4504  0.3109 -0.1152
 8065TIP3    H145610   3.639   2.108  13.017 -0.1324  0.0091  1.8645
 8065TIP3    H245611   3.636   1.992  12.920  2.1861  0.6952  0.9100
 8066TIP3   OH245612   1.328   6.255   1.593  0.4456 -0.3093 -0.3184
 8066TIP3    H145613   1.324   6.209   1.677 -1.3075 -0.2811 -0.3494
 8066TIP3    H245614   1.297   6.343   1.614  3.2428  0.7954 -0.3640
 8067TIP3   OH245615   3.611   6.694  15.661 -0.5793  0.7989  0.2786
 8067TIP3    H145616   3.570   6.608  15.660  0.5189  0.2589  0.4955
 8067TIP3    H245617   3.538   6.755  15.673 -1.7291  0.1501 -2.6715
 8068TIP3   OH245618   6.765   4.181   3.836 -0.2739  0.6185  0.4629
 8068TIP3    H145619   6.682   4.180   3.789  1.0964  2.0488 -2.2037
 8068TIP3    H245620   6.812   4.257   3.801  1.7735  0.4625  2.6151
 8069TIP3   OH245621   6.457   0.987   5.162  0.4917  0.2165 -0.9293
 8069TIP3    H145622   6.414   0.965   5.245 -0.0726  0.1924 -1.2278
 8069TIP3    H245623   6.485   1.078   5.173 -1.4249  0.9090 -1.4714
 8070TIP3   OH245624   6.390   0.740  11.467  0.2081 -0.2971  0.6260
 8070TIP3    H145625   6.321   0.684  11.502 -0.3911  0.3691  0.5374
 8070TIP3    H245626   6.345   0.821  11.442  1.1058  0.3402  1.0228
 8071TIP3   OH245627   5.062   3.531  16.714 -0.1948  0.0865 -0.3244
 8071TIP3    H145628   4.980   3.578  16.701 -0.0928  0.1358 -0.7778
 8071TIP3    H245629   5.082   3.492  16.629 -0.2461 -0.7291  0.0219
 8072TIP3   OH245630   3.073   0.823   1.350 -0.1613 -0.3687  0.5591
 8072TIP3    H145631   3.004   0.844   1.413 -0.8587 -0.2401 -0.2309
 8072TIP3    H245632   3.026   0.797   1.270  0.6840 -1.8175  0.4931
 8073TIP3   OH245633   4.856   2.706   4.393  0.5118  0.3172 -0.2539
 8073TIP3    H145634   4.840   2.761   4.469 -1.3846  2.6490 -2.1988
 8073TIP3    H245635   4.785   2.642   4.393  1.5594 -0.9080  0.8701
 8074TIP3   OH245636   4.851   1.613  13.961 -0.1582  0.6233  0.5603
 8074TIP3    H145637   4.794   1.617  14.038  0.5785 -0.6718  1.2006
 8074TIP3    H245638   4.914   1.684  13.975  1.1110 -0.7307  2.1274
 8075TIP3   OH245639   6.694   1.500   0.938 -0.0623 -0.8082  0.3310
 8075TIP3    H145640   6.781   1.527   0.907 -0.0367 -1.1175  0.1238
 8075TIP3    H245641   6.633   1.553   0.888  0.0164 -0.2115  0.8510
 8076TIP3   OH245642   3.275   3.033  14.280 -0.4456 -0.5177  0.1905
 8076TIP3    H145643   3.230   3.094  14.338  0.7382  0.1034  0.4945
 8076TIP3    H245644   3.291   2.955  14.334 -1.0873 -0.7177  0.0972
 8077TIP3   OH245645   4.283   4.358  14.423 -0.9864 -0.0029  0.6207
 8077TIP3    H145646   4.322   4.277  14.458  0.5644  0.6488  0.4876
 8077TIP3    H245647   4.207   4.373  14.479 -0.6788 -0.9752  1.3407
 8078TIP3   OH245648   3.629   0.602  13.952 -0.3857 -0.7576  0.0186
 8078TIP3    H145649   3.567   0.674  13.968  1.0333  0.5509 -0.0981
 8078TIP3    H245650   3.672   0.626  13.869  1.3992 -0.7404  0.8892
 8079TIP3   OH245651   0.409   4.060  16.669 -0.3045  0.2890 -0.2713
 8079TIP3    H145652   0.345   4.110  16.619  0.1148 -0.4944 -1.6143
 8079TIP3    H245653   0.487   4.057  16.614  0.3595 -0.1279  0.6564
 8080TIP3   OH245654   4.114   1.904  15.512 -0.0776 -0.0080  0.4264
 8080TIP3    H145655   4.080   1.954  15.438 -0.9874 -0.1627  0.7248
 8080TIP3    H245656   4.044   1.908  15.577 -1.0480 -3.3251 -0.2725
 8081TIP3   OH245657   6.154   2.341  13.316  0.3909  0.5450  0.2595
 8081TIP3    H145658   6.224   2.367  13.256  2.0361 -0.2085  1.7466
 8081TIP3    H245659   6.194   2.272  13.370 -2.0672 -1.1562  0.0356
 8082TIP3   OH245660   2.541   5.578   2.266  0.5029 -0.7164  0.2127
 8082TIP3    H145661   2.594   5.539   2.196  0.4802  0.7868 -0.6752
 8082TIP3    H245662   2.453   5.542   2.252 -0.2414  1.7716 -2.4601
 8083TIP3   OH245663   5.722   5.417  16.744 -0.4871  0.0830 -0.3734
 8083TIP3    H145664   5.716   5.323  16.761 -1.1879  0.0889 -0.5266
 8083TIP3    H245665   5.753   5.454  16.826 -2.3807 -0.0461  0.4534
 8084TIP3   OH245666   6.763   6.556   6.253 -0.1431  0.2910  0.1386
 8084TIP3    H145667   6.795   6.535   6.341  2.1829  0.5976 -0.5587
 8084TIP3    H245668   6.792   6.483   6.198  2.0474  1.8983 -1.0390
 8085TIP3   OH245669   4.996   2.905  14.270 -0.4095 -0.6230  0.4709
 8085TIP3    H145670   4.910   2.867  14.249 -0.9601  0.8416 -0.0355
 8085TIP3    H245671   5.007   2.975  14.206  1.9717 -1.8847 -0.6069
 8086TIP3   OH245672   6.009   4.988  15.772 -0.7162 -0.1036  0.1072
 8086TIP3    H145673   5.987   5.044  15.847  0.2228 -1.0176  1.1142
 8086TIP3    H245674   6.099   5.013  15.749 -0.4133 -0.9307  0.3489
 8087TIP3   OH245675   2.085   5.072  16.579  0.2027 -0.5493  0.0331
 8087TIP3    H145676   2.002   5.028  16.596  0.1930  0.1539  1.9056
 8087TIP3    H245677   2.128   5.016  16.514 -1.8091 -0.7843 -1.1696
 8088TIP3   OH245678   2.465   3.593   1.875 -0.4834  0.1456  0.2726
 8088TIP3    H145679   2.513   3.550   1.946 -0.8440  1.0314  1.0728
 8088TIP3    H245680   2.534   3.633   1.821 -0.2492  0.1568  0.5755
 8089TIP3   OH245681   0.104   5.098   1.228  0.3476  0.2576  0.2808
 8089TIP3    H145682   0.162   5.170   1.204  0.7670  0.5831  2.1790
 8089TIP3    H245683   0.094   5.104   1.323 -0.9734 -1.1724  0.2854
 8090TIP3   OH245684   2.240   1.704  13.143 -0.9045  0.8545 -0.6848
 8090TIP3    H145685   2.301   1.641  13.180  0.6584  2.5712 -0.1823
 8090TIP3    H245686   2.197   1.743  13.220 -2.4760 -0.1330 -1.0210
 8091TIP3   OH245687   1.224   0.809   1.588 -0.1410  0.1041 -0.0171
 8091TIP3    H145688   1.196   0.881   1.645  0.7247  1.2942 -1.0374
 8091TIP3    H245689   1.265   0.746   1.647  0.7487  1.3118  0.6949
 8092TIP3   OH245690   0.684   5.492   2.048 -0.2961  0.0653 -0.1088
 8092TIP3    H145691   0.673   5.406   2.007 -0.0756 -0.4497  0.8860
 8092TIP3    H245692   0.777   5.512   2.036  0.0074 -0.5684  1.0279
 8093TIP3   OH245693   0.968   1.538   5.892  0.1377 -0.1022 -0.1463
 8093TIP3    H145694   0.896   1.596   5.870 -0.3587 -0.7544 -0.2536
 8093TIP3    H245695   1.036   1.596   5.927  0.4937  0.8099 -2.2403
 8094TIP3   OH245696   5.328   3.010   2.043  0.5267  0.4421  0.5654
 8094TIP3    H145697   5.329   3.086   1.984  1.4848 -0.2798 -0.3940
 8094TIP3    H245698   5.290   3.043   2.124  0.8264  1.9271  0.1373
 8095TIP3   OH245699   1.310   2.887   3.741  0.0003 -0.0455 -0.5428
 8095TIP3    H145700   1.366   2.812   3.722  1.1814  1.1985 -2.2579
 8095TIP3    H245701   1.298   2.930   3.656 -0.2424  1.9490  0.4413
 8096TIP3   OH245702   4.225   3.892   2.914  0.4533  0.0105 -0.3583
 8096TIP3    H145703   4.239   3.862   2.824 -1.4450 -0.5823 -0.5007
 8096TIP3    H245704   4.273   3.975   2.919  0.2836  0.2526 -2.0372
 8097TIP3   OH245705   1.456   0.340  15.673 -0.2727  0.2579  0.1471
 8097TIP3    H145706   1.445   0.434  15.689 -1.2682  0.2497 -0.3902
 8097TIP3    H245707   1.548   0.323  15.694  0.2559  1.5915 -0.8675
 8098TIP3   OH245708   4.837   4.991   5.921  0.0312 -0.1024 -0.4893
 8098TIP3    H145709   4.793   4.919   5.965 -0.1496  0.5475  0.4269
 8098TIP3    H245710   4.811   4.984   5.829 -1.8315  0.1391 -0.0066
 8099TIP3   OH245711   5.970   3.792   0.523  1.0023 -0.1908  0.1822
 8099TIP3    H145712   5.898   3.756   0.575  0.7946  1.9791  1.5334
 8099TIP3    H245713   5.929   3.818   0.440  0.0732  1.3538  1.0748
 8100TIP3   OH245714   0.877   2.065   2.308  0.3497 -0.1463  0.0435
 8100TIP3    H145715   0.825   2.144   2.325  0.3851 -0.5057  2.0030
 8100TIP3    H245716   0.836   2.026   2.231 -0.0704  1.4156 -0.5788
 8101TIP3   OH245717   4.038   1.375  13.579 -0.2861  0.2817  0.3284
 8101TIP3    H145718   3.981   1.351  13.652 -1.3921  0.3363 -0.4878
 8101TIP3    H245719   4.032   1.301  13.518 -0.4679  0.8270 -0.3328
 8102TIP3   OH245720   2.085   2.720  16.612  0.2425 -0.6165  0.0083
 8102TIP3    H145721   2.146   2.782  16.574  0.0574 -0.0242  0.6578
 8102TIP3    H245722   2.126   2.635  16.599  1.2470 -0.2184  0.5082
 8103TIP3   OH245723   6.757   4.597   1.065  0.2403  0.5016  0.5804
 8103TIP3    H145724   6.698   4.639   1.128  1.1283  0.2121  1.6314
 8103TIP3    H245725   6.830   4.658   1.056  1.4315 -0.6382  1.9422
 8104TIP3   OH245726   3.231   2.712   3.189 -0.0396  0.4931 -0.0376
 8104TIP3    H145727   3.183   2.684   3.111 -0.0870 -0.4348  0.3087
 8104TIP3    H245728   3.174   2.687   3.262  0.2350  0.8859  0.3142
 8105TIP3   OH245729   5.550   3.704  14.209  0.0219  1.0103  0.3813
 8105TIP3    H145730   5.632   3.665  14.238 -1.2353 -1.7115  0.6300
 8105TIP3    H245731   5.527   3.767  14.277  1.9260  1.9264  0.2277
 8106TIP3   OH245732   6.062   2.041   4.298  0.5642  0.0998 -0.1095
 8106TIP3    H145733   6.157   2.053   4.294  0.4964  1.2882  1.2475
 8106TIP3    H245734   6.042   1.982   4.225  2.1465  1.1101 -1.4147
 8107TIP3   OH245735   0.505   6.629  11.648  0.3256 -0.2583 -0.1229
 8107TIP3    H145736   0.466   6.604  11.564  2.5020 -0.0642 -1.2674
 8107TIP3    H245737   0.440   6.685  11.689 -1.1539 -1.0625 -1.2926
 8108TIP3   OH245738   3.074   5.018  14.115  0.7284  0.2540  0.5830
 8108TIP3    H145739   3.113   5.058  14.037  0.5558  0.3631  0.5518
 8108TIP3    H245740   2.980   5.034  14.105  0.6000 -0.6315  0.2991
 8109TIP3   OH245741   6.068   2.601   1.529 -0.1413  0.6233  0.3449
 8109TIP3    H145742   6.123   2.646   1.592  0.3731  1.9063 -0.9781
 8109TIP3    H245743   5.979   2.631   1.549  0.0034  0.9468  0.5064
 8110TIP3   OH245744   6.725   6.573  14.981 -0.1233 -0.2131 -0.4380
 8110TIP3    H145745   6.711   6.556  14.887  0.8462 -0.4454 -0.5503
 8110TIP3    H245746   6.640   6.604  15.012  0.2149  2.6812 -1.9906
 8111TIP3   OH245747   4.507   1.433  13.266 -0.3468  0.5703  0.0443
 8111TIP3    H145748   4.490   1.523  13.238 -0.9805  0.5580  0.3761
 8111TIP3    H245749   4.449   1.419  13.341  0.5738  0.2537  0.7117
 8112TIP3   OH245750   3.241   4.676   0.995  0.1736 -0.7183  0.4577
 8112TIP3    H145751   3.197   4.760   0.981 -0.2301 -1.1956 -1.3783
 8112TIP3    H245752   3.203   4.642   1.075  0.2234  0.7720  1.1510
 8113TIP3   OH245753   3.262   4.396  15.356  0.0524 -0.5230 -0.6213
 8113TIP3    H145754   3.344   4.352  15.332  1.1716 -0.1428  2.1516
 8113TIP3    H245755   3.286   4.454  15.427 -2.5408  0.1576 -0.2035
 8114TIP3   OH245756   2.755   5.856  13.249 -0.3928  0.2040  0.2403
 8114TIP3    H145757   2.707   5.816  13.321 -2.3734  2.0812  0.0690
 8114TIP3    H245758   2.718   5.817  13.170 -0.8108  0.7685  0.1486
 8115TIP3   OH245759   6.406   1.733  12.174 -0.1916 -0.4103 -0.0292
 8115TIP3    H145760   6.359   1.688  12.244  1.1116 -1.6506  0.0859
 8115TIP3    H245761   6.377   1.690  12.094  1.5545 -2.0312  0.1293
 8116TIP3   OH245762   3.830   4.079   6.172 -0.0042  0.3130 -0.2691
 8116TIP3    H145763   3.812   4.108   6.262  0.9846 -0.9291  0.3753
 8116TIP3    H245764   3.800   3.988   6.170 -0.0035  0.3218 -1.2087
 8117TIP3   OH245765   3.588   3.980   0.195 -0.2174 -0.3314 -0.5053
 8117TIP3    H145766   3.660   3.978   0.259 -0.4378  1.3848 -0.1390
 8117TIP3    H245767   3.631   3.967   0.111  0.6131  0.9841 -0.3209
 8118TIP3   OH245768   2.759   5.200  15.165  0.1806 -0.9638 -0.2964
 8118TIP3    H145769   2.758   5.159  15.078  2.2855 -1.3623 -0.1871
 8118TIP3    H245770   2.808   5.281  15.152  2.1599 -1.9202  0.8367
 8119TIP3   OH245771   6.469   1.919  15.816 -0.4478 -0.0685 -0.6889
 8119TIP3    H145772   6.519   1.850  15.772  1.4898 -0.0579  1.3361
 8119TIP3    H245773   6.481   1.902  15.909 -1.9221  1.6479 -0.1254
 8120TIP3   OH245774   1.814   2.354   0.878  0.6287 -0.6321 -0.6979
 8120TIP3    H145775   1.889   2.300   0.856 -0.3994 -1.6786 -1.7501
 8120TIP3    H245776   1.751   2.294   0.919 -0.0398  0.0185 -0.7365
 8121TIP3   OH245777   0.350   2.828  14.521  0.5321  0.1021  0.3469
 8121TIP3    H145778   0.402   2.752  14.548 -0.0478 -0.4745 -0.0974
 8121TIP3    H245779   0.269   2.820  14.571  1.2588  1.5979  1.8581
 8122TIP3   OH245780   4.206   4.412  13.884 -0.1273  0.1559  0.6871
 8122TIP3    H145781   4.192   4.425  13.978 -2.6532 -0.1448  0.4294
 8122TIP3    H245782   4.210   4.500  13.847 -0.5726  0.2771  0.9228
 8123TIP3   OH245783   6.027   4.557  12.394 -0.2137  0.3454 -0.0981
 8123TIP3    H145784   6.098   4.607  12.354  1.4125 -0.2559  1.9132
 8123TIP3    H245785   5.950   4.613  12.383  1.2451  2.6524  0.7602
 8124TIP3   OH245786   2.328   5.463   5.390  0.3507  0.3082 -0.0325
 8124TIP3    H145787   2.326   5.381   5.340 -1.4234  0.1008  0.3130
 8124TIP3    H245788   2.270   5.522   5.342  1.2325  1.2208 -0.0087
 8125TIP3   OH245789   3.549   3.882   3.300  0.8035 -0.1467 -0.1617
 8125TIP3    H145790   3.480   3.821   3.273 -0.3343  0.5635  1.0196
 8125TIP3    H245791   3.610   3.828   3.350  0.0202 -0.4279  0.5194
 8126TIP3   OH245792   3.148   1.202   6.002 -0.8353  0.4981 -0.4187
 8126TIP3    H145793   3.204   1.258   6.056 -2.0638 -0.4644  1.9836
 8126TIP3    H245794   3.063   1.245   6.003 -1.5945 -0.9335  0.8098
 8127TIP3   OH245795   0.382   2.915   1.585 -0.2402  0.1010 -0.4258
 8127TIP3    H145796   0.315   2.966   1.630  0.9647  0.0442  1.5428
 8127TIP3    H245797   0.376   2.828   1.624  3.0293  0.8745  2.3497
 8128TIP3   OH245798   1.074   3.695   1.946 -0.1838  0.0498  0.3085
 8128TIP3    H145799   1.037   3.708   2.033  2.9624 -0.5199  1.8562
 8128TIP3    H245800   1.050   3.606   1.922  0.0677 -0.2778  1.2389
 8129TIP3   OH245801   1.085   1.505  13.847 -0.0643 -0.4168  0.3206
 8129TIP3    H145802   1.045   1.434  13.897 -1.7839  0.1913 -0.1195
 8129TIP3    H245803   1.054   1.585  13.889  2.2072  0.1313  1.0872
 8130TIP3   OH245804   1.987   6.617   5.926 -0.0025  0.1436  0.1991
 8130TIP3    H145805   1.991   6.681   5.997 -0.0246 -0.5925  0.8778
 8130TIP3    H245806   2.070   6.570   5.933 -0.3316 -0.4371  0.2275
 8131TIP3   OH245807   5.674   3.663  15.830 -0.3494 -0.6619 -0.0304
 8131TIP3    H145808   5.714   3.607  15.895  0.6424 -0.8342 -0.7626
 8131TIP3    H245809   5.580   3.642  15.833 -0.3787 -0.3735  1.5905
 8132TIP3   OH245810   5.206   4.027  15.577 -0.1718 -0.5011 -0.2867
 8132TIP3    H145811   5.198   4.031  15.481  1.9829  2.0515 -0.4997
 8132TIP3    H245812   5.155   4.102  15.608  0.3450 -0.4199  0.4038
 8133TIP3   OH245813   1.424   2.651  10.264 -0.2022 -0.1004 -0.0849
 8133TIP3    H145814   1.377   2.622  10.343 -1.1749 -1.1345 -1.0029
 8133TIP3    H245815   1.413   2.746  10.264 -1.5823 -0.2287  0.2094
 8134TIP3   OH245816   6.430   4.359  12.280  0.3502  0.1338  0.3479
 8134TIP3    H145817   6.360   4.348  12.345  1.2591  1.3320  1.6054
 8134TIP3    H245818   6.500   4.301  12.310 -0.4438 -1.9998 -1.5786
 8135TIP3   OH245819   6.211   5.656   5.516 -0.6884 -0.3000 -0.1801
 8135TIP3    H145820   6.270   5.653   5.591  1.1905  1.9230 -1.4064
 8135TIP3    H245821   6.150   5.727   5.535 -1.7427 -1.2808  0.2131
 8136TIP3   OH245822   3.669   5.553  15.872 -0.3131 -0.3578  0.3295
 8136TIP3    H145823   3.588   5.505  15.853 -1.0930  1.0316  0.0106
 8136TIP3    H245824   3.705   5.574  15.786 -0.5780  0.5956  0.4451
 8137TIP3   OH245825   4.858   0.619   1.960  0.1681 -0.0132 -0.0010
 8137TIP3    H145826   4.825   0.698   1.918  0.1546  0.2354  0.4684
 8137TIP3    H245827   4.888   0.648   2.046  1.1476 -0.3170 -0.2211
 8138TIP3   OH245828   2.092   4.709   3.257 -0.0268  0.4928  0.3126
 8138TIP3    H145829   2.122   4.678   3.172  1.7037  0.7482  0.7952
 8138TIP3    H245830   2.000   4.680   3.262  0.4960 -1.5149 -0.6727
 8139TIP3   OH245831   0.823   6.816   3.402  0.1941 -0.3556 -0.2873
 8139TIP3    H145832   0.775   6.891   3.436  0.4837 -0.2676 -0.0638
 8139TIP3    H245833   0.857   6.772   3.480 -0.5598 -1.1225 -0.3776
 8140TIP3   OH245834   0.446   1.773   2.113  0.0330  0.7933 -0.1550
 8140TIP3    H145835   0.367   1.736   2.073  0.8764 -1.3113  0.0173
 8140TIP3    H245836   0.443   1.746   2.204  1.7602 -0.8511 -0.5152
 8141TIP3   OH245837   4.931   5.573   1.515  0.2442  0.3551  0.2637
 8141TIP3    H145838   4.988   5.517   1.569 -0.8041  1.3844  2.5733
 8141TIP3    H245839   4.944   5.661   1.550 -2.4319  0.6882  0.6189
 8142TIP3   OH245840   5.400   5.250  11.528  0.2395 -0.2415 -0.0177
 8142TIP3    H145841   5.459   5.308  11.480 -0.6618  2.3506  1.7600
 8142TIP3    H245842   5.367   5.189  11.462 -0.4499  2.6939 -2.6447
 8143TIP3   OH245843   3.122   3.537   2.929  0.3459 -0.5116 -0.2827
 8143TIP3    H145844   3.116   3.448   2.896 -1.2628  0.1397 -1.9382
 8143TIP3    H245845   3.204   3.571   2.892  1.0238 -1.3078  0.4542
 8144TIP3   OH245846   6.348   4.717  12.689  0.1363 -0.0601  0.3514
 8144TIP3    H145847   6.271   4.731  12.744  0.6556 -0.7996  1.2906
 8144TIP3    H245848   6.418   4.767  12.733  0.2572  0.4234 -0.3717
 8145TIP3   OH245849   3.838   3.270  11.427 -0.0220  0.3281 -1.0651
 8145TIP3    H145850   3.871   3.359  11.442 -1.4450  0.6939  0.0913
 8145TIP3    H245851   3.771   3.281  11.359  0.0860  0.0678 -1.2151
 8146TIP3   OH245852   4.812   0.554  16.966 -0.0595  0.3555  0.3300
 8146TIP3    H145853   4.725   0.551  17.006 -0.3463  1.3693 -0.1992
 8146TIP3    H245854   4.859   0.621  17.016  0.8228 -0.9949  1.3756
 8147TIP3   OH245855   0.943   1.660  11.708 -0.0061 -0.5818  0.2687
 8147TIP3    H145856   0.878   1.590  11.713  1.4258 -1.9931 -0.3262
 8147TIP3    H245857   0.998   1.648  11.785  0.7853 -0.6731 -0.2974
 8148TIP3   OH245858   6.688   2.875  14.533  0.1197 -0.0565  0.2405
 8148TIP3    H145859   6.689   2.947  14.469  0.6091  1.2094  1.6222
 8148TIP3    H245860   6.757   2.816  14.503  0.5150  0.6431 -0.2728
 8149TIP3   OH245861   5.367   0.756  15.678 -0.3603 -0.3679  0.0514
 8149TIP3    H145862   5.399   0.711  15.600 -1.3497  1.4472 -1.4820
 8149TIP3    H245863   5.442   0.805  15.710 -0.3517  0.1473 -0.7339
 8150TIP3   OH245864   6.071   1.462  11.820 -0.4806  0.5069  0.2986
 8150TIP3    H145865   6.049   1.370  11.801  0.7285  0.4917 -1.1489
 8150TIP3    H245866   5.986   1.504  11.831 -1.1605 -0.3246 -1.3724
 8151TIP3   OH245867   3.686   1.276   2.709 -0.2837 -0.3119  0.8515
 8151TIP3    H145868   3.651   1.333   2.777 -0.8697 -0.1213  0.3934
 8151TIP3    H245869   3.629   1.199   2.710 -1.6558  0.6276 -0.8846
 8152TIP3   OH245870   6.275   2.096  13.126  0.0716  0.1325 -0.3401
 8152TIP3    H145871   6.284   2.134  13.214  0.5014 -0.9672  0.1074
 8152TIP3    H245872   6.251   2.170  13.071 -1.5003  0.6240  0.9259
 8153TIP3   OH245873   6.738   1.251  14.990 -0.0196 -0.5208 -0.0121
 8153TIP3    H145874   6.701   1.181  14.935 -0.2154 -2.5928  2.5610
 8153TIP3    H245875   6.668   1.316  14.996 -0.2698 -0.6076 -1.5190
 8154TIP3   OH245876   0.856   2.647   2.885  0.3723  0.6373 -0.3913
 8154TIP3    H145877   0.800   2.663   2.962 -0.6456 -0.2100 -0.9266
 8154TIP3    H245878   0.930   2.598   2.919 -0.8892 -1.2145 -0.1694
 8155TIP3   OH245879   3.236   6.152  16.546 -0.1548 -0.1414 -0.4987
 8155TIP3    H145880   3.273   6.238  16.523 -0.3180 -0.1458 -0.7765
 8155TIP3    H245881   3.287   6.090  16.494  0.2362 -0.2513  0.0061
 8156TIP3   OH245882   5.055   4.302   4.163  0.0771 -0.5010 -0.4399
 8156TIP3    H145883   5.091   4.382   4.124 -0.9575 -0.3984 -1.2393
 8156TIP3    H245884   5.030   4.328   4.252 -1.2998  0.4133 -1.0500
 8157TIP3   OH245885   2.522   5.875  12.610  0.1827  0.3154 -1.1983
 8157TIP3    H145886   2.595   5.907  12.557  0.7555 -0.4824 -0.9234
 8157TIP3    H245887   2.545   5.901  12.699  0.8627 -1.1600 -0.9130
 8158TIP3   OH245888   5.048   3.192   1.137  0.7458 -0.2576 -0.3028
 8158TIP3    H145889   5.052   3.249   1.214 -0.0993  0.1714 -0.5657
 8158TIP3    H245890   5.076   3.249   1.065  0.8516 -0.4581 -0.4183
 8159TIP3   OH245891   4.218   5.911   3.955 -0.0270 -0.4747  0.9701
 8159TIP3    H145892   4.217   5.882   3.864  0.3315  2.5452 -0.1284
 8159TIP3    H245893   4.127   5.900   3.985 -0.8971  1.2445 -0.8173
 8160TIP3   OH245894   4.276   6.793  16.719  0.2579  0.1291 -0.2489
 8160TIP3    H145895   4.183   6.815  16.708  0.0276 -0.1674  0.9826
 8160TIP3    H245896   4.319   6.835  16.645 -0.7778  0.7634 -0.5143
 8161TIP3   OH245897   4.484   5.973   1.319  0.4036 -0.0963 -0.5880
 8161TIP3    H145898   4.564   6.021   1.299  1.0348 -0.5149  0.8040
 8161TIP3    H245899   4.514   5.889   1.353 -0.4927  0.7251  2.5227
 8162TIP3   OH245900   5.520   4.033  11.154 -0.0487 -0.2896 -0.6886
 8162TIP3    H145901   5.466   4.013  11.230 -0.0556 -1.6019 -1.0106
 8162TIP3    H245902   5.587   4.093  11.187  0.1235 -1.0643  0.4314
 8163TIP3   OH245903   1.294   4.505   5.683  0.2007  0.2658 -0.1694
 8163TIP3    H145904   1.198   4.505   5.687  0.1604 -1.5533 -0.3159
 8163TIP3    H245905   1.316   4.428   5.631  1.7586  0.3895  0.2527
 8164TIP3   OH245906   3.644   1.885   1.218  0.0608  0.3807 -0.3647
 8164TIP3    H145907   3.714   1.870   1.155  0.2070 -1.5978  0.1930
 8164TIP3    H245908   3.566   1.902   1.164  0.0288 -1.9518 -1.1917
 8165TIP3   OH245909   2.536   2.253   4.063 -0.4067 -0.2744  0.3648
 8165TIP3    H145910   2.524   2.158   4.073 -2.1587 -0.2223 -0.6990
 8165TIP3    H245911   2.586   2.263   3.983  1.3610 -0.3031  1.4095
 8166TIP3   OH245912   1.302   1.995  14.138  0.4339  0.3099 -0.2841
 8166TIP3    H145913   1.327   2.008  14.230 -0.8182 -0.9472  0.2691
 8166TIP3    H245914   1.380   2.022  14.089  0.9053  1.6380  1.0891
 8167TIP3   OH245915   3.845   5.792  11.771 -0.2279  0.0828  0.0666
 8167TIP3    H145916   3.910   5.749  11.716 -1.2284  0.4831 -1.4836
 8167TIP3    H245917   3.791   5.842  11.711 -0.0450  2.3435  1.6474
 8168TIP3   OH245918   3.012   1.756   0.569 -0.2821  0.5042  0.0641
 8168TIP3    H145919   3.044   1.844   0.547  1.0142  0.9861  3.2568
 8168TIP3    H245920   2.917   1.764   0.569 -0.2542  1.2969 -1.7319
 8169TIP3   OH245921   1.168   0.948   6.006 -0.2932 -0.0520 -0.1481
 8169TIP3    H145922   1.257   0.975   6.031  0.2554 -1.0132 -0.9800
 8169TIP3    H245923   1.178   0.911   5.918 -1.4468 -0.6066 -0.0635
 8170TIP3   OH245924   0.867   2.905   5.036  0.1897 -0.1973 -0.0393
 8170TIP3    H145925   0.892   2.831   5.091 -0.4054  0.3706  1.0361
 8170TIP3    H245926   0.894   2.982   5.086 -1.3117  0.3558 -0.0132
 8171TIP3   OH245927   0.185   6.047   3.601 -0.2971 -0.0422  0.6319
 8171TIP3    H145928   0.225   6.115   3.547  2.0972 -1.3587  0.5634
 8171TIP3    H245929   0.146   5.986   3.539  1.0607 -0.7256  0.3929
 8172TIP3   OH245930   0.083   1.809   3.696 -0.7618  1.2905  0.3657
 8172TIP3    H145931   0.063   1.898   3.669  0.9758  1.0258 -2.1175
 8172TIP3    H245932   0.108   1.764   3.615 -2.1026 -1.6358  1.4357
 8173TIP3   OH245933   0.336   4.590   2.111  0.6247  0.1037 -0.1394
 8173TIP3    H145934   0.416   4.567   2.064  3.1188  0.7028  3.4071
 8173TIP3    H245935   0.315   4.511   2.162 -1.6981 -0.3600 -1.6337
 8174TIP3   OH245936   5.947   0.044  11.251 -0.0285  0.3530 -0.6182
 8174TIP3    H145937   5.855   0.021  11.233  0.4954 -0.2944 -2.6855
 8174TIP3    H245938   5.943   0.090  11.335 -1.9287 -1.8915  0.6741
 8175TIP3   OH245939   2.636   6.285   2.925  0.2679  0.5471 -0.0815
 8175TIP3    H145940   2.546   6.259   2.905  0.8760 -1.3072 -0.6233
 8175TIP3    H245941   2.684   6.271   2.844  1.0090  1.8024  0.1112
 8176TIP3   OH245942   0.896   0.112  12.965 -0.1420  0.7866  0.1578
 8176TIP3    H145943   0.942   0.184  12.922  1.0755 -0.1030 -0.1018
 8176TIP3    H245944   0.924   0.034  12.917 -2.7087  0.2763 -0.6194
 8177TIP3   OH245945   6.497   0.628  12.257  0.7260 -0.1270  0.3189
 8177TIP3    H145946   6.511   0.607  12.165 -0.7171 -2.4305  0.5523
 8177TIP3    H245947   6.566   0.691  12.278  0.9904  0.5855 -2.3471
 8178TIP3   OH245948   4.004   4.038  12.993  0.2198 -0.3909 -0.1313
 8178TIP3    H145949   4.088   4.062  13.032  0.7183 -0.3247 -1.2366
 8178TIP3    H245950   4.021   4.033  12.899 -1.1315  0.1135 -0.4186
 8179TIP3   OH245951   1.696   3.850  17.007 -0.4853  0.4716 -0.0517
 8179TIP3    H145952   1.722   3.931  16.962  0.5151  0.7606  1.0005
 8179TIP3    H245953   1.692   3.784  16.938  1.3286  0.8281 -0.5315
 8180TIP3   OH245954   5.053   0.278  16.572 -0.1274  0.5047  0.4762
 8180TIP3    H145955   5.097   0.294  16.655 -0.0305 -0.4962  0.6273
 8180TIP3    H245956   4.960   0.282  16.593 -0.1399 -1.7186  1.0786
 8181TIP3   OH245957   2.484   3.294  13.625  0.8974 -0.4149  0.1933
 8181TIP3    H145958   2.567   3.264  13.589  0.4975 -1.8798  0.3977
 8181TIP3    H245959   2.433   3.320  13.548  1.6234  0.7640  0.0923
 8182TIP3   OH245960   5.564   4.603  15.938 -0.0737  0.8832 -0.3614
 8182TIP3    H145961   5.613   4.570  16.013 -2.6439  1.5262  1.7136
 8182TIP3    H245962   5.486   4.548  15.934 -0.0435  0.9145 -2.5632
 8183TIP3   OH245963   1.742   6.507   1.688  0.2985  0.7537  0.6933
 8183TIP3    H145964   1.684   6.550   1.751 -0.4707  0.8327 -0.0538
 8183TIP3    H245965   1.742   6.564   1.612 -0.1899 -0.1985 -0.0501
 8184TIP3   OH245966   0.388   1.609  11.313 -0.5176 -0.0697 -0.4120
 8184TIP3    H145967   0.333   1.588  11.388 -0.1152 -1.2015 -0.4056
 8184TIP3    H245968   0.472   1.634  11.351 -0.8880  1.3157 -0.4353
 8185TIP3   OH245969   3.290   0.081   1.707 -0.4184  0.4146  0.0489
 8185TIP3    H145970   3.329   0.009   1.757 -1.6994  0.1326  0.6896
 8185TIP3    H245971   3.365   0.133   1.677  0.5916 -1.4844 -0.9329
 8186TIP3   OH245972   5.728   5.980   4.518  0.4907 -0.6101 -0.0018
 8186TIP3    H145973   5.809   6.030   4.519  0.6164 -0.7477 -1.2995
 8186TIP3    H245974   5.705   5.974   4.425 -1.6060  0.4043  0.3908
 8187TIP3   OH245975   5.246   2.182   6.268 -0.4475  0.5128 -0.2575
 8187TIP3    H145976   5.191   2.103   6.266 -2.5175  1.8263  1.1465
 8187TIP3    H245977   5.327   2.154   6.310 -1.3404 -0.7651  0.6976
 8188TIP3   OH245978   5.502   2.092  12.205 -0.3234  0.2026  0.1737
 8188TIP3    H145979   5.594   2.096  12.179 -0.4873 -1.0894 -0.7417
 8188TIP3    H245980   5.456   2.068  12.125 -1.2654 -0.6269  0.9366
 8189TIP3   OH245981   4.998   2.352   4.458  0.4650 -0.0138  0.5711
 8189TIP3    H145982   4.902   2.352   4.455  0.4089 -2.8113 -0.4977
 8189TIP3    H245983   5.020   2.290   4.527  1.4988  0.0838  0.3464
 8190TIP3   OH245984   1.480   3.569   1.266  0.7099 -0.6021  0.4928
 8190TIP3    H145985   1.540   3.628   1.220 -0.6088  0.9074  0.6506
 8190TIP3    H245986   1.507   3.576   1.358 -0.0401  0.5258  0.6443
 8191TIP3   OH245987   1.060   4.544   0.092 -0.3190 -0.3007 -0.4664
 8191TIP3    H145988   0.966   4.557   0.103 -0.9785 -2.2128 -3.0592
 8191TIP3    H245989   1.073   4.451   0.111  0.9045 -0.2315 -0.9119
 8192TIP3   OH245990   5.549   5.277  16.439  0.8037  0.5985 -0.1114
 8192TIP3    H145991   5.460   5.266  16.471  0.5297 -0.0552 -1.0329
 8192TIP3    H245992   5.538   5.316  16.352  1.3686 -0.1497 -0.5320
 8193TIP3   OH245993   6.168   2.717  14.012  0.0566  0.0005 -0.2456
 8193TIP3    H145994   6.199   2.730  13.922 -0.0352 -2.5271 -0.7004
 8193TIP3    H245995   6.073   2.707  14.004 -0.4876  3.2340  0.6295
 8194TIP3   OH245996   4.965   2.150  12.846 -0.1719  0.1911 -0.0690
 8194TIP3    H145997   4.997   2.227  12.799 -2.2402 -0.0572 -2.0943
 8194TIP3    H245998   4.873   2.170  12.864 -0.7901 -1.8019 -0.7598
 8195TIP3   OH245999   2.117   0.531   2.030 -0.1344  0.3162  0.0923
 8195TIP3    H146000   2.074   0.614   2.050 -1.6524 -0.7037  1.2915
 8195TIP3    H246001   2.099   0.476   2.106  4.3802  0.1372  1.3364
 8196TIP3   OH246002   5.431   2.711   0.143  0.0338 -0.7206 -0.0561
 8196TIP3    H146003   5.495   2.689   0.211 -0.7043  0.3660  1.0405
 8196TIP3    H246004   5.444   2.645   0.075  1.0020 -1.6692  1.0099
 8197TIP3   OH246005   5.892   6.155  12.391  0.4720 -0.0995 -0.5349
 8197TIP3    H146006   5.901   6.241  12.433 -0.5730 -0.2693  0.0751
 8197TIP3    H246007   5.849   6.174  12.307  3.0088  0.2975 -1.8310
 8198TIP3   OH246008   3.994   3.636   4.681 -0.4384  0.8154  0.6335
 8198TIP3    H146009   3.908   3.619   4.642 -0.5816  2.5559  0.1273
 8198TIP3    H246010   4.014   3.726   4.658 -0.1348  1.6982  3.8808
 8199TIP3   OH246011   5.207   2.245  13.012 -0.4001  0.2323 -0.2093
 8199TIP3    H146012   5.169   2.176  13.067  0.4307 -0.1677 -0.1216
 8199TIP3    H246013   5.142   2.260  12.944 -0.1351 -1.4395 -0.8882
 8200TIP3   OH246014   2.278   0.707  10.482 -0.3405 -0.5955  0.3065
 8200TIP3    H146015   2.363   0.733  10.517 -0.4236  1.8273 -1.0655
 8200TIP3    H246016   2.298   0.665  10.398 -0.5028  1.0482 -0.5874
 8201TIP3   OH246017   3.590   0.812   0.819  0.1940  0.1190 -0.3206
 8201TIP3    H146018   3.606   0.900   0.852 -2.9310  0.9354 -0.6863
 8201TIP3    H246019   3.555   0.764   0.894  0.3749 -0.3227 -0.5155
 8202TIP3   OH246020   1.342   5.929  13.295 -0.2076 -0.1745  0.2662
 8202TIP3    H146021   1.250   5.950  13.281 -0.4738 -1.2255  0.4042
 8202TIP3    H246022   1.366   5.873  13.221  0.4542  0.4417 -0.0077
 8203TIP3   OH246023   4.196   5.204  12.893 -0.4814  0.2851 -0.0148
 8203TIP3    H146024   4.274   5.258  12.877 -0.0723 -0.3499 -0.1753
 8203TIP3    H246025   4.213   5.122  12.848 -1.0012 -0.0736  0.4231
 8204TIP3   OH246026   2.652   3.962  11.319  0.3521  0.8704  0.1900
 8204TIP3    H146027   2.731   3.997  11.360 -0.1036  1.8095  0.3011
 8204TIP3    H246028   2.581   3.985  11.380 -0.3102  2.1295 -1.0137
 8205TIP3   OH246029   0.516   0.484  15.728  0.2040 -0.7770  0.0454
 8205TIP3    H146030   0.485   0.445  15.810 -1.9486 -0.8844 -0.7446
 8205TIP3    H246031   0.478   0.429  15.659  2.4901 -1.0797 -1.0580
 8206TIP3   OH246032   4.670   0.758   1.711 -0.3002  0.1145 -0.1593
 8206TIP3    H146033   4.657   0.663   1.720 -3.2107  0.5429  1.2512
 8206TIP3    H246034   4.644   0.794   1.796  0.1231  2.2331 -0.8781
 8207TIP3   OH246035   6.761   5.259   2.204  0.2205 -0.0610 -0.5267
 8207TIP3    H146036   6.691   5.262   2.139  0.9903  1.2646 -1.3333
 8207TIP3    H246037   6.722   5.296   2.283 -0.0032  0.6810 -0.9756
 8208TIP3   OH246038   1.424   1.870  16.559  0.3324 -0.1307 -0.5360
 8208TIP3    H146039   1.338   1.859  16.517  0.8353  2.2738 -2.4014
 8208TIP3    H246040   1.404   1.875  16.652 -1.5016 -0.2003 -0.8817
 8209TIP3   OH246041   4.584   4.582  15.128 -0.1219 -0.7356  0.7690
 8209TIP3    H146042   4.585   4.570  15.223  1.4574  2.1853  1.2237
 8209TIP3    H246043   4.562   4.674  15.115 -2.2627 -1.4769 -1.8624
 8210TIP3   OH246044   3.260   1.797   2.515 -0.1212  0.4866  0.6835
 8210TIP3    H146045   3.355   1.807   2.525 -0.1880  0.7907  0.9961
 8210TIP3    H246046   3.245   1.703   2.528  0.1249  0.4499  0.7155
 8211TIP3   OH246047   3.011   1.588  13.558  0.1812 -0.7913 -0.3833
 8211TIP3    H146048   3.036   1.506  13.516 -0.6255 -1.3973  0.2996
 8211TIP3    H246049   3.046   1.583  13.646  1.0192  0.0603 -0.6465
 8212TIP3   OH246050   6.467   0.595   3.331 -0.1635  0.7125  0.1598
 8212TIP3    H146051   6.375   0.602   3.306 -0.7061  0.2146  1.8650
 8212TIP3    H246052   6.508   0.550   3.257 -1.3766  0.5689 -0.4582
 8213TIP3   OH246053   5.939   4.269  14.038 -0.2143  0.2696 -0.1390
 8213TIP3    H146054   5.936   4.175  14.023  0.5808  0.2281 -0.0741
 8213TIP3    H246055   6.017   4.299  13.990  1.1978  0.4438  2.1066
 8214TIP3   OH246056   3.164   3.486   2.112 -0.6050  0.3341 -0.0263
 8214TIP3    H146057   3.257   3.481   2.134 -0.4510 -0.4643 -0.8118
 8214TIP3    H246058   3.119   3.492   2.197  0.1096 -0.2439  0.4036
 8215TIP3   OH246059   0.897   0.734   3.398  0.2193  0.2419 -0.4345
 8215TIP3    H146060   0.937   0.821   3.404 -1.8552  1.3266 -1.2721
 8215TIP3    H246061   0.851   0.723   3.481 -0.8943  0.7092 -0.9675
 8216TIP3   OH246062   3.713   3.670  15.130 -0.2866 -0.0479  0.7776
 8216TIP3    H146063   3.656   3.685  15.205 -0.8161 -0.7432  0.5264
 8216TIP3    H246064   3.789   3.624  15.166 -0.7034 -0.7007  0.8462
 8217TIP3   OH246065   3.980   4.954   5.458  0.1681  0.4425 -0.0946
 8217TIP3    H146066   4.015   4.898   5.526 -0.3368  3.1288  2.5935
 8217TIP3    H246067   3.952   5.034   5.504 -2.4845  1.4813 -3.1025
 8218TIP3   OH246068   1.762   2.907   1.306  0.3245 -0.1698 -0.1474
 8218TIP3    H146069   1.703   2.842   1.343  1.5018 -0.8364  0.6253
 8218TIP3    H246070   1.845   2.861   1.295  0.9949  1.0136 -0.2627
 8219TIP3   OH246071   4.013   6.067   2.300  0.9825  0.3550  0.2188
 8219TIP3    H146072   4.039   5.986   2.255  0.4743 -0.4640  1.3249
 8219TIP3    H246073   3.967   6.118   2.233  0.0552 -0.9238 -0.1693
 8220TIP3   OH246074   1.508   1.456   3.767 -0.8122  0.3062  0.0196
 8220TIP3    H146075   1.426   1.498   3.789 -0.1500  2.3819 -1.1923
 8220TIP3    H246076   1.536   1.412   3.847 -2.1361  1.1955  0.9923
 8221TIP3   OH246077   4.351   6.408   5.151 -0.5134 -0.3872  0.0009
 8221TIP3    H146078   4.332   6.492   5.110 -1.5207  0.8972  2.8435
 8221TIP3    H246079   4.441   6.416   5.183 -0.0782 -1.0142 -0.9967
 8222TIP3   OH246080   0.086   3.124  15.075 -0.1710  0.1693 -0.4466
 8222TIP3    H146081   0.030   3.155  15.003 -0.7064 -1.4743 -0.7856
 8222TIP3    H246082   0.024   3.095  15.141  0.3221  0.5382  0.1830
 8223TIP3   OH246083   0.105   1.497   0.661 -0.2428 -0.0989  0.1947
 8223TIP3    H146084   0.122   1.486   0.567  0.3960  1.4183  0.0973
 8223TIP3    H246085   0.098   1.408   0.694  0.9118 -0.7099 -1.0632
 8224TIP3   OH246086   6.471   5.076   1.805 -0.7400  0.1731  0.1370
 8224TIP3    H146087   6.491   5.135   1.878 -0.2660 -1.8333  1.7391
 8224TIP3    H246088   6.413   5.127   1.748  1.7270  3.0844 -0.0261
 8225TIP3   OH246089   0.133   3.139  13.488  0.0824 -0.4198 -0.0299
 8225TIP3    H146090   0.200   3.179  13.544  1.0664 -0.1765 -1.3258
 8225TIP3    H246091   0.050   3.157  13.532  0.6773  1.2425  0.4815
 8226TIP3   OH246092   0.096   5.201  16.973  0.3217  0.1692  0.0466
 8226TIP3    H146093   0.134   5.259  16.907  1.9739  2.0250  2.4510
 8226TIP3    H246094   0.133   5.115  16.954  0.3233  0.5244 -1.7175
 8227TIP3   OH246095   5.660   4.260  16.406 -0.6129  0.5385  0.7993
 8227TIP3    H146096   5.679   4.329  16.343  1.2596  1.3691  2.1850
 8227TIP3    H246097   5.596   4.298  16.466 -1.5959  0.1056  0.0658
 8228TIP3   OH246098   4.234   6.450  11.994  0.4138  0.1622  0.0576
 8228TIP3    H146099   4.171   6.378  11.989  0.6603  0.0237 -2.9746
 8228TIP3    H246100   4.185   6.526  11.961  0.6360  1.0427  1.6778
 8229TIP3   OH246101   0.925   2.150   1.725 -0.3821  0.3992 -0.4744
 8229TIP3    H146102   0.907   2.135   1.633  0.2971 -0.3692 -0.4983
 8229TIP3    H246103   0.969   2.235   1.728 -1.4087  0.9529 -0.7179
 8230TIP3   OH246104   3.458   3.512  12.485 -0.4778  0.0319  0.5490
 8230TIP3    H146105   3.532   3.499  12.425  1.1854  0.4256  2.3977
 8230TIP3    H246106   3.421   3.425  12.496 -0.1186 -0.2280 -0.1884
 8231TIP3   OH246107   6.601   0.607   0.048  0.4254 -0.2498  0.5311
 8231TIP3    H146108   6.656   0.540   0.009 -0.5517 -0.1564 -1.1141
 8231TIP3    H246109   6.621   0.687  -0.001  1.1359  0.5520  2.0614
 8232TIP3   OH246110   5.338   1.104   2.201  0.2816  0.8292 -0.2726
 8232TIP3    H146111   5.348   1.198   2.185 -0.8340  0.8376 -1.0903
 8232TIP3    H246112   5.270   1.077   2.139  0.1920 -0.4108  0.3424
 8233TIP3   OH246113   3.934   1.470   4.577  0.4142 -0.1058  0.5492
 8233TIP3    H146114   3.978   1.385   4.575 -1.8347 -1.3404 -0.2128
 8233TIP3    H246115   4.003   1.534   4.557  1.7513 -1.9629 -1.1173
 8234TIP3   OH246116   5.782   0.434  13.522 -0.3315  0.3384 -0.1122
 8234TIP3    H146117   5.874   0.412  13.507 -0.7566 -1.5678 -0.2249
 8234TIP3    H246118   5.734   0.380  13.460 -1.6492 -0.8300  1.8189
 8235TIP3   OH246119   2.788   6.812   3.703  0.1277 -0.4650 -0.2529
 8235TIP3    H146120   2.730   6.885   3.728  0.2306 -0.7088  0.7476
 8235TIP3    H246121   2.816   6.834   3.614 -0.4836  0.3092 -0.2738
 8236TIP3   OH246122   1.689   4.489   2.975 -0.3439  0.0358 -0.3052
 8236TIP3    H146123   1.760   4.435   3.009  0.8608  1.7933  0.0803
 8236TIP3    H246124   1.618   4.477   3.037 -0.4153 -1.6946 -0.6558
 8237TIP3   OH246125   3.837   5.578  12.300 -0.0041 -0.0357  0.4445
 8237TIP3    H146126   3.912   5.521  12.282  0.1551  0.1835  0.4110
 8237TIP3    H246127   3.769   5.518  12.332 -0.2822 -0.4269 -0.8236
 8238TIP3   OH246128   0.697   3.042  11.250  0.4784 -0.2097  0.2814
 8238TIP3    H146129   0.677   3.133  11.231  0.9312 -0.2826 -0.5940
 8238TIP3    H246130   0.673   3.030  11.342 -1.1776  0.3424 -0.0415
 8239TIP3   OH246131   0.695   6.319  11.163 -0.6247  0.4434 -0.0804
 8239TIP3    H146132   0.772   6.288  11.115 -1.1636 -0.7087 -0.2136
 8239TIP3    H246133   0.626   6.322  11.098 -0.6832  1.6408  0.0020
 8240TIP3   OH246134   6.445   1.416  15.082  0.0758 -0.5247  0.1871
 8240TIP3    H146135   6.433   1.489  15.021  2.5798 -0.6017 -0.4826
 8240TIP3    H246136   6.442   1.456  15.169  0.2840  0.2031 -0.1371
 8241TIP3   OH246137   6.041   4.856   4.519  0.5232 -0.2563  0.0665
 8241TIP3    H146138   6.106   4.915   4.555  0.2860 -0.8362  1.5211
 8241TIP3    H246139   5.961   4.876   4.568 -0.1338 -0.2489 -0.9860
 8242TIP3   OH246140   6.751   3.988  10.929 -0.2956 -0.2353 -0.0468
 8242TIP3    H146141   6.805   4.042  10.872 -1.0945 -0.0604 -0.6563
 8242TIP3    H246142   6.811   3.922  10.964  0.5089  0.5349  0.0541
 8243TIP3   OH246143   1.863   2.496   3.002  0.2284 -0.6870  0.1141
 8243TIP3    H146144   1.901   2.429   2.945  0.6795 -0.7772  0.5062
 8243TIP3    H246145   1.915   2.575   2.984 -0.6837 -0.2630 -0.7836
 8244TIP3   OH246146   2.724   4.126   0.664 -0.0296 -0.0500 -0.2568
 8244TIP3    H146147   2.794   4.070   0.696  0.8873  1.6180  0.8001
 8244TIP3    H246148   2.761   4.170   0.588  0.0144  0.6904  0.1866
 8245TIP3   OH246149   5.243   4.381  10.447  0.4417  0.5419 -0.5257
 8245TIP3    H146150   5.200   4.299  10.422  0.6871  0.6060 -1.2003
 8245TIP3    H246151   5.183   4.449  10.416  0.2314  0.6222  0.0478
 8246TIP3   OH246152   6.465   5.127  16.205  0.5777  0.1812  0.1174
 8246TIP3    H146153   6.481   5.041  16.167  0.2501  0.0855  0.1916
 8246TIP3    H246154   6.528   5.185  16.162  0.9272 -0.1330  0.2060
 8247TIP3   OH246155   3.475   6.187  12.934  0.3080 -0.4621 -0.0238
 8247TIP3    H146156   3.552   6.240  12.954 -0.5920  0.1187  2.1410
 8247TIP3    H246157   3.458   6.205  12.841  0.2238  2.8236  0.5116
 8248TIP3   OH246158   4.281   2.488  12.162  0.3089  0.4293  0.0340
 8248TIP3    H146159   4.207   2.547  12.176  0.5128  0.8903 -0.7581
 8248TIP3    H246160   4.257   2.407  12.208  0.0543  1.1451  1.2038
 8249TIP3   OH246161   2.513   4.154  15.144 -0.0103  0.5375  0.2852
 8249TIP3    H146162   2.480   4.206  15.071  3.4526 -0.7086 -2.4857
 8249TIP3    H246163   2.574   4.213  15.190  0.7909  0.1979 -0.3179
 8250TIP3   OH246164   4.895   4.217   4.410 -0.3280  0.2363  0.4858
 8250TIP3    H146165   4.915   4.307   4.437  0.6513 -0.5452  2.6735
 8250TIP3    H246166   4.800   4.212   4.408 -0.4671  1.9688 -2.3096
 8251TIP3   OH246167   6.633   2.089  11.709 -0.6264 -0.2260  0.1582
 8251TIP3    H146168   6.625   2.180  11.739  0.3326 -0.2396  0.4738
 8251TIP3    H246169   6.605   2.036  11.784  0.9041 -0.2354  0.7536
 8252TIP3   OH246170   6.401   2.006  11.960 -0.0976 -0.3750  0.7569
 8252TIP3    H146171   6.346   1.933  11.989 -0.4288 -0.5065 -0.1595
 8252TIP3    H246172   6.414   1.990  11.866 -1.6848  1.6745  0.1043
 8253TIP3   OH246173   2.233   2.756  15.928  0.1957 -0.1108  1.2102
 8253TIP3    H146174   2.268   2.670  15.902 -1.6249 -1.0319  1.6828
 8253TIP3    H246175   2.308   2.815  15.919  1.2309 -1.5266 -0.1567
 8254TIP3   OH246176   4.740   2.145  14.708  0.0245 -0.1965  0.2262
 8254TIP3    H146177   4.721   2.051  14.705 -0.1504 -0.1440 -0.8945
 8254TIP3    H246178   4.828   2.151  14.744  0.4807 -0.8723 -0.7410
 8255TIP3   OH246179   5.551   4.340   4.203  0.2049 -0.0558  0.4527
 8255TIP3    H146180   5.580   4.272   4.264  0.0986 -2.5601 -2.0747
 8255TIP3    H246181   5.465   4.312   4.174 -0.1579  1.5717 -0.1780
 8256TIP3   OH246182   1.570   2.999  12.142  1.0866 -0.1151  0.0176
 8256TIP3    H146183   1.601   3.085  12.115 -0.5018  0.0926 -1.2056
 8256TIP3    H246184   1.638   2.939  12.110  1.0953  0.4774 -1.1357
 8257TIP3   OH246185   0.104   3.845  15.238  0.1009  0.1283 -0.0030
 8257TIP3    H146186   0.146   3.765  15.206  2.1873  0.9538  0.4779
 8257TIP3    H246187   0.055   3.878  15.163 -0.1113 -1.1389 -0.4622
 8258TIP3   OH246188   5.942   6.737   1.795  0.0196 -0.1077 -0.1772
 8258TIP3    H146189   5.939   6.776   1.707 -1.5390  1.0863  0.3527
 8258TIP3    H246190   5.906   6.649   1.783  0.5676 -0.2474 -0.8621
 8259TIP3   OH246191   4.916   0.602   4.155  0.5698 -0.1425  0.0452
 8259TIP3    H146192   4.872   0.623   4.237 -0.0602 -0.7018 -0.1369
 8259TIP3    H246193   4.854   0.546   4.108  0.8600  0.2948 -0.8773
 8260TIP3   OH246194   1.835   4.608   3.226 -0.1175 -0.4187  0.1782
 8260TIP3    H146195   1.756   4.654   3.195  0.2872  0.8816  1.0077
 8260TIP3    H246196   1.812   4.515   3.219 -1.5610 -0.0798 -0.0162
 8261TIP3   OH246197   4.075   6.798  15.793  0.2604  0.4822 -0.1372
 8261TIP3    H146198   4.121   6.802  15.709 -1.7510 -0.7944 -1.4078
 8261TIP3    H246199   4.020   6.720  15.785  0.4185  0.0119  2.6303
 8262TIP3   OH246200   0.848   3.821  15.837 -0.3424  0.3315 -0.0131
 8262TIP3    H146201   0.773   3.762  15.840  1.1748 -1.7967 -1.6818
 8262TIP3    H246202   0.812   3.903  15.803 -1.8047 -0.8263 -1.3762
 8263TIP3   OH246203   5.213   1.371   5.522  0.4709  0.1032  0.2077
 8263TIP3    H146204   5.205   1.309   5.594 -2.4878 -1.0395 -0.9636
 8263TIP3    H246205   5.207   1.457   5.564 -1.8186 -0.5372  1.3683
 8264TIP3   OH246206   1.163   5.516   3.868 -0.7710  0.2328 -0.1277
 8264TIP3    H146207   1.108   5.567   3.927 -0.0624  2.3276 -1.1348
 8264TIP3    H246208   1.108   5.500   3.791 -0.8646 -0.1660  0.0222
 8265TIP3   OH246209   5.632   1.506   2.773 -0.2629  0.7646 -0.1340
 8265TIP3    H146210   5.669   1.456   2.700  1.4977  1.0671  0.5061
 8265TIP3    H246211   5.707   1.552   2.811 -0.8986 -0.3440  2.6498
 8266TIP3   OH246212   1.820   0.786   3.540 -0.0253  0.4781 -0.2422
 8266TIP3    H146213   1.782   0.837   3.469 -0.7241 -1.2783 -1.1870
 8266TIP3    H246214   1.899   0.747   3.502  1.1269  1.6565  0.8029
 8267TIP3   OH246215   6.556   1.382  11.761 -0.2598  0.0313  0.0913
 8267TIP3    H146216   6.526   1.450  11.702  0.4421 -1.3643 -2.0057
 8267TIP3    H246217   6.487   1.315  11.758  0.2507 -0.5015  0.0472
 8268TIP3   OH246218   2.440   5.385  16.398  0.2597  0.0758  0.1931
 8268TIP3    H146219   2.345   5.377  16.398  0.2344  0.3604 -0.0828
 8268TIP3    H246220   2.456   5.479  16.407  0.4886  0.2138 -1.3264
 8269TIP3   OH246221   2.791   2.534  15.435 -0.0950  0.3568 -0.5205
 8269TIP3    H146222   2.723   2.593  15.468 -0.8113  1.6343 -3.8704
 8269TIP3    H246223   2.862   2.591  15.408  1.2881 -0.7808  0.5767
 8270TIP3   OH246224   3.467   4.439  16.453  0.1861 -0.1034 -0.0553
 8270TIP3    H146225   3.456   4.530  16.482  1.1882  0.2338 -0.6438
 8270TIP3    H246226   3.391   4.423  16.398 -0.1895  0.2573  0.3464
 8271TIP3   OH246227   3.030   3.797  15.800  0.0169 -0.2693 -0.2273
 8271TIP3    H146228   3.057   3.716  15.756 -0.0004 -0.0960 -0.5646
 8271TIP3    H246229   3.084   3.802  15.878  0.9283  0.0568 -0.8709
 8272TIP3   OH246230   0.472   5.988  16.670 -0.3437  0.2093 -0.2097
 8272TIP3    H146231   0.568   5.982  16.663 -0.5034 -1.4661 -1.8911
 8272TIP3    H246232   0.453   6.081  16.661  1.0667  0.3986 -1.8873
 8273TIP3   OH246233   2.228   5.765  16.991 -0.6048  0.2584  0.6582
 8273TIP3    H146234   2.178   5.740  16.913 -0.9126  0.4677  0.7847
 8273TIP3    H246235   2.161   5.797  17.052 -0.1853  1.9581  0.2781
 8274TIP3   OH246236   5.243   6.733  10.736 -0.4107  0.0812  0.3680
 8274TIP3    H146237   5.308   6.748  10.804 -1.5680 -1.3890  1.8666
 8274TIP3    H246238   5.290   6.683  10.669  0.2103 -0.2158  1.0151
 8275TIP3   OH246239   6.758   5.378   0.231  0.3890  0.3206  0.4713
 8275TIP3    H146240   6.817   5.367   0.306 -0.9681 -0.0730  1.4980
 8275TIP3    H246241   6.811   5.426   0.167  2.2522 -1.1272  0.8404
 8276TIP3   OH246242   5.211   5.389   4.130  0.1405 -0.2358  0.6864
 8276TIP3    H146243   5.256   5.462   4.087  0.1929  0.3064  1.6348
 8276TIP3    H246244   5.189   5.329   4.059  1.4477 -0.0186  0.0772
 8277TIP3   OH246245   1.186   4.876   5.137  0.2129 -0.2184 -0.6333
 8277TIP3    H146246   1.254   4.839   5.081 -0.2586 -3.1462  0.5854
 8277TIP3    H246247   1.231   4.900   5.218  0.2395  0.4670 -0.8426
 8278TIP3   OH246248   1.154   0.260  15.873  0.1344 -0.5998  0.6759
 8278TIP3    H146249   1.231   0.227  15.920 -0.3515 -0.7393  1.3743
 8278TIP3    H246250   1.176   0.351  15.854  1.4681 -1.2456 -1.2344
 8279TIP3   OH246251   0.421   3.515  12.160  0.2301 -0.4170 -0.0522
 8279TIP3    H146252   0.364   3.496  12.085 -0.5307  1.8392 -0.1338
 8279TIP3    H246253   0.476   3.588  12.130 -0.7799  1.2075  1.8350
 8280TIP3   OH246254   1.761   0.179   5.623 -0.2817  0.0141 -0.0923
 8280TIP3    H146255   1.823   0.122   5.578  1.7836  1.9032  0.1711
 8280TIP3    H246256   1.803   0.266   5.621 -2.1554  1.0388  1.6041
 8281TIP3   OH246257   0.348   2.134   3.055  0.1247  0.1370  0.2565
 8281TIP3    H146258   0.329   2.177   3.139  2.2269 -0.6165  1.2078
 8281TIP3    H246259   0.385   2.204   3.000  0.2553  0.3067  0.5555
 8282TIP3   OH246260   6.689   2.886  16.014 -0.2478 -0.2830  0.6530
 8282TIP3    H146261   6.752   2.933  16.068  1.7235 -1.8715 -0.1386
 8282TIP3    H246262   6.648   2.824  16.074  1.9386 -2.0472  0.4283
 8283TIP3   OH246263   3.885   6.333  16.769  0.4006  0.0712  0.3091
 8283TIP3    H146264   3.968   6.286  16.777 -0.0356 -0.6054  1.0661
 8283TIP3    H246265   3.856   6.317  16.679  0.9126  0.0113  0.1556
 8284TIP3   OH246266   5.027   6.451  13.784 -0.2657 -0.0501  0.2563
 8284TIP3    H146267   5.118   6.420  13.788 -0.1390 -0.1405 -2.0422
 8284TIP3    H246268   5.019   6.511  13.858  1.4101 -0.6645  0.9927
 8285TIP3   OH246269   0.266   2.066   3.920 -0.3889  0.1538 -0.4488
 8285TIP3    H146270   0.285   1.981   3.961 -1.4984  0.2678  0.3342
 8285TIP3    H246271   0.197   2.103   3.973 -0.1428  1.4227 -0.9871
 8286TIP3   OH246272   1.684   4.326   2.742 -0.4631 -0.7693 -0.4528
 8286TIP3    H146273   1.654   4.397   2.799  1.6303 -0.2994  0.1154
 8286TIP3    H246274   1.687   4.249   2.799  0.1896 -0.6335 -0.3032
 8287TIP3   OH246275   4.609   2.432  15.546  0.4133 -0.1225  0.5643
 8287TIP3    H146276   4.693   2.400  15.513  0.5183  0.4244  0.2831
 8287TIP3    H246277   4.544   2.390  15.490  0.6443  1.8640 -1.3334
 8288TIP3   OH246278   3.261   2.941  14.723  0.1732 -0.5753  0.2547
 8288TIP3    H146279   3.238   3.032  14.704 -0.6387 -0.9624 -0.6870
 8288TIP3    H246280   3.272   2.900  14.637  3.1374 -0.7571  0.6323
 8289TIP3   OH246281   5.911   0.540  11.604 -0.0629 -0.5164  0.3270
 8289TIP3    H146282   5.890   0.627  11.638  1.5194  0.8005 -1.8136
 8289TIP3    H246283   5.840   0.520  11.543  0.0218 -0.3278  0.1661
 8290TIP3   OH246284   0.674   5.377  15.417 -0.3464  0.0118 -0.0191
 8290TIP3    H146285   0.733   5.407  15.347 -0.3529  1.6882  0.6494
 8290TIP3    H246286   0.685   5.282  15.418  0.9466  0.1128 -1.1482
 8291TIP3   OH246287   2.664   4.515  14.907  0.3536  0.5747 -0.6717
 8291TIP3    H146288   2.579   4.471  14.907  0.8574 -0.4466 -0.4685
 8291TIP3    H246289   2.699   4.500  14.995  1.2750 -0.1297 -1.1300
 8292TIP3   OH246290   3.664   4.149  15.666  0.3234 -0.3214 -0.1493
 8292TIP3    H146291   3.716   4.198  15.603 -1.0149  0.4212 -0.7318
 8292TIP3    H246292   3.575   4.152  15.631 -0.7513  1.2988  2.4311
 8293TIP3   OH246293   6.273   3.558  16.048 -0.0226 -0.0859  0.7713
 8293TIP3    H146294   6.264   3.651  16.027 -0.4126 -0.3197 -0.1472
 8293TIP3    H246295   6.184   3.529  16.067 -0.1260 -0.6052 -0.4428
 8294TIP3   OH246296   4.892   6.765   3.646 -0.7449 -0.0161 -0.0994
 8294TIP3    H146297   4.913   6.691   3.702 -0.1590 -1.1190 -1.6817
 8294TIP3    H246298   4.960   6.830   3.663 -0.1721 -0.6273 -0.0452
 8295TIP3   OH246299   4.444   6.702   5.220  0.1227 -0.3359  0.7970
 8295TIP3    H146300   4.389   6.698   5.142  1.7270 -2.4479 -0.3215
 8295TIP3    H246301   4.386   6.735   5.288 -1.7488  0.1368 -0.9203
 8296TIP3   OH246302   2.962   6.208  12.204  0.7242  0.4112  0.2294
 8296TIP3    H146303   3.000   6.253  12.279  0.3903 -0.9115  1.2303
 8296TIP3    H246304   2.902   6.273  12.165  0.8172  1.0750  1.1589
 8297TIP3   OH246305   0.259   2.934   0.138 -0.2100  0.9059  0.1040
 8297TIP3    H146306   0.213   3.008   0.099 -0.5902  0.2911 -0.6444
 8297TIP3    H246307   0.263   2.954   0.231 -0.1416  1.9528 -0.1143
 8298TIP3   OH246308   3.914   3.498   3.278  0.3734 -0.2008  0.4419
 8298TIP3    H146309   3.857   3.566   3.313  1.7769  0.0706  2.3908
 8298TIP3    H246310   4.003   3.532   3.289  0.9998 -0.6795 -2.3425
 8299TIP3   OH246311   5.187   1.428   1.775 -0.5128  0.4768  0.1663
 8299TIP3    H146312   5.130   1.458   1.846 -0.4668  1.1623 -0.0792
 8299TIP3    H246313   5.128   1.417   1.700 -0.2658  1.6527 -0.2211
 8300TIP3   OH246314   0.755   5.078   3.446  0.2481  0.0620  0.1660
 8300TIP3    H146315   0.793   5.069   3.534 -2.1259  0.7167  1.3667
 8300TIP3    H246316   0.726   4.989   3.424 -0.4878  0.1495  0.7375
 8301TIP3   OH246317   2.148   4.125  12.988  0.3769  0.4835  0.1603
 8301TIP3    H146318   2.057   4.153  12.999 -0.2152 -1.3821  0.4552
 8301TIP3    H246319   2.187   4.134  13.075  0.5954  1.6287 -0.0465
 8302TIP3   OH246320   0.095   3.878  16.573  0.8925  0.2117  0.4510
 8302TIP3    H146321   0.125   3.901  16.662  0.9599  0.4116  0.3771
 8302TIP3    H246322   0.136   3.794  16.555  1.1482  0.3282  0.4802
 8303TIP3   OH246323   0.566   3.161   0.923 -0.5162  0.1302  0.1071
 8303TIP3    H146324   0.472   3.171   0.940 -0.3988 -1.1089  1.6752
 8303TIP3    H246325   0.606   3.238   0.964 -0.5963 -0.9104  2.2553
 8304TIP3   OH246326   5.068   0.110   0.726 -0.7718 -0.4280 -0.4297
 8304TIP3    H146327   5.152   0.140   0.760 -0.7679 -1.5866  0.6702
 8304TIP3    H246328   5.030   0.187   0.684 -0.6241  1.0547  1.9639
 8305TIP3   OH246329   5.256   1.792  10.801 -0.5313  0.1642  0.2083
 8305TIP3    H146330   5.208   1.713  10.778  0.2000 -0.5834  1.1861
 8305TIP3    H246331   5.279   1.781  10.893  1.6403  0.4060 -0.2523
 8306TIP3   OH246332   5.345   6.416   0.199 -0.3041  0.0034 -0.5107
 8306TIP3    H146333   5.341   6.420   0.103  2.3061  0.6610 -0.6822
 8306TIP3    H246334   5.340   6.507   0.227 -2.2938 -0.2589  0.1243
 8307TIP3   OH246335   1.612   3.728  12.497  0.0638 -0.5231 -0.1324
 8307TIP3    H146336   1.565   3.645  12.485  0.8671 -0.9401 -0.4424
 8307TIP3    H246337   1.543   3.794  12.499 -0.7238 -1.3139  1.4510
 8308TIP3   OH246338   5.382   1.671  16.734  0.1510 -0.1719 -0.4841
 8308TIP3    H146339   5.296   1.710  16.753  0.3429  0.7128 -1.3556
 8308TIP3    H246340   5.409   1.631  16.816 -1.9177 -2.1150 -0.6442
 8309TIP3   OH246341   4.115   4.936   3.448  0.0133 -0.3522 -0.0130
 8309TIP3    H146342   4.108   5.028   3.475 -0.8924  0.3112 -2.2976
 8309TIP3    H246343   4.026   4.903   3.451 -0.0385 -0.4258 -1.4270
 8310TIP3   OH246344   1.552   5.218  14.575 -0.4524  0.1511 -0.2393
 8310TIP3    H146345   1.493   5.283  14.536  0.5201  0.4523 -1.2475
 8310TIP3    H246346   1.560   5.150  14.509  1.3114  0.7247 -0.6576
 8311TIP3   OH246347   4.088   4.408   2.982  0.6903 -0.3315  0.0327
 8311TIP3    H146348   4.154   4.419   2.913 -0.5529 -1.2674 -1.3723
 8311TIP3    H246349   4.071   4.497   3.013  0.0536  0.3465 -2.0948
 8312TIP3   OH246350   3.579   4.767  15.557  0.4102 -1.0341 -0.9956
 8312TIP3    H146351   3.650   4.729  15.609  0.9384  0.2926 -0.7008
 8312TIP3    H246352   3.602   4.746  15.467  1.1131 -0.7542 -0.8902
 8313TIP3   OH246353   3.481   2.985  15.476 -0.2242 -0.2283 -0.3638
 8313TIP3    H146354   3.389   2.966  15.454  0.0720 -2.7660  0.2066
 8313TIP3    H246355   3.525   2.901  15.465  2.0878  0.9672 -0.7278
 8314TIP3   OH246356   6.578   4.416   1.345 -0.3295 -0.0116 -0.2938
 8314TIP3    H146357   6.656   4.363   1.330  0.8944  1.9712 -1.3370
 8314TIP3    H246358   6.574   4.427   1.440  0.7452 -0.0161 -0.2417
 8315TIP3   OH246359   3.224   6.432   4.438  0.0048  0.2577 -0.6018
 8315TIP3    H146360   3.295   6.467   4.491 -1.3200  0.6054  1.0359
 8315TIP3    H246361   3.263   6.416   4.352  1.9633  0.6859  0.1669
 8316TIP3   OH246362   3.458   1.284  16.659 -0.6463 -0.0222 -0.0424
 8316TIP3    H146363   3.553   1.274  16.652 -0.8223 -1.5199 -1.0469
 8316TIP3    H246364   3.441   1.375  16.634  0.4206 -0.1635 -1.4420
 8317TIP3   OH246365   4.540   3.228   2.489 -0.7316 -0.1110 -0.1486
 8317TIP3    H146366   4.521   3.139   2.460 -2.2369  0.1169  0.0588
 8317TIP3    H246367   4.550   3.278   2.407  0.6547 -0.5491 -0.2707
 8318TIP3   OH246368   4.899   4.442   3.423 -0.3234  0.5799 -0.1689
 8318TIP3    H146369   4.933   4.525   3.456 -2.0981  1.8178 -1.2303
 8318TIP3    H246370   4.869   4.395   3.501 -1.0557  1.8097  0.3233
 8319TIP3   OH246371   3.048   6.391   1.380  0.6085  0.5786 -0.4474
 8319TIP3    H146372   3.013   6.445   1.450 -0.2061  1.0976 -1.2277
 8319TIP3    H246373   3.085   6.314   1.424 -1.7986 -0.1595  0.3969
 8320TIP3   OH246374   1.570   2.366   2.354  0.0343  0.0039  0.1251
 8320TIP3    H146375   1.589   2.333   2.442 -0.4417  0.2480  0.3226
 8320TIP3    H246376   1.586   2.461   2.361  0.6013 -0.0595 -0.2205
 8321TIP3   OH246377   0.689   0.120   4.265  0.0586  0.1530  0.4960
 8321TIP3    H146378   0.767   0.162   4.227  0.3555 -0.2029  0.7041
 8321TIP3    H246379   0.623   0.189   4.267  0.8613  0.9091  1.8363
 8322TIP3   OH246380   0.119   2.513   5.012  0.1011 -0.6509  0.4052
 8322TIP3    H146381   0.190   2.464   5.053 -1.1400 -2.2182  0.7691
 8322TIP3    H246382   0.044   2.454   5.015 -0.5181 -0.1347 -2.5556
 8323TIP3   OH246383   1.966   4.940   4.638 -0.3410  0.1650  0.1574
 8323TIP3    H146384   1.875   4.908   4.640 -0.5363  0.2864 -2.5525
 8323TIP3    H246385   1.970   4.993   4.558  1.9645  0.7297  0.5950
 8324TIP3   OH246386   0.238   5.587   0.472  0.5112 -0.5584 -0.1223
 8324TIP3    H146387   0.160   5.628   0.434  1.5425 -0.3894 -2.2101
 8324TIP3    H246388   0.224   5.493   0.457 -0.1536 -0.6975  1.2761
 8325TIP3   OH246389   2.792   6.142  14.933  0.0501 -0.3790 -0.1713
 8325TIP3    H146390   2.699   6.143  14.910 -0.3203 -0.1711  1.2414
 8325TIP3    H246391   2.829   6.072  14.880 -1.1084 -1.0841 -0.0841
 8326TIP3   OH246392   0.643   6.292  15.195 -0.6707 -0.2451 -0.2306
 8326TIP3    H146393   0.547   6.286  15.196 -0.7334  0.4882 -0.6676
 8326TIP3    H246394   0.662   6.337  15.112  0.0939 -1.0470 -0.4901
 8327TIP3   OH246395   6.307   4.234  16.094  0.0165  0.2701  0.0761
 8327TIP3    H146396   6.301   4.148  16.136  0.0797  0.3518  0.2547
 8327TIP3    H246397   6.401   4.250  16.087  0.0173  0.8589  1.1588
 8328TIP3   OH246398   0.308   0.242  12.728 -0.2797 -1.1523 -0.3877
 8328TIP3    H146399   0.338   0.178  12.792  2.6402  0.3459 -0.1009
 8328TIP3    H246400   0.266   0.190  12.660 -3.0542 -2.8534  2.3406
 8329TIP3   OH246401   0.205   6.763  13.093  0.7600 -0.4038 -0.3267
 8329TIP3    H146402   0.168   6.809  13.168  0.5822  0.4077 -0.8941
 8329TIP3    H246403   0.259   6.695  13.131 -0.6288 -1.0794  0.5342
 8330TIP3   OH246404   3.115   1.995   3.142 -0.4415 -0.5131 -0.3026
 8330TIP3    H146405   3.181   1.940   3.099  0.2451 -0.0375  0.1192
 8330TIP3    H246406   3.043   1.936   3.161  0.8591 -1.6288  1.4447
 8331TIP3   OH246407   5.186   3.326  16.080  0.5981 -0.0371  0.1367
 8331TIP3    H146408   5.212   3.322  15.988  2.2419 -0.1500  0.5723
 8331TIP3    H246409   5.191   3.236  16.111  0.3062  0.0333  0.3976
 8332TIP3   OH246410   6.471   2.004  15.446 -0.0748 -0.4191 -0.0840
 8332TIP3    H146411   6.383   1.994  15.408 -1.8162  1.8517  2.8046
 8332TIP3    H246412   6.459   1.983  15.539  2.3938  0.1641  0.4357
 8333TIP3   OH246413   4.473   3.488  14.365  0.2298 -0.6597 -0.2126
 8333TIP3    H146414   4.543   3.517  14.424  0.5680 -1.5973 -0.1307
 8333TIP3    H246415   4.393   3.498  14.416  0.4230 -0.5737  0.0780
 8334TIP3   OH246416   4.532   5.761   3.894  0.1120 -0.4018 -0.0753
 8334TIP3    H146417   4.487   5.687   3.935  0.2853  0.1114  1.0760
 8334TIP3    H246418   4.468   5.832   3.896  0.8373  0.2606  1.3480
 8335TIP3   OH246419   6.519   6.404   2.959  0.1814  0.2032 -0.2268
 8335TIP3    H146420   6.498   6.424   3.050  1.0648  0.2787 -0.0310
 8335TIP3    H246421   6.492   6.481   2.911  0.4766  0.5068  0.0864
 8336TIP3   OH246422   1.127   4.594   4.799  1.0568 -0.0233  0.0187
 8336TIP3    H146423   1.222   4.595   4.806  1.0833 -2.8437  1.6450
 8336TIP3    H246424   1.097   4.658   4.863  1.8412 -0.4330  0.8055
 8337TIP3   OH246425   3.844   1.289  13.782  0.1674  0.1830  0.1686
 8337TIP3    H146426   3.795   1.213  13.812  0.7896 -0.5152 -0.5079
 8337TIP3    H246427   3.777   1.353  13.758 -0.3758 -0.2573  0.4860
 8338TIP3   OH246428   4.359   0.059   3.134  0.1687  0.6611 -0.1943
 8338TIP3    H146429   4.279   0.040   3.085 -1.0948 -1.4916  2.4408
 8338TIP3    H246430   4.422  -0.007   3.104 -0.5325 -0.5178  0.8615
 8339TIP3   OH246431   2.841   3.971  11.552  0.1604 -0.0000  0.4117
 8339TIP3    H146432   2.801   3.951  11.636  3.5086  0.3824  2.2932
 8339TIP3    H246433   2.846   4.067  11.550  0.4003 -0.0195 -0.0505
 8340TIP3   OH246434   3.936   5.954  15.851 -0.2993  0.0326  0.3181
 8340TIP3    H146435   3.853   5.999  15.833  0.0760  0.2951 -0.8707
 8340TIP3    H246436   3.992   5.977  15.776  0.9240  0.0496  1.2134
 8341TIP3   OH246437   4.099   0.051  11.064 -0.1289 -0.1603  0.2505
 8341TIP3    H146438   4.067   0.125  11.013 -0.9047 -1.3146 -1.0170
 8341TIP3    H246439   4.190   0.074  11.086 -0.5684  1.4308  0.4879
 8342TIP3   OH246440   1.153   5.955   1.101  0.0147  0.4335 -0.7763
 8342TIP3    H146441   1.228   5.977   1.155  1.6648 -0.1161 -2.7223
 8342TIP3    H246442   1.082   6.009   1.136  1.3010  1.0541  1.0554
 8343TIP3   OH246443   0.277   0.289   1.597 -0.3041 -0.3300  0.5137
 8343TIP3    H146444   0.196   0.241   1.617 -1.0855  0.8231  0.2282
 8343TIP3    H246445   0.258   0.379   1.623  0.9275 -0.0548  0.5103
 8344TIP3   OH246446   5.753   4.720  15.483 -0.5200  0.0984  0.4505
 8344TIP3    H146447   5.670   4.732  15.529 -0.6964 -0.7422  0.3779
 8344TIP3    H246448   5.732   4.736  15.391 -0.8608 -1.1320  0.2919
 8345TIP3   OH246449   5.294   3.936   0.441  0.1845  0.3605 -0.0104
 8345TIP3    H146450   5.389   3.935   0.456  0.3190  0.9059 -0.7652
 8345TIP3    H246451   5.279   4.013   0.387 -0.8654  1.0030  1.1294
 8346TIP3   OH246452   5.508   5.963  15.381  0.3804 -0.5110  0.4047
 8346TIP3    H146453   5.537   5.925  15.298 -1.5866 -0.2314 -0.4567
 8346TIP3    H246454   5.522   5.894  15.446 -0.1545 -1.5612 -0.5694
 8347TIP3   OH246455   5.235   1.478   0.374  0.0379 -0.1289 -0.3127
 8347TIP3    H146456   5.255   1.492   0.466 -0.8542  0.5714 -0.2251
 8347TIP3    H246457   5.320   1.456   0.335  1.1662  3.1482 -0.0285
 8348TIP3   OH246458   6.420   3.122   5.229 -0.5044  0.5873  0.4714
 8348TIP3    H146459   6.507   3.135   5.266 -1.6314  1.9179  2.8600
 8348TIP3    H246460   6.393   3.036   5.260 -0.4696  0.6345  0.6324
 8349TIP3   OH246461   4.765   2.685   0.626 -0.7772 -1.1976 -0.0793
 8349TIP3    H146462   4.855   2.674   0.658 -0.3801  0.6467 -0.3944
 8349TIP3    H246463   4.743   2.601   0.587  0.6503 -1.8359  0.4024
 8350TIP3   OH246464   1.118   5.635   5.814 -0.5248 -0.0363  0.2878
 8350TIP3    H146465   1.097   5.607   5.903  1.3409  0.5859  0.9891
 8350TIP3    H246466   1.127   5.730   5.820 -1.3543  0.1357 -0.8142
 8351TIP3   OH246467   0.632   6.512   1.214  0.3683 -0.2553 -0.3392
 8351TIP3    H146468   0.563   6.469   1.264  2.2021 -1.8077  1.0449
 8351TIP3    H246469   0.636   6.463   1.132 -0.2718 -0.0596 -0.4878
 8352TIP3   OH246470   2.309   6.811  10.701 -0.1517  0.0041  0.4810
 8352TIP3    H146471   2.356   6.869  10.760  1.8115 -0.7375 -0.2611
 8352TIP3    H246472   2.377   6.773  10.645 -1.7264 -0.6447 -1.1043
 8353TIP3   OH246473   3.042   3.148  11.763 -0.5622 -0.2100 -0.0566
 8353TIP3    H146474   3.013   3.072  11.713 -0.2570 -0.0811 -0.4311
 8353TIP3    H246475   2.996   3.222  11.723 -0.8635 -0.1906  0.3098
 8354TIP3   OH246476   6.715   5.217   2.629 -0.0328 -0.3085 -0.1304
 8354TIP3    H146477   6.718   5.145   2.565  0.8935  0.2240 -0.7075
 8354TIP3    H246478   6.784   5.277   2.600 -0.3776  0.5059  0.7123
 8355TIP3   OH246479   0.378   5.944   6.181  0.1197 -0.3471  0.2108
 8355TIP3    H146480   0.402   6.027   6.222 -0.4510  0.1991 -0.5357
 8355TIP3    H246481   0.284   5.936   6.197  0.0165 -0.4408 -0.4476
 8356TIP3   OH246482   0.197   5.678   2.533 -0.0476 -0.0309 -0.3419
 8356TIP3    H146483   0.187   5.673   2.628 -1.4922 -0.6983 -0.5003
 8356TIP3    H246484   0.171   5.767   2.511 -0.4865 -0.1159 -0.1837
 8357TIP3   OH246485   2.085   6.627  11.914  0.1598  0.2144 -0.1897
 8357TIP3    H146486   2.088   6.549  11.969  0.2223 -0.6894 -1.4285
 8357TIP3    H246487   2.033   6.600  11.838  0.1721  1.3857 -0.6248
 8358TIP3   OH246488   2.419   5.071   0.040 -0.1604  0.5363  0.2954
 8358TIP3    H146489   2.383   5.100   0.124  1.7451 -2.5267  2.3970
 8358TIP3    H246490   2.514   5.073   0.053  0.2041  0.4258 -1.9796
 8359TIP3   OH246491   6.175   3.667  15.812  0.2348 -0.3837  0.1684
 8359TIP3    H146492   6.267   3.689  15.797 -0.1026 -0.2079 -1.8051
 8359TIP3    H246493   6.157   3.595  15.752 -1.4243  0.8571 -0.8900
 8360TIP3   OH246494   1.525   1.049   0.428 -0.0974 -0.1998  0.6130
 8360TIP3    H146495   1.560   0.960   0.419  0.9155  0.0365  1.8344
 8360TIP3    H246496   1.560   1.097   0.354 -1.7531 -1.1091 -0.8317
 8361TIP3   OH246497   5.966   2.617  13.321  0.6601  0.1954  0.4563
 8361TIP3    H146498   6.058   2.629  13.343  0.6384 -0.3658  0.8931
 8361TIP3    H246499   5.930   2.705  13.319  1.0001  0.3676  1.2459
 8362TIP3   OH246500   3.776   3.458  13.396  0.2193  0.1811  0.3616
 8362TIP3    H146501   3.721   3.535  13.381  1.0612  0.8994  0.8225
 8362TIP3    H246502   3.765   3.405  13.317 -1.8861 -0.1978  0.8614
 8363TIP3   OH246503   4.066   6.568   3.337  0.3212 -0.2293  0.1043
 8363TIP3    H146504   4.100   6.642   3.388 -0.3265 -0.1779  0.4784
 8363TIP3    H246505   4.001   6.606   3.279  0.2404 -0.4509  0.0470
 8364TIP3   OH246506   0.151   2.823  15.992 -0.1087  0.0622 -0.5698
 8364TIP3    H146507   0.060   2.804  15.970 -0.2738 -0.1773  0.2828
 8364TIP3    H246508   0.189   2.738  16.013  0.4608  0.0933 -1.4139
 8365TIP3   OH246509   1.675   1.993  11.398  0.2263  0.1397 -0.3842
 8365TIP3    H146510   1.660   2.082  11.366  3.1652  0.7117 -0.4592
 8365TIP3    H246511   1.718   1.948  11.326  0.8608 -0.6204  0.4481
 8366TIP3   OH246512   6.405   3.480  10.710 -0.5680 -0.7762 -0.1845
 8366TIP3    H146513   6.455   3.481  10.792 -2.2004 -0.8247  0.8502
 8366TIP3    H246514   6.416   3.391  10.677  0.7001 -0.5514 -0.4347
 8367TIP3   OH246515   4.801   2.305   0.277  0.0792 -0.0493 -0.6434
 8367TIP3    H146516   4.742   2.367   0.234 -0.7071 -0.4923 -0.2209
 8367TIP3    H246517   4.883   2.354   0.288  0.1800  0.2046 -2.2649
 8368TIP3   OH246518   1.632   2.465  13.475  0.4095  0.6607 -0.6095
 8368TIP3    H146519   1.547   2.437  13.506  0.2044  0.8744 -0.9705
 8368TIP3    H246520   1.623   2.560  13.463  0.1504  0.4541 -2.3291
 8369TIP3   OH246521   4.542   2.494  12.535  0.6332 -0.6806 -0.2879
 8369TIP3    H146522   4.550   2.585  12.505  0.0251 -1.3717 -2.7963
 8369TIP3    H246523   4.550   2.499  12.630 -2.7119  2.4468  0.0608
 8370TIP3   OH246524   6.576   6.380  10.843  0.3215 -0.3482  0.0501
 8370TIP3    H146525   6.613   6.306  10.794  1.2549 -0.0414  0.2774
 8370TIP3    H246526   6.482   6.359  10.850  0.3763 -0.9494 -0.8673
 8371TIP3   OH246527   2.204   1.345  16.091 -0.2467 -0.4451  0.0623
 8371TIP3    H146528   2.292   1.382  16.077  0.2353 -1.4400  0.4215
 8371TIP3    H246529   2.146   1.403  16.040  0.5901  0.3046 -0.0699
 8372TIP3   OH246530   2.963   0.501   2.256 -0.1607 -0.1171  0.1317
 8372TIP3    H146531   2.954   0.480   2.349  1.9826  1.4564  0.7742
 8372TIP3    H246532   2.872   0.512   2.226 -0.9145 -0.8183  1.9754
 8373TIP3   OH246533   2.861   5.101  16.298 -0.3497 -0.6392  0.3994
 8373TIP3    H146534   2.902   5.178  16.257 -0.6349  0.3626  1.9085
 8373TIP3    H246535   2.768   5.123  16.302 -0.9069 -2.2685 -1.6344
 8374TIP3   OH246536   3.012   2.681  15.400  0.0628 -0.8314 -0.1458
 8374TIP3    H146537   2.987   2.758  15.349 -0.0573 -0.2736  0.7334
 8374TIP3    H246538   3.062   2.716  15.473 -0.3994 -1.5451  0.5257
 8375TIP3   OH246539   4.715   6.418  11.856  0.2998 -0.3156  0.1761
 8375TIP3    H146540   4.674   6.395  11.939  0.9872  0.0354  0.6195
 8375TIP3    H246541   4.714   6.514  11.855 -1.2167 -0.2999 -0.9892
 8376TIP3   OH246542   5.925   0.205   1.028  0.5451  0.1156 -0.1694
 8376TIP3    H146543   5.876   0.186   0.948 -1.8792  2.4052  0.6438
 8376TIP3    H246544   5.988   0.272   1.002  1.4363 -0.8639 -0.6203
 8377TIP3   OH246545   1.140   4.485  14.590 -0.3670 -0.6924 -0.0122
 8377TIP3    H146546   1.049   4.477  14.563 -0.0803 -1.0826 -0.8890
 8377TIP3    H246547   1.170   4.395  14.600 -0.4835 -0.5800  1.7558
 8378TIP3   OH246548   3.438   4.179   5.510  0.1923 -0.0893 -0.4029
 8378TIP3    H146549   3.455   4.085   5.516  2.6170  0.2979 -0.0666
 8378TIP3    H246550   3.446   4.199   5.416  1.2346  0.0075 -0.3018
 8379TIP3   OH246551   5.628   2.565  12.290  0.1885 -0.2111  0.1772
 8379TIP3    H146552   5.717   2.579  12.257  0.7369  2.6765  2.5718
 8379TIP3    H246553   5.630   2.475  12.323  2.4733  0.0224  0.8693
 8380TIP3   OH246554   3.430   5.925  14.697  0.3859  0.1136  0.1807
 8380TIP3    H146555   3.383   6.008  14.687 -1.1781 -0.7359  0.0298
 8380TIP3    H246556   3.379   5.878  14.764  1.8479 -0.3190  1.0185
 8381TIP3   OH246557   2.853   3.833   4.141 -0.2185 -0.2659  0.4215
 8381TIP3    H146558   2.849   3.849   4.235 -0.7090  1.0219  0.1970
 8381TIP3    H246559   2.852   3.737   4.133  0.8515 -0.4092  1.7457
 8382TIP3   OH246560   5.968   2.491  16.481 -0.4927  0.0682  0.3643
 8382TIP3    H146561   5.940   2.518  16.394 -0.8270 -0.2951  0.3557
 8382TIP3    H246562   5.987   2.574  16.526 -0.3531  0.2583 -0.0372
 8383TIP3   OH246563   4.469   3.008   1.997 -0.5114 -0.0765 -0.3486
 8383TIP3    H146564   4.393   3.064   2.014 -1.2954 -1.4713  1.0203
 8383TIP3    H246565   4.544   3.062   2.020 -1.3038 -0.0115  2.3975
 8384TIP3   OH246566   5.492   3.379   5.890  0.1040 -0.4055 -0.6245
 8384TIP3    H146567   5.463   3.467   5.917 -1.2820 -0.8589 -0.5694
 8384TIP3    H246568   5.483   3.326   5.969 -0.3263 -0.8822 -0.9880
 8385TIP3   OH246569   3.185   1.235  11.168  0.0888  0.0311  0.2407
 8385TIP3    H146570   3.126   1.185  11.225 -0.0396 -0.6441 -0.4582
 8385TIP3    H246571   3.132   1.254  11.091  0.1128  1.3463  0.5274
 8386TIP3   OH246572   0.593   6.597  16.306  0.3445  0.3000 -0.2773
 8386TIP3    H146573   0.605   6.550  16.223  2.1502 -0.3377  0.2945
 8386TIP3    H246574   0.678   6.590  16.349 -1.2052 -1.7146  2.8523
 8387TIP3   OH246575   6.348   3.117   4.921 -0.0253  0.5341 -0.1915
 8387TIP3    H146576   6.386   3.121   5.009  0.2587 -1.3204 -0.1853
 8387TIP3    H246577   6.411   3.067   4.869 -0.1877  1.6139 -1.4714
 8388TIP3   OH246578   6.214   2.679  13.029  0.0967  0.0030  0.1395
 8388TIP3    H146579   6.155   2.718  12.965 -1.2913 -1.7702  0.2700
 8388TIP3    H246580   6.163   2.611  13.072  1.7854 -0.5940  1.3489
 8389TIP3   OH246581   2.400   1.879   0.031 -0.1386 -0.1508 -0.0190
 8389TIP3    H146582   2.382   1.868  -0.063 -0.2074  0.6903 -0.1130
 8389TIP3    H246583   2.315   1.863   0.073 -0.0580 -0.7539 -0.0742
 8390TIP3   OH246584   1.066   1.524  11.917  0.1133  0.4937  0.3580
 8390TIP3    H146585   1.126   1.460  11.956  1.0190  1.7097  1.0250
 8390TIP3    H246586   1.011   1.472  11.857  0.7236 -0.9146  0.9742
 8391TIP3   OH246587   4.274   6.497   3.037  0.0100 -0.4470 -0.1354
 8391TIP3    H146588   4.202   6.557   3.022 -0.9930 -1.2880  1.1248
 8391TIP3    H246589   4.307   6.477   2.949  0.7202  2.2877 -0.5646
 8392TIP3   OH246590   1.244   0.224   4.061  0.5848 -0.1496  0.0806
 8392TIP3    H146591   1.285   0.198   3.979  0.8229 -0.5022  0.3108
 8392TIP3    H246592   1.185   0.295   4.036  0.1216 -0.7293 -0.5118
 8393TIP3   OH246593   3.940   5.626  13.631 -0.0432  0.2710 -0.2325
 8393TIP3    H146594   3.876   5.611  13.562  2.1556  0.6936 -2.5496
 8393TIP3    H246595   3.902   5.695  13.685 -1.2030  1.1211 -2.0376
 8394TIP3   OH246596   2.039   1.951   2.469  0.0870  0.2131  0.2901
 8394TIP3    H146597   1.977   1.905   2.526 -0.5660 -0.1076 -0.6503
 8394TIP3    H246598   2.018   1.920   2.381  2.6911 -1.2034  0.0657
 8395TIP3   OH246599   0.746   5.021   0.377  0.7357  0.0144 -0.0234
 8395TIP3    H146600   0.787   5.008   0.463 -2.4313 -1.4602  1.4144
 8395TIP3    H246601   0.730   5.116   0.373  0.9695  0.1133  1.0007
 8396TIP3   OH246602   3.885   6.750   3.241  0.2650  0.1299 -0.3275
 8396TIP3    H146603   3.897   6.827   3.297 -0.5305 -0.6644  1.0116
 8396TIP3    H246604   3.793   6.753   3.216  0.0324 -0.7427  0.3445
 8397TIP3   OH246605   1.265   5.756  10.733 -0.4376  0.0629 -0.0697
 8397TIP3    H146606   1.356   5.750  10.704 -0.2828  0.4815  0.3218
 8397TIP3    H246607   1.263   5.712  10.818 -0.3651  1.0167  0.4339
 8398TIP3   OH246608   2.591   1.216   3.436  0.2383  0.1708  0.2689
 8398TIP3    H146609   2.556   1.301   3.463  0.2257 -0.1119  1.1582
 8398TIP3    H246610   2.535   1.189   3.364  0.5824  1.1686 -0.4110
 8399TIP3   OH246611   2.661   4.232   3.068  0.1366  0.5813 -0.1857
 8399TIP3    H146612   2.603   4.301   3.038  0.2635  1.0209  0.5700
 8399TIP3    H246613   2.742   4.277   3.094  0.5671  0.0531 -0.5666
 8400TIP3   OH246614   6.003   5.322  12.689 -0.4029 -0.4793  0.2505
 8400TIP3    H146615   5.927   5.318  12.632 -1.4519  1.5048  1.3833
 8400TIP3    H246616   5.967   5.332  12.777  1.1733 -2.5666  1.2270
 8401TIP3   OH246617   6.682   2.461  10.595 -0.2945 -0.5360  0.4463
 8401TIP3    H146618   6.767   2.431  10.627  0.2045 -0.1987 -0.5418
 8401TIP3    H246619   6.701   2.540  10.545 -1.1999 -0.4354  0.2397
 8402TIP3   OH246620   4.688   2.454   0.499  0.1466  0.1155 -0.0883
 8402TIP3    H146621   4.665   2.504   0.420 -0.9207 -0.8518 -0.4196
 8402TIP3    H246622   4.623   2.385   0.503  0.7024 -0.3631  1.1926
 8403TIP3   OH246623   5.635   5.051   2.210 -0.1642  0.2881 -0.4498
 8403TIP3    H146624   5.725   5.077   2.232 -0.6389  1.5958  0.0699
 8403TIP3    H246625   5.637   5.036   2.116  1.0229 -1.6157 -0.1702
 8404TIP3   OH246626   6.083   0.403   2.502 -0.2597 -0.2218  0.1977
 8404TIP3    H146627   5.998   0.381   2.542  0.1133 -1.1746  0.5010
 8404TIP3    H246628   6.093   0.497   2.516 -1.8030  0.1436 -0.8764
 8405TIP3   OH246629   1.231   2.786   4.085  0.5375 -0.0717  0.1863
 8405TIP3    H146630   1.262   2.877   4.077 -0.5773  0.2448 -0.7959
 8405TIP3    H246631   1.305   2.739   4.124  2.6396  0.4664 -2.8244
 8406TIP3   OH246632   2.215   2.199  13.820  0.0750  0.3412  0.0462
 8406TIP3    H146633   2.174   2.203  13.907 -0.6488 -1.2996 -0.1855
 8406TIP3    H246634   2.146   2.229  13.761 -0.4616 -1.3516 -0.2310
 8407TIP3   OH246635   6.575   5.050  13.077  0.0529  0.2228 -0.4925
 8407TIP3    H146636   6.538   4.986  13.138 -1.0941  0.3758 -0.9980
 8407TIP3    H246637   6.504   5.112  13.062  0.6849  0.8065 -1.1363
 8408TIP3   OH246638   6.815   4.437  16.928 -0.7606 -0.1635  0.1993
 8408TIP3    H146639   6.807   4.381  16.850 -1.6173  0.9188 -0.5235
 8408TIP3    H246640   6.893   4.405  16.972  0.5730  0.0605 -1.8441
 8409TIP3   OH246641   4.686   0.954   3.196  0.5008  0.1588 -0.0155
 8409TIP3    H146642   4.598   0.939   3.161  1.1536  0.1846 -1.7322
 8409TIP3    H246643   4.742   0.959   3.119  1.9993  0.2836  1.0488
 8410TIP3   OH246644   3.877   3.868   0.781  0.0427 -0.3009 -0.0524
 8410TIP3    H146645   3.850   3.945   0.730 -1.0071 -0.6715 -0.0755
 8410TIP3    H246646   3.906   3.805   0.715  3.0870  0.8170  0.0468
 8411TIP3   OH246647   2.051   1.708  13.712 -0.2617  0.2195 -0.0226
 8411TIP3    H146648   2.144   1.716  13.690  0.0267 -0.5310  0.8828
 8411TIP3    H246649   2.040   1.760  13.792 -0.5660  0.0816  0.0292
 8412TIP3   OH246650   0.871   1.986  16.268 -0.1734  0.0887 -0.2701
 8412TIP3    H146651   0.861   1.902  16.313 -2.2716 -0.4137 -1.5311
 8412TIP3    H246652   0.831   2.050  16.328  1.5475  0.2574  0.7509
 8413TIP3   OH246653   2.236   0.795  14.328  0.8107 -0.0982  0.4428
 8413TIP3    H146654   2.303   0.802  14.260  2.1556  1.0324  1.8070
 8413TIP3    H246655   2.197   0.883  14.332  0.4569 -0.2719  0.8388
 8414TIP3   OH246656   4.840   5.005  11.643 -0.1123 -0.2163 -0.8263
 8414TIP3    H146657   4.867   5.061  11.716 -0.6813 -0.9257 -0.0434
 8414TIP3    H246658   4.915   4.948  11.627 -0.5810 -1.2542  0.4264
 8415TIP3   OH246659   2.213   2.808   3.810  0.1818  0.1556 -0.3062
 8415TIP3    H146660   2.146   2.843   3.867  0.2975 -2.6212  1.7503
 8415TIP3    H246661   2.287   2.867   3.820 -0.6738  1.1295  0.3974
 8416TIP3   OH246662   0.969   5.287   1.245  0.0454 -0.0622 -0.3791
 8416TIP3    H146663   0.904   5.304   1.177 -0.9043 -2.1317 -0.0562
 8416TIP3    H246664   0.933   5.328   1.323  0.3009  0.8249 -0.7137
 8417TIP3   OH246665   6.140   2.454   4.411  0.9024  0.5902  0.3829
 8417TIP3    H146666   6.217   2.411   4.446  0.2156 -1.8426 -0.8559
 8417TIP3    H246667   6.149   2.546   4.437  1.6987 -0.4760  4.5502
 8418TIP3   OH246668   6.041   1.950   3.164  0.2971  0.1370 -0.3133
 8418TIP3    H146669   6.079   1.986   3.244 -0.8960 -0.6740  0.6645
 8418TIP3    H246670   6.034   2.024   3.104  1.5111  0.6877  0.1901
 8419TIP3   OH246671   0.871   6.619  11.150  0.2256  0.0897 -0.1096
 8419TIP3    H146672   0.846   6.622  11.058  0.4277 -0.6241 -0.1933
 8419TIP3    H246673   0.801   6.666  11.195  0.4515  0.9914 -0.6889
 8420TIP3   OH246674   5.009   0.655   2.207 -0.3483 -0.1876  0.3777
 8420TIP3    H146675   5.033   0.596   2.279 -0.2675 -0.3561  0.2133
 8420TIP3    H246676   4.996   0.740   2.249  0.8482 -0.0096  0.4438
 8421TIP3   OH246677   1.486   3.241  12.711 -0.0960 -0.2989  0.2532
 8421TIP3    H146678   1.541   3.226  12.788 -1.6386 -1.9694  1.1085
 8421TIP3    H246679   1.399   3.209  12.736 -1.4782  2.0805 -1.1015
 8422TIP3   OH246680   3.660   2.111   0.392  0.0885  0.9025 -0.9064
 8422TIP3    H146681   3.597   2.133   0.323 -0.5871  3.1539  0.3210
 8422TIP3    H246682   3.609   2.064   0.457  0.4357 -0.0769 -1.3221
 8423TIP3   OH246683   1.744   2.317  16.333  0.1206 -0.4489 -0.4188
 8423TIP3    H146684   1.835   2.291  16.345  0.2801  0.1328 -0.3064
 8423TIP3    H246685   1.743   2.362  16.248  0.9409  3.6349  1.4796
 8424TIP3   OH246686   4.177   5.314  13.226  0.0779  0.3445 -0.2701
 8424TIP3    H146687   4.130   5.382  13.275 -0.0669 -0.1252  0.2497
 8424TIP3    H246688   4.188   5.351  13.138 -0.1112  0.9884 -0.0287
 8425TIP3   OH246689   5.549   3.780   1.042  0.1046  0.2752 -0.2076
 8425TIP3    H146690   5.624   3.838   1.051 -0.8428  1.5733 -0.3417
 8425TIP3    H246691   5.507   3.783   1.128  2.1720 -3.4013  1.1554
 8426TIP3   OH246692   2.252   2.019   5.006  0.5435  0.4374  0.2633
 8426TIP3    H146693   2.167   1.976   5.019  2.1162 -2.8281  0.9217
 8426TIP3    H246694   2.262   2.077   5.082 -0.8138  0.3732  0.5112
 8427TIP3   OH246695   0.119   0.362  13.329 -0.4592 -0.0331 -0.4603
 8427TIP3    H146696   0.045   0.306  13.354  0.7007 -1.0221  0.9088
 8427TIP3    H246697   0.154   0.321  13.250 -0.5075 -0.4001 -0.2963
 8428TIP3   OH246698   0.832   5.757  13.734  0.4384  0.1388  0.4717
 8428TIP3    H146699   0.886   5.686  13.770  2.6571  0.8854 -1.1357
 8428TIP3    H246700   0.864   5.836  13.779  0.2394  0.5119 -0.0302
 8429TIP3   OH246701   0.794   3.229   4.549 -0.5080  0.1406  0.0119
 8429TIP3    H146702   0.821   3.137   4.538 -0.7323  0.2403 -1.6419
 8429TIP3    H246703   0.868   3.270   4.593  0.1650 -0.5634 -0.4229
 8430TIP3   OH246704   2.489   4.260  14.316 -0.1580 -0.0821 -0.7163
 8430TIP3    H146705   2.416   4.242  14.376  0.6520  2.1529  1.0632
 8430TIP3    H246706   2.487   4.186  14.255 -2.8379 -0.9810  0.2764
 8431TIP3   OH246707   6.048   5.187  11.447  0.3443  0.0174 -0.2298
 8431TIP3    H146708   6.043   5.101  11.487 -0.2144  1.0380  2.0627
 8431TIP3    H246709   6.096   5.173  11.365 -0.1326 -2.5018 -0.1577
 8432TIP3   OH246710   2.411   4.375  15.446 -0.6111 -0.2469  0.2091
 8432TIP3    H146711   2.499   4.340  15.455 -0.7293 -0.6883 -0.3155
 8432TIP3    H246712   2.420   4.469  15.462 -0.4133 -0.5792  2.4900
 8433TIP3   OH246713   3.624   1.087   1.866  0.0321  0.0840 -0.4578
 8433TIP3    H146714   3.618   0.997   1.897 -1.8010  0.4606  0.3909
 8433TIP3    H246715   3.682   1.130   1.928  3.2636 -1.0614 -2.4218
 8434TIP3   OH246716   5.642   0.784  15.457  0.2823  0.3620  0.0145
 8434TIP3    H146717   5.648   0.760  15.364  0.7371  0.5520 -0.0065
 8434TIP3    H246718   5.661   0.703  15.504  0.5188  0.3721 -0.0603
 8435TIP3   OH246719   6.363   2.019  13.887 -0.1242  0.0987  0.2843
 8435TIP3    H146720   6.348   2.111  13.905  1.5611  0.6389 -0.7908
 8435TIP3    H246721   6.320   1.972  13.958 -0.6324  1.7290  1.0785
 8436TIP3   OH246722   6.793   4.989   3.111  0.4365  0.2698 -0.2583
 8436TIP3    H146723   6.857   4.964   3.178 -0.0773  0.6230  0.3705
 8436TIP3    H246724   6.826   4.949   3.030  1.5631  0.6337  0.0098
 8437TIP3   OH246725   1.553   4.967  16.479 -0.1539 -0.0421 -0.2367
 8437TIP3    H146726   1.550   5.033  16.548 -0.0625 -0.6613  0.3715
 8437TIP3    H246727   1.494   4.898  16.511 -1.0559  0.1917 -1.3339
 8438TIP3   OH246728   2.282   1.103  16.184  0.5376  0.5207 -0.2244
 8438TIP3    H146729   2.252   1.056  16.106  1.6820  0.4504 -0.6541
 8438TIP3    H246730   2.255   1.194  16.169  2.1989  0.8537 -1.5511
 8439TIP3   OH246731   6.157   5.146  13.440  0.2802  0.3048 -0.2532
 8439TIP3    H146732   6.069   5.181  13.425 -0.4366 -1.4537 -0.4571
 8439TIP3    H246733   6.163   5.138  13.536  0.3345  0.7065 -0.2232
 8440TIP3   OH246734   4.965   2.162   2.410  0.1338  0.0418  0.2376
 8440TIP3    H146735   5.022   2.235   2.433 -0.3301  0.3969  0.2848
 8440TIP3    H246736   5.021   2.085   2.416  0.6486  0.3980  0.1187
 8441TIP3   OH246737   0.876   0.018  14.531  0.7743  0.0779 -0.6043
 8441TIP3    H146738   0.932  -0.038  14.585  1.0465 -0.4157 -1.3873
 8441TIP3    H246739   0.928   0.037  14.453 -0.0655 -0.2275 -1.2581
 8442TIP3   OH246740   4.416   0.478   3.847 -1.0068  0.4621  0.0196
 8442TIP3    H146741   4.493   0.534   3.858 -1.7024  1.3804  0.3716
 8442TIP3    H246742   4.436   0.424   3.772  0.6596 -0.4654  1.0745
 8443TIP3   OH246743   2.145   4.545   1.889 -0.4773  0.3335 -0.2224
 8443TIP3    H146744   2.088   4.516   1.818 -0.5508  1.7499 -0.7926
 8443TIP3    H246745   2.220   4.585   1.844 -0.1122  0.4698  0.4964
 8444TIP3   OH246746   3.085   6.269   0.043 -0.6673  0.1644  0.2570
 8444TIP3    H146747   3.039   6.346   0.009  2.1889  2.3039  0.9085
 8444TIP3    H246748   3.116   6.223  -0.036  0.2969  1.4678 -0.1500
 8445TIP3   OH246749   1.913   2.641   4.992 -0.5463 -0.2270  0.5033
 8445TIP3    H146750   1.927   2.667   4.900  1.4185 -0.7802  0.5990
 8445TIP3    H246751   1.963   2.706   5.042  2.1256 -2.4086  0.8915
 8446TIP3   OH246752   3.161   4.080  12.667  0.1056  0.6255  0.2236
 8446TIP3    H146753   3.187   4.041  12.750 -0.6315  1.9023  1.0830
 8446TIP3    H246754   3.206   4.164  12.664  0.0939  0.6148 -0.6633
 8447TIP3   OH246755   0.505   0.717  14.362  0.4325  0.3494 -0.1747
 8447TIP3    H146756   0.524   0.766  14.442 -1.2794  0.7180  0.0585
 8447TIP3    H246757   0.531   0.627  14.381  0.3116  0.4924  0.7046
 8448TIP3   OH246758   1.340   5.211   4.682 -0.3024  0.5239  0.0324
 8448TIP3    H146759   1.380   5.296   4.661 -0.7101  0.3927 -1.4274
 8448TIP3    H246760   1.327   5.213   4.776  0.6267  1.6753  0.1634
 8449TIP3   OH246761   3.441   2.149  15.661 -0.1399 -0.5135  0.1343
 8449TIP3    H146762   3.505   2.113  15.722  0.2998  0.4129  0.2453
 8449TIP3    H246763   3.451   2.097  15.581  0.8899 -0.2563  0.0866
 8450TIP3   OH246764   4.133   6.693  16.982  0.7456  0.0793  0.3735
 8450TIP3    H146765   4.178   6.690  16.897  1.7264 -2.5310  0.8821
 8450TIP3    H246766   4.204   6.699  17.046  0.3469 -2.1238  1.1182
 8451TIP3   OH246767   2.281   6.335  15.554  0.1508  0.7509 -0.2831
 8451TIP3    H146768   2.353   6.311  15.613  1.3859  1.3226 -1.5012
 8451TIP3    H246769   2.208   6.280  15.582  1.3997 -0.7162  0.2502
 8452TIP3   OH246770   5.355   3.022  16.669 -0.2105  0.3395  0.4245
 8452TIP3    H146771   5.400   2.982  16.744 -1.4267  0.2274  1.1339
 8452TIP3    H246772   5.423   3.036  16.604  0.9690  0.8327  1.7207
 8453TIP3   OH246773   3.250   5.388   0.965  0.5632 -0.4507  0.1889
 8453TIP3    H146774   3.327   5.348   0.923  0.8064  1.3690 -1.2438
 8453TIP3    H246775   3.210   5.441   0.896 -2.0058 -1.3261  0.9149
 8454TIP3   OH246776   4.118   6.349   3.552  0.2952 -0.1827 -0.1306
 8454TIP3    H146777   4.186   6.416   3.565  0.3314 -0.1057 -0.6700
 8454TIP3    H246778   4.036   6.396   3.561  0.3104 -0.2648  0.4697
 8455TIP3   OH246779   4.044   5.598  12.772  0.3224  0.0621 -0.5587
 8455TIP3    H146780   3.998   5.681  12.780 -1.1201 -0.7284 -0.3419
 8455TIP3    H246781   4.072   5.594  12.680 -0.0953  0.5390 -0.7081
 8456TIP3   OH246782   2.517   4.592  12.388  0.5822 -0.4190  0.4443
 8456TIP3    H146783   2.443   4.652  12.398 -0.8852 -2.0584 -0.0268
 8456TIP3    H246784   2.579   4.639  12.334  0.5110  1.5279  1.9331
 8457TIP3   OH246785   3.543   2.725  11.946  0.2011  0.2223 -0.2664
 8457TIP3    H146786   3.589   2.792  11.895 -0.5881  0.6179 -0.4671
 8457TIP3    H246787   3.610   2.658  11.961  0.4149 -0.0202 -2.0281
 8458TIP3   OH246788   5.857   4.392  12.138 -0.0932 -0.1728  0.0473
 8458TIP3    H146789   5.804   4.472  12.137  0.5467  0.2765  1.0315
 8458TIP3    H246790   5.898   4.389  12.051 -2.0500 -0.7781 -0.9083
 8459TIP3   OH246791   1.113   2.455   5.322 -0.1587  0.3444 -0.0371
 8459TIP3    H146792   1.181   2.515   5.291  0.2709  0.2845  0.7457
 8459TIP3    H246793   1.156   2.406   5.393 -0.4638 -0.9556 -0.7260
 8460TIP3   OH246794   6.710   0.611  13.630  0.3794  0.2227  0.0004
 8460TIP3    H146795   6.644   0.543  13.615  0.2010  0.1633  1.0162
 8460TIP3    H246796   6.661   0.683  13.669  0.7933  0.4674  0.0709
 8461TIP3   OH246797   0.071   1.157  12.974 -0.8932  0.5767  0.4351
 8461TIP3    H146798   0.031   1.091  12.918 -0.6330 -1.7835  2.8451
 8461TIP3    H246799   0.003   1.181  13.037 -0.9230  2.5570 -0.2689
 8462TIP3   OH246800   1.710   3.655   3.202  0.0685  0.6166 -0.3052
 8462TIP3    H146801   1.752   3.649   3.288 -0.0851 -0.1532 -0.2758
 8462TIP3    H246802   1.619   3.629   3.218  0.5968 -2.0284 -1.1046
 8463TIP3   OH246803   1.454   4.705  12.851 -0.0668  0.3731  0.2575
 8463TIP3    H146804   1.406   4.788  12.860 -2.0168 -0.4510 -1.5782
 8463TIP3    H246805   1.429   4.654  12.927 -1.3805  0.3525 -0.1528
 8464TIP3   OH246806   1.641   3.951  14.022  0.0085  0.2901  0.0971
 8464TIP3    H146807   1.552   3.960  14.058 -0.6594  1.2133 -1.6692
 8464TIP3    H246808   1.668   4.040  14.002  1.0638 -0.0468 -0.0548
 8465TIP3   OH246809   5.274   1.327   1.397  0.3619 -0.1089 -0.0251
 8465TIP3    H146810   5.309   1.305   1.311 -1.0570  0.0692 -0.6831
 8465TIP3    H246811   5.184   1.294   1.395  0.4187 -0.4101  1.5239
 8466TIP3   OH246812   5.512   4.240  14.123 -0.2062  0.2287  0.2713
 8466TIP3    H146813   5.461   4.240  14.042 -0.5792 -1.2681  0.4732
 8466TIP3    H246814   5.452   4.275  14.189 -0.9443 -1.3230  0.4642
 8467TIP3   OH246815   2.924   1.863   0.284 -0.3580 -0.0614  0.0107
 8467TIP3    H146816   2.925   1.924   0.358 -0.0880  0.7434 -0.6427
 8467TIP3    H246817   2.856   1.898   0.225  0.9785  0.6174 -1.1854
 8468TIP3   OH246818   1.693   5.419  15.291  0.6166 -0.1569  0.1602
 8468TIP3    H146819   1.649   5.345  15.248 -0.4598  0.7576 -0.3757
 8468TIP3    H246820   1.778   5.425  15.247  0.0558 -0.0668 -0.9614
 8469TIP3   OH246821   3.370   6.092  14.414 -0.0198  0.2316  0.6959
 8469TIP3    H146822   3.448   6.109  14.361 -0.7209  1.5151  0.0108
 8469TIP3    H246823   3.381   6.148  14.491  0.7498 -1.2436  1.7109
 8470TIP3   OH246824   4.519   1.899  16.429 -0.1462 -0.5630  0.6474
 8470TIP3    H146825   4.560   1.969  16.480 -0.1655  1.4616 -1.9083
 8470TIP3    H246826   4.548   1.818  16.471  0.4059  0.9259  3.3571
 8471TIP3   OH246827   5.558   6.504   3.803  0.2649  0.3055  0.0300
 8471TIP3    H146828   5.585   6.476   3.891 -0.4024  0.0917  0.1764
 8471TIP3    H246829   5.470   6.468   3.793  0.2268  0.5684 -0.6206
 8472TIP3   OH246830   4.606   3.320  12.027 -0.0793 -0.5994  0.4113
 8472TIP3    H146831   4.524   3.337  12.072  0.5026  0.5934  1.0565
 8472TIP3    H246832   4.654   3.403  12.031  0.9246 -1.1079 -0.4420
 8473TIP3   OH246833   1.620   1.501   4.783 -0.1380  0.3468 -0.2084
 8473TIP3    H146834   1.620   1.449   4.863  2.0327 -0.7225 -0.8226
 8473TIP3    H246835   1.533   1.488   4.746 -0.4821 -0.8229  0.9474
 8474TIP3   OH246836   3.235   4.424   2.378 -0.1943  0.1433  0.3437
 8474TIP3    H146837   3.212   4.515   2.362 -0.0531  0.0920 -0.1416
 8474TIP3    H246838   3.330   4.422   2.376 -0.2036 -0.0755  0.0226
 8475TIP3   OH246839   4.172   1.422  12.006  0.3202 -0.3415  0.7849
 8475TIP3    H146840   4.222   1.376  12.073  1.6307  0.5451  0.4543
 8475TIP3    H246841   4.238   1.470  11.955 -0.5110 -1.6390 -1.6937
 8476TIP3   OH246842   5.614   5.798  14.052 -0.6098  0.0359 -0.5696
 8476TIP3    H146843   5.553   5.730  14.023  0.6325 -0.8475 -1.2192
 8476TIP3    H246844   5.617   5.789  14.148 -0.8577 -0.4771 -0.6107
 8477TIP3   OH246845   0.269   1.777  11.112 -0.3429 -0.0254  0.1507
 8477TIP3    H146846   0.323   1.851  11.085 -0.2962  0.1434  0.6882
 8477TIP3    H246847   0.324   1.729  11.175 -0.9008  0.2921  0.8974
 8478TIP3   OH246848   3.763   5.778  13.861 -0.1939 -0.0174 -0.1000
 8478TIP3    H146849   3.704   5.842  13.822 -1.5597 -0.3880  1.2642
 8478TIP3    H246850   3.794   5.819  13.942  2.3060  0.5947 -1.2839
 8479TIP3   OH246851   2.192   3.073   5.578 -0.3897  0.6645 -0.1362
 8479TIP3    H146852   2.128   3.041   5.515 -1.0355  2.9003 -0.6978
 8479TIP3    H246853   2.218   2.996   5.628 -2.2273 -0.5935 -1.0401
 8480TIP3   OH246854   4.905   0.347  11.478 -0.0180  0.0042  0.0780
 8480TIP3    H146855   4.927   0.266  11.524  0.2360 -0.5354 -0.9593
 8480TIP3    H246856   4.810   0.342  11.465 -0.4347  1.0971  2.2397
 8481TIP3   OH246857   2.826   6.442   1.998  0.1158 -0.0696 -0.3308
 8481TIP3    H146858   2.736   6.465   2.021  0.4654  1.1510 -0.1004
 8481TIP3    H246859   2.838   6.354   2.034 -0.9567 -0.2147 -0.3013
 8482TIP3   OH246860   1.465   3.837  15.903 -0.0855 -0.1452 -0.1686
 8482TIP3    H146861   1.509   3.907  15.853 -2.6222  1.2242 -0.6590
 8482TIP3    H246862   1.419   3.883  15.973  0.0229 -1.6255  0.9283
 8483TIP3   OH246863   2.394   3.720   3.985  0.1724 -0.1949  0.0842
 8483TIP3    H146864   2.347   3.648   4.028  0.8825  0.2569  1.6933
 8483TIP3    H246865   2.444   3.762   4.055 -0.4616  2.0928 -0.7433
 8484TIP3   OH246866   6.046   2.638  14.671 -0.0125 -0.0722 -0.6405
 8484TIP3    H146867   5.982   2.642  14.599 -0.0569  0.0336 -0.5955
 8484TIP3    H246868   6.104   2.566  14.648  0.2923  0.2983 -1.0456
 8485TIP3   OH246869   1.824   1.183  12.172  0.5166  0.0877  0.4527
 8485TIP3    H146870   1.877   1.259  12.150  1.4069 -0.7908 -0.5406
 8485TIP3    H246871   1.780   1.160  12.090  0.1649 -0.3934  0.7697
 8486TIP3   OH246872   0.745   3.632  14.692  0.4394  0.3416  0.0500
 8486TIP3    H146873   0.737   3.727  14.701 -0.7221  0.3134 -0.4961
 8486TIP3    H246874   0.676   3.597  14.748  1.0866 -0.1958  0.5205
 8487TIP3   OH246875   6.605   2.942  13.275 -0.5618 -0.0848 -0.2456
 8487TIP3    H146876   6.577   2.966  13.186 -1.2264 -0.9989 -0.3014
 8487TIP3    H246877   6.689   2.897  13.262  0.5147  1.7981 -0.1689
 8488TIP3   OH246878   1.817   5.200  14.679 -0.4479  0.1576  0.1463
 8488TIP3    H146879   1.841   5.277  14.730 -1.7332  0.5742  0.1563
 8488TIP3    H246880   1.752   5.232  14.616 -0.3492 -0.7427 -0.4366
 8489TIP3   OH246881   0.367   0.048   1.161  0.5789 -0.0768 -0.2946
 8489TIP3    H146882   0.322  -0.037   1.163  0.5279 -0.0453 -0.0520
 8489TIP3    H246883   0.298   0.112   1.143  0.8183 -0.2142 -1.7826
 8490TIP3   OH246884   4.855   5.090   0.432  0.0571  0.1709 -0.7121
 8490TIP3    H146885   4.894   5.153   0.371  0.8978 -0.1928 -0.5465
 8490TIP3    H246886   4.864   5.132   0.518  1.3243 -0.5012 -0.4988
 8491TIP3   OH246887   3.678   2.823   5.571  0.4305 -0.0746  0.0646
 8491TIP3    H146888   3.609   2.860   5.626  0.0090  0.5315 -0.8390
 8491TIP3    H246889   3.737   2.897   5.554  0.4984 -0.2223 -0.3660
 8492TIP3   OH246890   5.062   1.623   5.711  0.0342 -0.3059  0.2045
 8492TIP3    H146891   5.095   1.702   5.754 -0.3988 -1.0808  2.0676
 8492TIP3    H246892   4.974   1.646   5.683  1.1622  1.0066 -2.6459
 8493TIP3   OH246893   4.533   0.904   1.451  0.4310 -0.9081 -0.7418
 8493TIP3    H146894   4.605   0.847   1.423  1.2969 -0.4873  0.5447
 8493TIP3    H246895   4.468   0.845   1.489  0.1566 -1.2735 -1.7498
 8494TIP3   OH246896   1.379   1.182  12.169  0.0329  0.3835  0.3569
 8494TIP3    H146897   1.314   1.135  12.222  0.0435 -0.8793 -0.6871
 8494TIP3    H246898   1.440   1.219  12.233 -2.7975  3.4871  1.5516
 8495TIP3   OH246899   2.576   1.495   5.478 -0.2383  0.9669  0.1361
 8495TIP3    H146900   2.508   1.529   5.420  1.1628  1.3453 -1.3739
 8495TIP3    H246901   2.588   1.404   5.450 -1.2484  0.3719  1.5324
 8496TIP3   OH246902   3.129   3.853  12.472 -0.7007 -0.2858  0.7599
 8496TIP3    H146903   3.133   3.898  12.556 -0.0037  2.5619 -0.6670
 8496TIP3    H246904   3.036   3.856  12.448 -0.5988  0.8408  0.4788
 8497TIP3   OH246905   1.664   2.140  16.794 -0.2979  0.1961  0.0894
 8497TIP3    H146906   1.686   2.205  16.727  2.4260 -0.7113 -0.0293
 8497TIP3    H246907   1.688   2.183  16.876 -0.6689  0.1626  0.2166
 8498TIP3   OH246908   4.169   3.459  10.993  0.0500 -0.1068  0.3151
 8498TIP3    H146909   4.116   3.500  10.925 -0.4481 -0.7069  0.3306
 8498TIP3    H246910   4.120   3.380  11.017  0.2368  0.0691  1.3347
 8499TIP3   OH246911   1.975   6.226  10.568  0.0942  0.5353 -0.1549
 8499TIP3    H146912   2.003   6.227  10.477 -1.1080 -1.3057 -0.6227
 8499TIP3    H246913   1.903   6.289  10.572  1.5554  2.2639  0.1007
 8500TIP3   OH246914   1.615   6.637  14.595 -0.1098 -0.2822  0.0242
 8500TIP3    H146915   1.548   6.676  14.539 -0.0119  0.2545  0.2767
 8500TIP3    H246916   1.647   6.562  14.546 -2.3214 -1.8021  0.7438
 8501TIP3   OH246917   6.700   4.177   0.925  0.3533  0.3981 -0.2932
 8501TIP3    H146918   6.708   4.133   0.840 -1.3209 -0.2748 -0.1466
 8501TIP3    H246919   6.695   4.105   0.988 -4.5305  0.4997 -0.2176
 8502TIP3   OH246920   0.835   3.701   4.790  0.2714 -0.1906  0.5025
 8502TIP3    H146921   0.881   3.686   4.708 -2.8610 -0.9650 -1.2619
 8502TIP3    H246922   0.819   3.795   4.793  0.8337 -0.0923  0.5035
 8503TIP3   OH246923   3.332   1.835  14.768  0.6809  0.4275 -0.0300
 8503TIP3    H146924   3.311   1.834  14.861  1.1275 -0.2817  0.0723
 8503TIP3    H246925   3.427   1.841  14.764  0.6966 -0.0240 -0.4275
 8504TIP3   OH246926   1.750   6.120  16.725  0.2553 -0.3353  0.3049
 8504TIP3    H146927   1.759   6.099  16.818 -2.8434  3.0289  1.6355
 8504TIP3    H246928   1.836   6.153  16.700  0.6028  0.8824  2.7531
 8505TIP3   OH246929   1.199   0.392  12.082  0.0782  0.2334 -0.7986
 8505TIP3    H146930   1.251   0.472  12.089 -0.0835  0.3133 -0.5062
 8505TIP3    H246931   1.109   0.421  12.095  0.1465 -0.2142  0.8853
 8506TIP3   OH246932   4.424   1.617   1.457 -0.3838  0.1680 -0.3743
 8506TIP3    H146933   4.370   1.693   1.478  0.4302  0.9316 -1.0045
 8506TIP3    H246934   4.458   1.588   1.542  1.1967  1.9657 -0.3319
 8507TIP3   OH246935   0.069   3.618   1.209  0.1129  0.3714 -0.2674
 8507TIP3    H146936   0.046   3.556   1.140  0.3242  0.3549 -0.3248
 8507TIP3    H246937   0.131   3.570   1.264  0.1885  0.4925 -0.2473
 8508TIP3   OH246938   2.760   5.149   0.459  0.3564 -1.1879  0.4556
 8508TIP3    H146939   2.827   5.083   0.473  0.3495 -1.0228  1.3007
 8508TIP3    H246940   2.733   5.175   0.547  1.2177  0.8143  0.1793
 8509TIP3   OH246941   3.735   0.397  10.711 -0.3461  0.4686 -0.1292
 8509TIP3    H146942   3.809   0.457  10.715 -0.1028  0.1277  0.9784
 8509TIP3    H246943   3.747   0.339  10.787 -1.8020  0.4708  0.1440
 8510TIP3   OH246944   5.014   3.302   1.688 -0.0007 -0.5303  0.3108
 8510TIP3    H146945   4.980   3.389   1.668 -1.0118 -0.6286  1.5245
 8510TIP3    H246946   5.046   3.309   1.778  3.8713 -0.2704 -0.9102
 8511TIP3   OH246947   2.499   2.527   5.386 -0.0501 -0.1862 -0.1617
 8511TIP3    H146948   2.539   2.596   5.440 -2.4423  1.0552  0.1823
 8511TIP3    H246949   2.481   2.571   5.302 -1.6838 -0.2951  0.0921
 8512TIP3   OH246950   4.453   4.838   5.149  0.0049  0.1267 -0.2741
 8512TIP3    H146951   4.372   4.838   5.201 -0.1900 -0.1371 -0.5759
 8512TIP3    H246952   4.523   4.830   5.214 -0.1219  1.8017  0.1131
 8513TIP3   OH246953   1.623   2.669   0.431  0.2076  0.4196  0.0922
 8513TIP3    H146954   1.663   2.724   0.498  0.0115  0.1640  0.4194
 8513TIP3    H246955   1.689   2.664   0.361  1.0955 -0.6681  0.9690
 8514TIP3   OH246956   6.201   2.674   2.334  0.0682  0.7883  0.1475
 8514TIP3    H146957   6.200   2.583   2.303  1.3520  0.6766  0.4030
 8514TIP3    H246958   6.115   2.686   2.375 -0.5328  0.0309 -0.8378
 8515TIP3   OH246959   6.709   5.339  13.002 -0.2025  0.3525 -1.0039
 8515TIP3    H146960   6.753   5.255  13.013  1.6592  1.2119 -1.6116
 8515TIP3    H246961   6.651   5.326  12.926 -1.4069 -0.9077  0.0672
 8516TIP3   OH246962   0.656   4.287  10.676  0.4213  0.0984 -0.3640
 8516TIP3    H146963   0.577   4.328  10.640  0.4270 -0.2078 -0.7273
 8516TIP3    H246964   0.720   4.291  10.605  0.4718 -0.3927 -0.3535
 8517TIP3   OH246965   2.992   6.374   5.690  0.6506 -0.1368 -0.1626
 8517TIP3    H146966   2.958   6.309   5.629  1.7581  1.1009 -2.2006
 8517TIP3    H246967   2.919   6.390   5.751 -1.4928  0.4365 -2.7025
 8518TIP3   OH246968   0.018   4.475  15.179  0.4143 -0.1008 -0.1338
 8518TIP3    H146969  -0.059   4.512  15.222 -0.0742 -0.2801 -0.8278
 8518TIP3    H246970   0.089   4.535  15.201 -0.3149  1.1543 -1.0455
 8519TIP3   OH246971   1.088   6.585   5.848 -0.3902  0.1426 -0.4258
 8519TIP3    H146972   1.056   6.550   5.931  1.1443 -0.1850  0.0542
 8519TIP3    H246973   1.053   6.525   5.782 -0.6169 -0.3002  0.0854
 8520TIP3   OH246974   6.689   1.189   1.613 -0.3644 -0.0679  0.0950
 8520TIP3    H146975   6.768   1.219   1.659 -0.3911 -0.1322  0.1831
 8520TIP3    H246976   6.619   1.243   1.647 -0.2570  0.4096 -0.4377
 8521TIP3   OH246977   0.851   2.289   2.839 -0.1697 -0.7747  0.0067
 8521TIP3    H146978   0.888   2.201   2.837  0.2318 -0.6294  0.7725
 8521TIP3    H246979   0.810   2.296   2.925  0.8927  0.2159  0.4670
 8522TIP3   OH246980   1.384   2.526   1.449 -0.1213  0.2653 -0.3772
 8522TIP3    H146981   1.307   2.533   1.393  0.7513 -0.2523 -1.6852
 8522TIP3    H246982   1.348   2.509   1.536 -1.4751 -0.3427 -1.0170
 8523TIP3   OH246983   6.739   6.182  15.599 -0.3680  0.3364 -0.1081
 8523TIP3    H146984   6.787   6.152  15.676 -0.5537  1.0061  0.2802
 8523TIP3    H246985   6.655   6.137  15.604  0.2045 -0.8315 -0.7837
 8524TIP3   OH246986   2.782   0.761   3.607 -0.1581 -0.0665 -0.3092
 8524TIP3    H146987   2.783   0.684   3.551  1.9138 -0.6002  0.3734
 8524TIP3    H246988   2.873   0.770   3.638 -0.6539  1.7879  0.7878
 8525TIP3   OH246989   4.410   0.298  14.035 -0.1559  0.0885  0.5936
 8525TIP3    H146990   4.352   0.292  14.111 -0.6658  0.5631  0.2491
 8525TIP3    H246991   4.441   0.208  14.021 -1.6613 -0.3818  0.1206
 8526TIP3   OH246992   4.247   2.820   5.190  1.0463 -0.4542 -0.8069
 8526TIP3    H146993   4.326   2.782   5.228  0.9066  0.3511  0.3437
 8526TIP3    H246994   4.276   2.905   5.155  0.8432 -0.5017 -1.0950
 8527TIP3   OH246995   2.125   5.726   4.548  0.5808 -0.8526  0.1216
 8527TIP3    H146996   2.218   5.742   4.536  0.6207 -1.0574  0.1485
 8527TIP3    H246997   2.119   5.681   4.632  0.3512  0.1360  0.6435
 8528TIP3   OH246998   2.985   6.641   0.771 -0.0019  0.5370 -0.3006
 8528TIP3    H146999   2.978   6.624   0.865  2.5326  0.8049  0.0155
 8528TIP3    H247000   2.907   6.692   0.750 -1.4789 -0.9276  1.2868
 8529TIP3   OH247001   2.290   1.154   0.989  0.9763 -0.1817 -0.1837
 8529TIP3    H147002   2.301   1.237   1.034  1.5568  0.4981 -1.5065
 8529TIP3    H247003   2.301   1.087   1.057 -1.3913  0.7983  1.2895
 8530TIP3   OH247004   6.461   6.323   4.478 -0.5267 -0.1189 -0.0950
 8530TIP3    H147005   6.410   6.328   4.559  1.7935  5.2780  1.4862
 8530TIP3    H247006   6.428   6.396   4.425  0.6041 -1.1624 -2.3233
 8531TIP3   OH247007   3.306   5.800  14.900  0.0025  0.0572  0.1376
 8531TIP3    H147008   3.313   5.881  14.951 -0.6616  0.5920 -0.6038
 8531TIP3    H247009   3.396   5.768  14.893  0.1133 -0.0473  1.6526
 8532TIP3   OH247010   1.065   4.266   0.192 -0.0436 -0.2837  0.2294
 8532TIP3    H147011   1.073   4.179   0.153 -0.2495 -0.1464 -0.1219
 8532TIP3    H247012   1.008   4.254   0.268  1.8454 -0.9164  1.6334
 8533TIP3   OH247013   4.301   0.593  11.766 -0.2800 -0.2133  0.0528
 8533TIP3    H147014   4.316   0.577  11.673  0.6334 -1.0343  0.3162
 8533TIP3    H247015   4.367   0.658  11.790 -1.0567  0.6125 -0.0490
 8534TIP3   OH247016   3.060   0.657   2.729  0.1096 -0.3310  0.0338
 8534TIP3    H147017   3.142   0.625   2.692  0.4969  0.8425 -0.1698
 8534TIP3    H247018   3.078   0.667   2.823  0.2604  0.0778 -0.0356
 8535TIP3   OH247019   0.577   3.431  12.511  0.2197 -0.1457 -0.4855
 8535TIP3    H147020   0.487   3.447  12.482  0.0292  0.5813  0.4472
 8535TIP3    H247021   0.631   3.453  12.435 -0.2208  2.3921 -0.1493
 8536TIP3   OH247022   2.992   6.064  16.617 -0.1920  0.3132 -0.1892
 8536TIP3    H147023   2.960   6.147  16.653 -0.8836  0.2740 -0.6801
 8536TIP3    H247024   3.067   6.088  16.563 -0.4801  0.6513 -0.4475
 8537TIP3   OH247025   6.375   6.423   2.185  0.6615 -0.8557  0.2336
 8537TIP3    H147026   6.421   6.405   2.103 -0.7206 -1.9347 -0.3299
 8537TIP3    H247027   6.445   6.422   2.251  1.8556  0.4153 -0.9315
 8538TIP3   OH247028   0.963   2.822  15.384  0.9037 -0.1114  0.4693
 8538TIP3    H147029   0.957   2.910  15.346 -3.0347  0.7151  2.4676
 8538TIP3    H247030   1.010   2.835  15.466 -0.8778  0.5459  1.4524
 8539TIP3   OH247031   4.941   2.308  12.582 -0.2700 -0.3131 -0.1718
 8539TIP3    H147032   4.954   2.332  12.490  0.1797 -1.5493 -0.4416
 8539TIP3    H247033   4.930   2.392  12.627 -1.3825  0.2896 -1.4781
 8540TIP3   OH247034   4.406   4.721   4.109  0.0054 -0.0580  0.0007
 8540TIP3    H147035   4.391   4.706   4.203  2.0236  0.7320  0.4984
 8540TIP3    H247036   4.320   4.749   4.076 -0.6855 -0.0758  1.6639
 8541TIP3   OH247037   5.466   0.712   0.662 -0.5349 -0.2954  0.3498
 8541TIP3    H147038   5.400   0.747   0.723 -0.2592  0.3747  0.2644
 8541TIP3    H247039   5.422   0.638   0.621 -1.4386  0.4570 -0.0889
 8542TIP3   OH247040   6.172   6.659  15.984 -0.5242  0.1994  0.3473
 8542TIP3    H147041   6.174   6.664  15.889 -0.4187 -0.7105  0.2849
 8542TIP3    H247042   6.123   6.578  16.002 -0.2740  0.1996  1.0500
 8543TIP3   OH247043   3.756   1.428  11.740 -0.0108 -0.4735 -0.1354
 8543TIP3    H147044   3.767   1.396  11.650  0.5920 -0.0843 -0.2024
 8543TIP3    H247045   3.683   1.490  11.735 -0.9798 -1.5586 -0.0647
 8544TIP3   OH247046   2.158   1.539  12.946  0.2472  0.0410  0.5776
 8544TIP3    H147047   2.195   1.594  13.015 -0.2698  1.1406  0.0189
 8544TIP3    H247048   2.088   1.490  12.989  0.1733  0.4411  0.9194
 8545TIP3   OH247049   0.905   5.972  16.278 -0.1012  0.0733 -0.0616
 8545TIP3    H147050   0.878   5.990  16.188  0.0380  0.3447 -0.0505
 8545TIP3    H247051   0.836   5.917  16.314  0.6009 -1.3504 -0.8135
 8546TIP3   OH247052   1.889   6.680   3.198  0.0526  0.1242  0.2323
 8546TIP3    H147053   1.940   6.622   3.254 -1.0601  0.3843  1.5758
 8546TIP3    H247054   1.805   6.636   3.189 -0.2905  0.8090  0.0156
 8547TIP3   OH247055   2.912   5.699  14.627 -0.4351 -0.4692 -0.4332
 8547TIP3    H147056   2.923   5.605  14.611  0.0114 -0.5199  0.1264
 8547TIP3    H247057   2.915   5.739  14.540  2.0200 -0.7210 -0.5199
 8548TIP3   OH247058   6.462   2.657   5.702 -0.2348 -0.3689 -0.2946
 8548TIP3    H147059   6.535   2.601   5.677 -0.3243  0.4180 -2.4974
 8548TIP3    H247060   6.414   2.606   5.767  1.5132 -1.4463  0.2185
 8549TIP3   OH247061   6.253   0.118  13.702 -0.2832 -0.1342  0.3190
 8549TIP3    H147062   6.204   0.185  13.655  1.8728  0.5865 -1.0436
 8549TIP3    H247063   6.311   0.080  13.636  2.0814  0.1407  2.1289
 8550TIP3   OH247064   6.810   3.086  16.243  0.7429 -0.0836 -0.1711
 8550TIP3    H147065   6.749   3.040  16.301  0.7624 -0.2428 -0.2772
 8550TIP3    H247066   6.897   3.059  16.273  0.8135  1.2254  0.8995
 8551TIP3   OH247067   0.599   1.836   5.445 -0.1683 -0.4150 -0.2427
 8551TIP3    H147068   0.603   1.751   5.402 -1.1084 -0.8873  0.5659
 8551TIP3    H247069   0.536   1.886   5.393  0.9388  0.0696 -1.1602
 8552TIP3   OH247070   1.039   6.678   4.962 -0.7004 -0.1154  0.2202
 8552TIP3    H147071   1.024   6.599   4.910  0.8222 -0.3823  0.1365
 8552TIP3    H247072   0.966   6.680   5.024 -3.0566  0.6651 -2.4150
 8553TIP3   OH247073   2.829   2.247   0.643  0.6484 -0.2825 -0.7486
 8553TIP3    H147074   2.862   2.322   0.594  0.4151  1.6113  1.7652
 8553TIP3    H247075   2.859   2.262   0.733 -1.5908 -1.8188  0.3706
 8554TIP3   OH247076   4.918   0.342   1.671 -0.2917 -0.6848  0.3454
 8554TIP3    H147077   4.896   0.249   1.680 -2.3008 -0.3639 -0.7135
 8554TIP3    H247078   4.986   0.356   1.736 -1.0517 -2.5442  1.6536
 8555TIP3   OH247079   3.931   4.898  13.028 -0.1454 -0.1301 -1.0035
 8555TIP3    H147080   3.940   4.993  13.028  0.1746 -0.1564 -0.6265
 8555TIP3    H247081   4.021   4.866  13.030 -0.1980 -0.4109  1.9371
 8556TIP3   OH247082   3.638   6.053  14.997 -0.0605 -0.2304  0.1133
 8556TIP3    H147083   3.545   6.033  14.995 -0.1075  0.0328 -1.3683
 8556TIP3    H247084   3.642   6.147  15.010 -0.0284 -0.1329 -0.5738
 8557TIP3   OH247085   4.660   4.417   1.797  0.0765 -0.3436 -0.1118
 8557TIP3    H147086   4.610   4.336   1.809 -1.3085  0.6704  1.3631
 8557TIP3    H247087   4.677   4.421   1.703 -1.9777 -1.1257 -0.5608
 8558TIP3   OH247088   0.167   2.427   2.843  0.6057 -0.1110 -0.7420
 8558TIP3    H147089   0.221   2.421   2.922 -0.3139  0.2661 -0.0735
 8558TIP3    H247090   0.142   2.519   2.838  1.7545  0.1568 -2.2366
 8559TIP3   OH247091   5.961   3.434  11.439  0.8984 -0.2254  0.3863
 8559TIP3    H147092   5.932   3.456  11.528 -1.7117  0.2911 -0.5281
 8559TIP3    H247093   6.010   3.352  11.450  0.6076 -0.2045  2.2881
 8560TIP3   OH247094   3.416   5.717   3.605 -0.2765 -0.0925 -0.1406
 8560TIP3    H147095   3.414   5.703   3.510  2.1868 -0.7200 -0.1498
 8560TIP3    H247096   3.507   5.704   3.630 -0.7766  0.5259  2.2739
 8561TIP3   OH247097   4.908   0.831   3.815 -0.0926 -0.9757 -0.4525
 8561TIP3    H147098   4.879   0.869   3.731 -1.6515  0.4624  0.6679
 8561TIP3    H247099   4.996   0.865   3.827 -0.2586 -0.3227 -1.0124
 8562TIP3   OH247100   6.384   1.634   1.840  0.1176  0.4312  0.2875
 8562TIP3    H147101   6.347   1.721   1.825 -1.8531 -0.6375 -1.7328
 8562TIP3    H247102   6.403   1.601   1.752  0.5972 -1.2672  0.9922
 8563TIP3   OH247103   4.065   5.235  16.878  0.9133 -0.7787  0.2190
 8563TIP3    H147104   3.971   5.251  16.884  0.5096 -2.5169 -0.6178
 8563TIP3    H247105   4.098   5.251  16.966 -0.0131  0.6229  0.3393
 8564TIP3   OH247106   5.965   5.487  12.951  1.0387 -0.6193  0.1226
 8564TIP3    H147107   6.048   5.519  12.917  0.4564 -1.2478 -2.0211
 8564TIP3    H247108   5.989   5.437  13.029  2.6082 -0.3537 -0.1556
 8565TIP3   OH247109   5.620   2.703  10.677  0.0355 -0.4861 -0.4334
 8565TIP3    H147110   5.589   2.706  10.767  0.1252  0.0051 -0.4174
 8565TIP3    H247111   5.662   2.618  10.669  2.2962  0.4187  0.7465
 8566TIP3   OH247112   0.029   2.001   0.733  0.1222 -0.0483 -0.1119
 8566TIP3    H147113  -0.065   2.019   0.730 -0.2258 -1.7823 -0.3913
 8566TIP3    H247114   0.059   2.048   0.811 -1.4879 -1.6234  1.5733
 8567TIP3   OH247115   1.541   5.080   2.292 -0.0248 -0.1379  0.1155
 8567TIP3    H147116   1.587   5.152   2.334  1.1457 -0.8429  0.0899
 8567TIP3    H247117   1.472   5.057   2.353 -0.2870  0.8616  0.2165
 8568TIP3   OH247118   5.135   3.726   4.267  0.1630 -0.2673 -0.2527
 8568TIP3    H147119   5.123   3.690   4.355 -1.0732 -0.0526 -0.3070
 8568TIP3    H247120   5.103   3.816   4.273  1.0824  0.0925 -0.6664
 8569TIP3   OH247121   4.942   1.563  14.773 -0.0347 -0.1725 -0.3832
 8569TIP3    H147122   5.003   1.605  14.835 -2.9031  1.8182  1.3224
 8569TIP3    H247123   4.960   1.607  14.690 -0.3117  1.7190  0.5035
 8570TIP3   OH247124   1.908   2.517  15.853 -0.0994  0.2607  0.6695
 8570TIP3    H147125   1.941   2.605  15.834  0.8573 -0.0227  0.9207
 8570TIP3    H247126   1.927   2.467  15.774 -0.7812  0.3123  0.4704
 8571TIP3   OH247127   2.524   6.276  12.544 -0.0793  0.3977  0.6428
 8571TIP3    H147128   2.594   6.218  12.516 -1.7459 -1.3850 -0.0843
 8571TIP3    H247129   2.565   6.362  12.552  1.7521 -0.1653 -1.6640
 8572TIP3   OH247130   5.754   6.250  11.348  0.2880 -0.1257  0.1826
 8572TIP3    H147131   5.839   6.220  11.316  0.8462  1.7469 -0.2277
 8572TIP3    H247132   5.764   6.253  11.444  0.2603 -1.0535  0.2226
 8573TIP3   OH247133   6.555   6.700  14.176 -0.6591  0.7548 -0.0416
 8573TIP3    H147134   6.492   6.630  14.190  1.2086 -1.1687 -0.7033
 8573TIP3    H247135   6.506   6.767  14.129 -1.9530 -1.1747 -1.6330
 8574TIP3   OH247136   5.709   1.800  12.553  0.4469  0.4083  0.1759
 8574TIP3    H147137   5.795   1.763  12.569  0.5947 -0.0107 -1.4159
 8574TIP3    H247138   5.667   1.803  12.639  2.2545  1.1906  1.0792
 8575TIP3   OH247139   3.977   1.480  16.739  0.0435  0.5487 -0.2281
 8575TIP3    H147140   4.005   1.508  16.652  1.4050 -0.1192 -0.0264
 8575TIP3    H247141   4.042   1.416  16.767 -1.6673 -1.0536  0.3126
 8576TIP3   OH247142   3.564   5.200  12.043 -0.4527 -0.2957  0.0162
 8576TIP3    H147143   3.531   5.255  12.114 -0.7781  0.6206 -0.8196
 8576TIP3    H247144   3.496   5.134  12.030  0.5237 -1.7642  1.9058
 8577TIP3   OH247145   2.499   0.694   5.897 -0.2494  0.1618 -0.4588
 8577TIP3    H147146   2.592   0.699   5.920 -0.2775  0.2187 -0.3572
 8577TIP3    H247147   2.454   0.686   5.981 -0.3134 -0.2358 -0.5245
 8578TIP3   OH247148   0.829   0.622   6.314 -0.7645  0.1000 -0.3239
 8578TIP3    H147149   0.881   0.655   6.241  0.6534 -1.1225  0.0696
 8578TIP3    H247150   0.743   0.604   6.276 -0.5646  1.0654 -1.2785
 8579TIP3   OH247151   3.712   2.337  15.226  0.0057 -0.3596  0.0870
 8579TIP3    H147152   3.785   2.331  15.287  0.7903 -1.9207 -0.9461
 8579TIP3    H247153   3.750   2.317  15.140 -1.4247 -0.0909 -0.6469
 8580TIP3   OH247154   2.211   4.190   3.115  0.1429  0.4126 -0.6220
 8580TIP3    H147155   2.150   4.221   3.049 -1.0849 -2.0130 -0.7218
 8580TIP3    H247156   2.197   4.248   3.190 -0.2627  1.5968 -1.5809
 8581TIP3   OH247157   4.967   1.890  13.442  0.2369  0.2005  0.2518
 8581TIP3    H147158   5.027   1.843  13.384  0.7571  1.7572 -0.5137
 8581TIP3    H247159   4.881   1.854  13.420  0.2732  1.4648 -2.2984
 8582TIP3   OH247160   5.134   3.982  13.345  0.7386  0.4688 -0.1247
 8582TIP3    H147161   5.172   3.974  13.432  0.5186  0.9724  0.0190
 8582TIP3    H247162   5.117   3.891  13.318  0.9990  0.3001  0.2652
 8583TIP3   OH247163   2.403   4.076   4.393  0.5332  0.1558 -0.3836
 8583TIP3    H147164   2.321   4.028   4.381 -0.1603  0.9232  1.0109
 8583TIP3    H247165   2.421   4.114   4.307 -1.5869  1.5010 -0.2984
 8584TIP3   OH247166   5.103   2.214  15.764  0.1469  0.2441  0.3622
 8584TIP3    H147167   5.022   2.167  15.745 -0.8308  1.1972  1.9005
 8584TIP3    H247168   5.092   2.299  15.721  0.8146 -0.0084 -0.3212
 8585TIP3   OH247169   2.138   3.181   3.584 -0.8045  0.0972 -0.1669
 8585TIP3    H147170   2.153   3.213   3.495  1.1702 -3.0650 -1.1450
 8585TIP3    H247171   2.209   3.218   3.635 -0.1136 -0.5210 -0.6596
 8586TIP3   OH247172   2.620   4.149   2.800  0.2209 -0.1320 -0.6982
 8586TIP3    H147173   2.651   4.204   2.871  0.3466  0.3176 -1.1009
 8586TIP3    H247174   2.535   4.116   2.830 -0.5936  1.5312 -1.0892
 8587TIP3   OH247175   5.075   4.639  15.151 -0.0687 -0.1114  0.3105
 8587TIP3    H147176   5.124   4.561  15.126 -0.5879 -1.0167  1.9571
 8587TIP3    H247177   5.062   4.687  15.069 -0.5899 -2.2500 -0.9358
 8588TIP3   OH247178   2.245   6.725   0.825 -0.0534  0.3788  0.5952
 8588TIP3    H147179   2.299   6.735   0.903 -0.2882  3.1321  0.5014
 8588TIP3    H247180   2.158   6.705   0.859  0.2889 -0.6967  0.8913
 8589TIP3   OH247181   3.965   4.841   4.656  0.4189 -0.4456  0.1956
 8589TIP3    H147182   3.879   4.843   4.615  2.0213  0.9958 -3.5257
 8589TIP3    H247183   3.963   4.914   4.719 -0.7345  0.2447 -0.6112
 8590TIP3   OH247184   1.754   6.692  11.446  0.2687  0.6570  0.3338
 8590TIP3    H147185   1.718   6.770  11.487 -0.0473  0.5940  0.1822
 8590TIP3    H247186   1.680   6.632  11.440  0.4857  0.3841  0.3565
 8591TIP3   OH247187   5.554   4.955   5.840 -0.0213  0.2843 -0.0645
 8591TIP3    H147188   5.531   4.883   5.780 -2.7998  0.7364  0.3197
 8591TIP3    H247189   5.589   4.911   5.917 -1.5839 -0.7188  0.1268
 8592TIP3   OH247190   0.582   5.551   5.709 -0.0785  0.1644  0.1245
 8592TIP3    H147191   0.635   5.475   5.733 -1.2697 -1.0069 -0.8128
 8592TIP3    H247192   0.500   5.514   5.677 -1.2451  1.9055  0.9487
 8593TIP3   OH247193   3.152   5.582  15.545  0.2854  0.4682 -0.1974
 8593TIP3    H147194   3.231   5.538  15.576 -1.1038 -1.9757  0.1349
 8593TIP3    H247195   3.133   5.647  15.612  1.0428 -0.1304  0.6232
 8594TIP3   OH247196   3.325   5.154   4.005  0.9032 -0.0513  0.4287
 8594TIP3    H147197   3.311   5.248   4.008 -0.0011 -0.1858  0.9204
 8594TIP3    H247198   3.335   5.128   4.096  0.0180 -0.5734  0.3889
 8595TIP3   OH247199   4.871   5.336  13.328 -0.2972  0.2764  0.7017
 8595TIP3    H147200   4.935   5.298  13.267 -2.3817  0.4262 -1.7684
 8595TIP3    H247201   4.893   5.429  13.330  0.5034  0.0897  1.1482
 8596TIP3   OH247202   3.147   0.705  11.458  0.7635 -0.2174 -0.0159
 8596TIP3    H147203   3.203   0.764  11.508  0.8981  0.1626 -0.6007
 8596TIP3    H247204   3.063   0.707  11.503  1.1608 -0.6462  0.7587
 8597TIP3   OH247205   2.604   4.199  11.661 -0.2287 -0.1610 -0.0957
 8597TIP3    H147206   2.646   4.124  11.702 -0.3298  0.1968  0.6802
 8597TIP3    H247207   2.655   4.214  11.581 -1.9338 -2.7988 -1.8107
 8598TIP3   OH247208   5.602   0.121   2.826 -0.1596 -0.5378 -0.0872
 8598TIP3    H147209   5.556   0.127   2.909  0.5880  0.5485  0.2740
 8598TIP3    H247210   5.556   0.181   2.768  0.5942  0.3421  0.1949
 8599TIP3   OH247211   1.367   6.730  14.752  0.2798  0.0347 -0.1512
 8599TIP3    H147212   1.356   6.784  14.831 -0.6446  0.2386 -0.4072
 8599TIP3    H247213   1.317   6.776  14.685  0.3294 -0.6059 -0.6331
 8600TIP3   OH247214   3.916   0.185   3.482  0.6624 -0.1613 -0.2030
 8600TIP3    H147215   3.930   0.269   3.438 -0.8354  0.5104  0.5080
 8600TIP3    H247216   3.991   0.174   3.540  1.3910  0.1648 -1.0728
 8601TIP3   OH247217   3.309   2.779   2.755 -0.0336  0.3117 -0.4067
 8601TIP3    H147218   3.334   2.871   2.756 -2.4624  1.0469 -1.3031
 8601TIP3    H247219   3.320   2.751   2.665 -0.0643 -0.0432 -0.3034
 8602TIP3   OH247220   0.740   3.669   3.269 -0.2362  0.2985 -0.0192
 8602TIP3    H147221   0.677   3.662   3.341 -0.1601  1.2449  0.1473
 8602TIP3    H247222   0.816   3.712   3.308 -0.6959  2.0498 -0.9558
 8603TIP3   OH247223   2.759   4.224  15.812 -0.0138  0.2804  0.4032
 8603TIP3    H147224   2.752   4.133  15.783 -2.7611  0.2397  1.0009
 8603TIP3    H247225   2.781   4.272  15.732 -0.7025 -0.6548 -0.3724
 8604TIP3   OH247226   4.862   5.891  11.909 -0.1709  0.8602  0.5654
 8604TIP3    H147227   4.792   5.957  11.898 -1.6253 -0.4178  1.7014
 8604TIP3    H247228   4.881   5.892  12.003 -0.1179 -0.2398  0.5719
 8605TIP3   OH247229   3.616   5.207  11.388 -0.3577  0.3179  0.4535
 8605TIP3    H147230   3.599   5.210  11.294 -1.4254  2.4214  0.6568
 8605TIP3    H247231   3.589   5.119  11.415 -1.5577  0.2358 -0.9337
 8606TIP3   OH247232   3.536   5.504   2.632  0.1044  0.3776  0.5583
 8606TIP3    H147233   3.567   5.569   2.570  0.5611 -0.3255  0.0273
 8606TIP3    H247234   3.615   5.462   2.665 -0.2109 -0.4915  0.2409
 8607TIP3   OH247235   1.889   2.468  11.158 -0.1492 -0.1866 -1.1118
 8607TIP3    H147236   1.859   2.382  11.128  0.8361 -0.4880 -1.2739
 8607TIP3    H247237   1.814   2.525  11.146 -0.9644 -1.1278 -0.5697
 8608TIP3   OH247238   4.893   3.231  11.587 -0.4570 -0.2903  0.0841
 8608TIP3    H147239   4.919   3.295  11.652 -0.4984  0.8742 -1.0031
 8608TIP3    H247240   4.935   3.150  11.614  2.3817  0.9563 -0.3024
 8609TIP3   OH247241   5.533   2.637   3.668 -0.3022 -0.1352  0.3936
 8609TIP3    H147242   5.620   2.678   3.669 -0.3813  0.1721 -1.5776
 8609TIP3    H247243   5.550   2.544   3.684  0.3292 -0.0143  0.4557
 8610TIP3   OH247244   6.723   5.780   3.808  0.4533  0.3271  0.3259
 8610TIP3    H147245   6.745   5.858   3.756 -0.0350  0.6455  0.5803
 8610TIP3    H247246   6.785   5.781   3.881  1.5360 -0.4575 -0.5585
 8611TIP3   OH247247   1.911   2.409  11.868 -0.0921  0.6799 -0.7994
 8611TIP3    H147248   1.967   2.481  11.841 -0.2588  1.3516  0.5902
 8611TIP3    H247249   1.834   2.451  11.905 -0.3062 -0.2149 -0.2027
 8612TIP3   OH247250   4.217   2.359   0.816  0.4711 -0.2957 -0.3449
 8612TIP3    H147251   4.308   2.351   0.787  0.6304 -0.0987  0.0904
 8612TIP3    H247252   4.178   2.274   0.796  0.9214 -0.6002  0.0408
 8613TIP3   OH247253   3.935   5.262  15.565  0.3460 -0.2453 -0.2239
 8613TIP3    H147254   4.026   5.284  15.586 -0.3684  1.6935  1.0774
 8613TIP3    H247255   3.915   5.186  15.620  1.5165 -1.5321 -1.4848
 8614TIP3   OH247256   2.633   3.219   6.219 -0.3654 -0.4276 -0.1570
 8614TIP3    H147257   2.650   3.260   6.134 -2.9061 -2.4875 -1.8068
 8614TIP3    H247258   2.695   3.147   6.225  0.1662  0.0408 -0.0061
 8615TIP3   OH247259   5.255   4.070  14.223  0.2619  0.1394 -0.1862
 8615TIP3    H147260   5.200   3.993  14.208  0.5618 -0.0348 -0.4219
 8615TIP3    H247261   5.193   4.142  14.231 -0.0031 -0.0513 -0.4636
 8616TIP3   OH247262   4.461   2.008  12.684 -0.2691 -0.3895 -0.1579
 8616TIP3    H147263   4.397   2.080  12.681 -0.2532 -0.3416  0.5043
 8616TIP3    H247264   4.539   2.044  12.642 -0.9656 -0.7680 -1.8653
 8617TIP3   OH247265   2.174   6.072  15.509 -0.2103 -0.3683  0.0693
 8617TIP3    H147266   2.264   6.042  15.518  0.4262  0.8383 -1.7472
 8617TIP3    H247267   2.136   6.017  15.441 -1.6163 -2.3546  2.3131
 8618TIP3   OH247268   6.812   3.463   2.362  0.6158  0.0283 -0.2110
 8618TIP3    H147269   6.755   3.418   2.300 -1.3345 -0.8061  2.0289
 8618TIP3    H247270   6.807   3.555   2.337 -2.1149  0.0528  0.0893
 8619TIP3   OH247271   3.273   4.079  12.387  0.2195  0.0230  0.1599
 8619TIP3    H147272   3.208   4.130  12.340  0.0765 -0.7017 -0.4535
 8619TIP3    H247273   3.234   3.992  12.396  1.0036 -0.3588 -0.0075
 8620TIP3   OH247274   5.059   1.158  14.549  0.3933  0.0698  0.0570
 8620TIP3    H147275   5.028   1.122  14.466 -0.2258  2.4275 -0.8183
 8620TIP3    H247276   4.982   1.156  14.606  0.2439  0.3943 -0.1312
 8621TIP3   OH247277   3.978   3.498  11.538  0.9339  0.4603  0.1627
 8621TIP3    H147278   3.919   3.573  11.535  1.8200  1.2366  1.1641
 8621TIP3    H247279   4.064   3.534  11.516  1.5418 -0.0515  1.5822
 8622TIP3   OH247280   2.412   4.366  10.489  0.0611  0.3868  0.0898
 8622TIP3    H147281   2.463   4.329  10.561 -1.0218  0.6922  1.0434
 8622TIP3    H247282   2.406   4.459  10.509  1.4579  0.8690 -1.4838
 8623TIP3   OH247283   4.065   1.474   0.667  0.1060  0.3047 -0.2319
 8623TIP3    H147284   4.021   1.405   0.617  0.8114  0.3283 -0.9051
 8623TIP3    H247285   4.158   1.460   0.650  0.3054  0.8336  0.4104
 8624TIP3   OH247286   2.583   0.446   3.885  0.2393  0.2583 -0.3216
 8624TIP3    H147287   2.620   0.496   3.957  0.1290 -1.1112  0.7361
 8624TIP3    H247288   2.542   0.511   3.828 -2.5660  1.2026  2.5198
 8625TIP3   OH247289   6.148   2.542   1.040  0.2671  0.4410 -0.1032
 8625TIP3    H147290   6.131   2.636   1.040  0.7342  0.5507  1.2854
 8625TIP3    H247291   6.177   2.523   1.129 -0.6182 -1.1681 -0.1267
 8626TIP3   OH247292   0.815   0.176   0.583 -0.4688  0.2197  0.3099
 8626TIP3    H147293   0.724   0.175   0.613 -0.9228  0.6530 -1.0222
 8626TIP3    H247294   0.846   0.086   0.598 -1.7486 -0.4956 -1.0789
 8627TIP3   OH247295   0.020   5.166  16.018 -0.0841  0.0618  0.0513
 8627TIP3    H147296   0.040   5.096  16.079  2.1295 -1.6045 -2.3334
 8627TIP3    H247297  -0.071   5.152  15.994  0.3907 -2.3333 -0.6384
 8628TIP3   OH247298   1.940   5.177   2.098 -0.3342 -0.4013  0.1916
 8628TIP3    H147299   1.845   5.170   2.097 -0.3270 -0.5526 -1.1392
 8628TIP3    H247300   1.959   5.264   2.064 -0.0120  0.0289  1.4429
 8629TIP3   OH247301   5.930   4.926  11.216 -0.0747  0.0655  0.0874
 8629TIP3    H147302   5.953   5.013  11.183  3.5161  0.2184  2.3130
 8629TIP3    H247303   5.966   4.865  11.151 -0.2115  0.2821 -0.1916
 8630TIP3   OH247304   4.069   3.682   2.053  0.3718 -0.6095  0.0740
 8630TIP3    H147305   4.027   3.702   2.137  2.2608  1.5825  0.5945
 8630TIP3    H247306   3.997   3.673   1.991 -0.9783  0.2702  1.4496
 8631TIP3   OH247307   0.121   3.673   4.884 -0.2095 -0.1684 -0.3959
 8631TIP3    H147308   0.059   3.607   4.916 -0.1348 -0.8324 -1.5449
 8631TIP3    H247309   0.206   3.646   4.919 -0.6126  1.0735  1.6684
 8632TIP3   OH247310   3.030   6.712  12.945 -0.1353  0.2378  0.0054
 8632TIP3    H147311   2.945   6.716  12.988  0.0986 -0.4355  0.5509
 8632TIP3    H247312   3.017   6.756  12.861 -0.5083  1.9264  0.9039
 8633TIP3   OH247313   1.327   5.594   0.486  0.6906 -0.1839 -0.1942
 8633TIP3    H147314   1.268   5.593   0.411 -0.0081  2.6799  0.1916
 8633TIP3    H247315   1.403   5.543   0.457 -0.8441 -1.8191 -1.6289
 8634TIP3   OH247316   6.442   5.208   5.319 -0.1570 -0.4532 -0.4446
 8634TIP3    H147317   6.525   5.168   5.343  0.0687 -0.2099 -0.8119
 8634TIP3    H247318   6.463   5.299   5.299 -0.7516  0.0178  0.9143
 8635TIP3   OH247319   6.463   3.381  16.546 -0.2696  0.2034  0.2191
 8635TIP3    H147320   6.558   3.373  16.532 -0.0093  1.0552  1.3759
 8635TIP3    H247321   6.429   3.413  16.462  0.4708 -0.0647 -0.1913
 8636TIP3   OH247322   4.491   4.731  14.796  0.2192  0.0836  0.0529
 8636TIP3    H147323   4.513   4.752  14.887  1.5616 -1.0845  0.0385
 8636TIP3    H247324   4.415   4.785  14.776 -1.5305 -1.2400  2.6099
 8637TIP3   OH247325   6.568   0.424   5.071  0.0601  0.4131  0.2746
 8637TIP3    H147326   6.657   0.424   5.107  0.0378 -0.4693  0.3538
 8637TIP3    H247327   6.528   0.503   5.106  0.4118  0.1657  1.2585
 8638TIP3   OH247328   0.775   1.369  16.271  0.0108 -0.7459 -0.0918
 8638TIP3    H147329   0.838   1.409  16.211  0.3323 -1.1151 -0.0102
 8638TIP3    H247330   0.700   1.428  16.271  0.8513  0.3697  0.7738
 8639TIP3   OH247331   5.056   3.535  12.189  0.6697 -0.1527  0.3463
 8639TIP3    H147332   5.110   3.571  12.260  0.7694 -2.2733  1.4237
 8639TIP3    H247333   5.031   3.611  12.137  2.1806  1.2502  1.5650
 8640TIP3   OH247334   2.285   3.891  15.974 -0.4777 -0.1439  0.1287
 8640TIP3    H147335   2.270   3.986  15.977  1.3499  0.1900  0.1451
 8640TIP3    H247336   2.200   3.852  15.994 -1.2293  1.4975  0.2708
 8641TIP3   OH247337   1.794   5.456  14.521 -0.4378  0.1777  0.0805
 8641TIP3    H147338   1.782   5.437  14.427 -0.3038 -0.2816  0.1552
 8641TIP3    H247339   1.888   5.447  14.536 -0.2085  1.8548 -0.0771
 8642TIP3   OH247340   0.921   5.267   5.973 -0.1357 -0.1384  0.6173
 8642TIP3    H147341   0.899   5.360   5.963 -1.1269 -0.4180 -0.0328
 8642TIP3    H247342   1.016   5.265   5.978 -0.0201  0.8162 -0.6775
 8643TIP3   OH247343   6.374   4.469   5.540  0.1907  0.2058  0.2630
 8643TIP3    H147344   6.387   4.384   5.583  0.4003 -0.8370 -1.7148
 8643TIP3    H247345   6.448   4.477   5.480  0.6109  2.2009  0.9748
 8644TIP3   OH247346   4.841   3.015   4.890 -0.2558  0.1442  0.1079
 8644TIP3    H147347   4.825   2.922   4.877 -0.1061  0.0454  0.6091
 8644TIP3    H247348   4.935   3.021   4.906 -0.4818  0.1973  1.5436
 8645TIP3   OH247349   2.717   6.613  10.517  0.3881  0.3697  0.4070
 8645TIP3    H147350   2.807   6.636  10.495  0.4626 -0.6954 -0.4708
 8645TIP3    H247351   2.668   6.629  10.436 -0.6875  3.1375  1.4809
 8646TIP3   OH247352   3.029   5.588   2.721 -0.0088  0.1228  0.5348
 8646TIP3    H147353   3.112   5.581   2.674  0.3548  0.7820  1.0482
 8646TIP3    H247354   3.042   5.538   2.801  0.0234  0.5251  0.7832
 8647TIP3   OH247355   1.947   5.782  14.025  0.3771  0.2274 -0.0750
 8647TIP3    H147356   2.014   5.731  14.069  1.4821  0.0569 -1.8665
 8647TIP3    H247357   1.983   5.801  13.938 -1.6034  0.7059 -0.8654
 8648TIP3   OH247358   0.372   5.175   3.139 -0.1246 -1.1774 -0.2767
 8648TIP3    H147359   0.448   5.151   3.087 -0.2464 -1.8853 -0.1442
 8648TIP3    H247360   0.409   5.205   3.223  0.0483 -0.4767 -0.5953
 8649TIP3   OH247361   1.142   1.026  14.501 -0.2483  0.1157 -0.2574
 8649TIP3    H147362   1.231   0.992  14.507 -0.5083 -0.4875  0.2313
 8649TIP3    H247363   1.134   1.057  14.411  0.9502  1.5598  0.0858
 8650TIP3   OH247364   0.842   0.741   1.695  0.0193 -0.0213 -0.3543
 8650TIP3    H147365   0.747   0.737   1.680  0.0520  0.7443 -0.8712
 8650TIP3    H247366   0.857   0.687   1.772 -1.1719  1.6843  1.1660
 8651TIP3   OH247367   4.869   2.011   3.125 -0.5526  0.1150  0.6124
 8651TIP3    H147368   4.939   1.950   3.098 -1.0770  0.1745 -1.0041
 8651TIP3    H247369   4.915   2.082   3.170  0.9259  1.6638 -2.9153
 8652TIP3   OH247370   5.339   3.244   1.893 -0.2601  0.3659  0.1685
 8652TIP3    H147371   5.410   3.243   1.956 -0.8404  0.0214  0.8373
 8652TIP3    H247372   5.371   3.296   1.820  0.7439  0.0518  0.3749
 8653TIP3   OH247373   2.935   1.774   2.184 -0.6363 -0.0299 -0.0341
 8653TIP3    H147374   2.884   1.695   2.204 -0.5419 -0.3107 -0.8522
 8653TIP3    H247375   3.001   1.745   2.121  0.2783  0.4259  0.6907
 8654TIP3   OH247376   4.439   6.273  11.581  0.4812 -0.2829  0.1746
 8654TIP3    H147377   4.469   6.356  11.543  0.1742  0.3421  1.2468
 8654TIP3    H247378   4.423   6.294  11.673 -1.1682 -1.1315  0.1003
 8655TIP3   OH247379   2.222   3.496  14.811  0.1586  0.1916 -0.0410
 8655TIP3    H147380   2.208   3.581  14.852  0.9253 -0.1264  0.9312
 8655TIP3    H247381   2.134   3.459  14.800 -0.1514  0.9494 -0.1386
 8656TIP3   OH247382   3.347   2.689   5.111 -0.1789  0.5343 -0.3704
 8656TIP3    H147383   3.435   2.652   5.111 -0.2017  0.4695 -1.2271
 8656TIP3    H247384   3.359   2.778   5.143  0.1975  0.5339 -0.5031
 8657TIP3   OH247385   0.277   6.515   1.562  0.0919  0.7529 -0.4234
 8657TIP3    H147386   0.223   6.593   1.571  1.0504  1.5172 -1.0565
 8657TIP3    H247387   0.339   6.536   1.492  1.5059  0.0936  0.5666
 8658TIP3   OH247388   5.636   2.401   6.475  0.2287  0.0883 -0.0103
 8658TIP3    H147389   5.547   2.409   6.440  0.4613 -1.1366 -0.9452
 8658TIP3    H247390   5.662   2.311   6.454  1.0680 -0.1120  1.7647
 8659TIP3   OH247391   2.171   3.556   1.417  0.3105  0.5953 -0.4979
 8659TIP3    H147392   2.219   3.529   1.496 -0.4884 -1.4499 -0.6504
 8659TIP3    H247393   2.114   3.482   1.397 -0.8877  1.8367 -1.9358
 8660TIP3   OH247394   4.691   2.837  11.495 -0.1021  0.0980  0.2871
 8660TIP3    H147395   4.603   2.853  11.531  0.1056 -0.3825  1.0291
 8660TIP3    H247396   4.677   2.833  11.401 -0.7560  0.8131  0.3400
 8661TIP3   OH247397   4.675   4.791   4.104  0.0139 -0.3322  0.4789
 8661TIP3    H147398   4.692   4.885   4.107 -0.8197  0.0689 -3.3463
 8661TIP3    H247399   4.582   4.782   4.123 -0.1966 -0.2331 -0.4903
 8662TIP3   OH247400   5.677   5.572  12.213  0.1062 -0.1326 -0.3701
 8662TIP3    H147401   5.623   5.624  12.153  0.0263 -0.1231 -0.2908
 8662TIP3    H247402   5.614   5.521  12.264  0.1433  0.2595  0.0781
 8663TIP3   OH247403   5.985   1.388   5.710 -0.3087 -0.5655 -0.0911
 8663TIP3    H147404   6.010   1.306   5.667  0.3283  0.0002 -0.8089
 8663TIP3    H247405   5.919   1.361   5.774 -1.5561 -1.3763 -1.6606
 8664TIP3   OH247406   4.301   0.796  10.941 -0.0226 -0.3018  0.3506
 8664TIP3    H147407   4.207   0.783  10.931 -0.0306  0.5239 -0.8642
 8664TIP3    H247408   4.316   0.888  10.919  0.9212 -0.0681  1.7985
 8665TIP3   OH247409   1.442   6.241  16.316 -0.5659  0.2351 -0.4784
 8665TIP3    H147410   1.372   6.215  16.256 -1.2276 -0.7233  0.6463
 8665TIP3    H247411   1.523   6.212  16.274 -0.8885  0.7327 -1.4773
 8666TIP3   OH247412   2.185   2.156  10.275 -0.0505  0.2885  0.7399
 8666TIP3    H147413   2.192   2.064  10.248 -0.1723  0.4783  0.0435
 8666TIP3    H247414   2.097   2.182  10.248 -0.3765  0.3508  1.7901
 8667TIP3   OH247415   1.317   0.541  15.991 -0.2952 -0.1931  0.1575
 8667TIP3    H147416   1.348   0.534  16.081  1.5227  3.1310 -0.0247
 8667TIP3    H247417   1.232   0.584  15.998 -0.3478 -0.3242  0.3228
 8668TIP3   OH247418   4.350   5.146  11.754  0.0444  0.0711  0.5141
 8668TIP3    H147419   4.351   5.099  11.837 -0.1464 -1.1064 -0.1259
 8668TIP3    H247420   4.257   5.159  11.735  0.0987  0.7787  0.7227
 8669TIP3   OH247421   5.197   1.095  12.679  1.0464  0.1605  0.1084
 8669TIP3    H147422   5.212   1.054  12.765 -2.2717 -2.3313 -0.2833
 8669TIP3    H247423   5.277   1.077  12.630  2.0216 -0.6617  1.8767
 8670TIP3   OH247424   6.624   1.335   1.137  0.1977  0.2891 -0.8897
 8670TIP3    H147425   6.646   1.245   1.114  0.6634  0.5322 -1.4153
 8670TIP3    H247426   6.653   1.387   1.062  0.7122  0.9694 -0.2310
 8671TIP3   OH247427   5.376   6.561   0.803  0.6306 -0.3801 -0.3488
 8671TIP3    H147428   5.292   6.607   0.791  0.4954 -0.2221  1.0667
 8671TIP3    H247429   5.357   6.471   0.778 -0.2747 -0.5890  0.9950
 8672TIP3   OH247430   3.045   0.213  14.039 -0.5326 -0.0648  0.2979
 8672TIP3    H147431   2.997   0.153  13.981 -0.0560  0.4159 -0.6168
 8672TIP3    H247432   2.980   0.239  14.104 -1.0963 -0.5923 -0.0331
 8673TIP3   OH247433   5.903   4.355  13.606  0.0337 -0.0941  0.0560
 8673TIP3    H147434   5.907   4.386  13.515 -0.3841 -0.4048 -0.0700
 8673TIP3    H247435   5.863   4.268  13.600 -2.6314  0.9854  0.7852
 8674TIP3   OH247436   0.976   1.922   1.129  0.0796 -0.1063  0.0392
 8674TIP3    H147437   1.035   1.922   1.053  2.1374  2.0951  1.4551
 8674TIP3    H247438   0.899   1.971   1.100 -0.4290 -1.6438 -1.3713
 8675TIP3   OH247439   6.118   3.963  13.512  0.4926  0.7642 -0.2077
 8675TIP3    H147440   6.190   4.020  13.539  1.3006 -0.0899 -0.5097
 8675TIP3    H247441   6.137   3.879  13.554  1.4626 -0.4375 -2.8178
 8676TIP3   OH247442   2.023   0.915   1.588 -0.1725  0.1672 -0.1016
 8676TIP3    H147443   1.993   1.006   1.589 -2.1689 -0.4150 -1.2518
 8676TIP3    H247444   2.049   0.897   1.678 -3.8136  0.6373  1.1746
 8677TIP3   OH247445   3.699   6.097   3.586 -0.8666 -0.0359 -0.1294
 8677TIP3    H147446   3.792   6.107   3.565 -0.6724  0.3588  0.8708
 8677TIP3    H247447   3.659   6.064   3.505  0.3705 -1.4703 -0.1900
 8678TIP3   OH247448   3.190   2.071   3.978  0.5875 -0.0773  0.7326
 8678TIP3    H147449   3.180   2.060   3.883  1.1361 -0.9164  0.7610
 8678TIP3    H247450   3.264   2.130   3.988  1.3636 -1.0161  0.6440
 8679TIP3   OH247451   0.815   0.060  13.231  0.1294  0.1957  0.2851
 8679TIP3    H147452   0.827   0.057  13.136 -0.4990  0.3798  0.1970
 8679TIP3    H247453   0.752   0.131  13.246 -1.4831 -1.2176  0.6347
 8680TIP3   OH247454   4.553   2.957  15.850  0.4077  0.1388  0.4594
 8680TIP3    H147455   4.555   3.023  15.919 -1.8880 -0.6018  1.3467
 8680TIP3    H247456   4.568   2.874  15.895 -2.8705 -0.5567  0.5089
 8681TIP3   OH247457   0.211   5.954   2.954 -0.0167  0.3441  0.2302
 8681TIP3    H147458   0.193   5.902   3.032 -1.9360 -0.0909 -0.4480
 8681TIP3    H247459   0.243   6.038   2.988  2.4157 -0.9428  1.3518
 8682TIP3   OH247460   4.715   3.152   0.498  0.0781  0.0146 -0.5914
 8682TIP3    H147461   4.691   3.096   0.573 -1.1641  0.4083 -0.6681
 8682TIP3    H247462   4.634   3.158   0.447  0.4409  1.1801 -1.0418
 8683TIP3   OH247463   0.802   5.331   0.587  0.6512 -0.2674 -0.5120
 8683TIP3    H147464   0.726   5.336   0.645  1.8685  0.5088  1.0943
 8683TIP3    H247465   0.764   5.322   0.499 -1.3413  1.3497  0.0807
 8684TIP3   OH247466   4.187   2.681  13.043  0.3120  0.1755  0.2992
 8684TIP3    H147467   4.150   2.704  12.958  0.2174 -0.6497  0.1085
 8684TIP3    H247468   4.247   2.609  13.024  1.5794  1.0750  0.6859
 8685TIP3   OH247469   5.634   1.384  11.994 -0.2384 -0.4829  0.4073
 8685TIP3    H147470   5.697   1.385  11.922  0.2975  0.7151  0.8712
 8685TIP3    H247471   5.582   1.304  11.979  0.2426 -0.5696 -0.9589
 8686TIP3   OH247472   0.429   4.417  14.963 -0.2705 -0.2980  0.0549
 8686TIP3    H147473   0.355   4.445  15.018  0.4496  0.4611  0.6541
 8686TIP3    H247474   0.502   4.409  15.024  1.6454  4.4619 -1.2381
 8687TIP3   OH247475   5.233   3.687   5.662  0.0504 -0.3158  0.2797
 8687TIP3    H147476   5.299   3.756   5.662 -1.1554  0.9225  1.5215
 8687TIP3    H247477   5.283   3.605   5.668  1.4713  0.6334  2.7643
 8688TIP3   OH247478   5.800   0.897   5.717  0.5909  0.1408 -0.1912
 8688TIP3    H147479   5.745   0.822   5.694  0.5812 -0.0219  0.3582
 8688TIP3    H247480   5.747   0.949   5.777  0.5086  0.7187 -0.7484
 8689TIP3   OH247481   4.750   0.209   4.609  0.4503 -0.0875 -0.6364
 8689TIP3    H147482   4.791   0.264   4.542 -0.5493  1.4356 -0.0518
 8689TIP3    H247483   4.699   0.144   4.559  0.8619  0.1228 -1.3430
 8690TIP3   OH247484   1.272   3.964   4.364  0.1185  0.1034  0.0398
 8690TIP3    H147485   1.344   3.939   4.307  1.2390  0.3726  1.2748
 8690TIP3    H247486   1.264   4.059   4.353 -1.1894 -0.1234 -1.3295
 8691TIP3   OH247487   6.566   5.087  11.076  0.5138  0.4230 -0.6087
 8691TIP3    H147488   6.494   5.041  11.033 -0.2107  1.8106 -0.9254
 8691TIP3    H247489   6.574   5.045  11.161  0.4961 -0.8979 -1.2328
 8692TIP3   OH247490   1.040   4.686   4.216 -0.4671  0.1574  0.1755
 8692TIP3    H147491   1.108   4.620   4.226 -1.2171 -0.8320 -1.0514
 8692TIP3    H247492   1.087   4.770   4.226  1.4425 -0.3829 -2.8394
 8693TIP3   OH247493   3.881   5.335  13.862  0.5940 -0.0571 -0.3553
 8693TIP3    H147494   3.825   5.353  13.786 -2.9531 -1.3726  1.7541
 8693TIP3    H247495   3.918   5.249  13.845  0.6330  0.0815 -1.0023
 8694TIP3   OH247496   2.083   6.073   3.418 -0.3156  0.2966 -0.5091
 8694TIP3    H147497   2.026   6.148   3.434  0.8048  1.0507  0.0974
 8694TIP3    H247498   2.131   6.095   3.339 -0.2872  0.0294 -0.5689
 8695TIP3   OH247499   1.944   4.157  14.736 -0.3174  0.9512 -0.2717
 8695TIP3    H147500   1.931   4.173  14.643 -0.3963  0.7220 -0.3012
 8695TIP3    H247501   1.857   4.140  14.771 -0.4264  2.0811  0.0524
 8696TIP3   OH247502   6.819   4.136  15.971 -0.3615 -0.6049 -0.2519
 8696TIP3    H147503   6.812   4.041  15.957 -1.0286 -0.3955 -1.5004
 8696TIP3    H247504   6.803   4.174  15.884  2.1059  0.5759 -0.2775
 8697TIP3   OH247505   0.955   4.539  11.856 -0.1753  0.0620 -0.0409
 8697TIP3    H147506   0.969   4.554  11.762 -0.9033  0.3351 -0.1100
 8697TIP3    H247507   1.018   4.597  11.898  0.1907 -0.0971 -0.3609
 8698TIP3   OH247508   2.551   2.273   5.384  0.0426 -0.3003 -0.3388
 8698TIP3    H147509   2.537   2.251   5.476 -0.9244 -0.2894 -0.4650
 8698TIP3    H247510   2.560   2.368   5.383  1.6809 -0.4231 -0.0867
 8699TIP3   OH247511   3.580   1.791   4.104 -0.3128 -0.2906  0.9089
 8699TIP3    H147512   3.598   1.698   4.092  0.4022 -0.2201  1.3709
 8699TIP3    H247513   3.547   1.797   4.194  2.6360  0.2665  2.0791
 8700TIP3   OH247514   2.147   4.727  12.939  0.3201  0.3163 -0.0565
 8700TIP3    H147515   2.100   4.770  12.867 -1.4587 -1.7459 -0.2454
 8700TIP3    H247516   2.220   4.682  12.896 -0.2236 -0.1916 -0.4600
 8701TIP3   OH247517   2.475   2.032   0.339 -0.1468  0.0131  0.3287
 8701TIP3    H147518   2.520   2.037   0.423 -1.4999 -1.7181  1.2268
 8701TIP3    H247519   2.504   1.950   0.300 -1.2300 -0.3135  0.1661
 8702TIP3   OH247520   0.541   5.253   1.078 -0.0888  0.1074  0.0807
 8702TIP3    H147521   0.614   5.313   1.065 -0.7682  0.7768 -0.7014
 8702TIP3    H247522   0.517   5.265   1.170  1.4409 -0.8949  0.6536
 8703TIP3   OH247523   6.526   1.148  10.968  0.2526 -0.0819 -0.1844
 8703TIP3    H147524   6.476   1.223  10.933  1.7351  1.1508  0.2438
 8703TIP3    H247525   6.605   1.145  10.914 -0.1559 -1.9048 -0.7423
 8704TIP3   OH247526   4.422   2.603  15.158  0.4416  0.2237  0.1438
 8704TIP3    H147527   4.353   2.656  15.198  0.2546  0.1844 -0.1223
 8704TIP3    H247528   4.375   2.533  15.113  0.7530 -1.2147  1.9597
 8705TIP3   OH247529   1.515   1.662  14.799 -0.6137 -0.1582  0.0441
 8705TIP3    H147530   1.463   1.587  14.827 -0.7891 -0.9171 -2.1415
 8705TIP3    H247531   1.585   1.624  14.746 -0.7294  1.1960 -1.1400
 8706TIP3   OH247532   1.755   1.540   1.920  0.0394  0.0130 -0.0402
 8706TIP3    H147533   1.740   1.606   1.853 -0.7085  0.6257  0.7180
 8706TIP3    H247534   1.832   1.491   1.889 -0.9572 -0.4626 -1.8991
 8707TIP3   OH247535   2.492   3.808   4.226  0.0171  0.4065 -0.0329
 8707TIP3    H147536   2.551   3.878   4.253 -0.3488  0.2271  1.3395
 8707TIP3    H247537   2.548   3.730   4.221  0.1706  0.5273 -0.2111
 8708TIP3   OH247538   4.378   1.999  16.191  0.6014  0.4785  0.0946
 8708TIP3    H147539   4.441   1.928  16.204  0.9422  0.7707  0.0619
 8708TIP3    H247540   4.402   2.065  16.256  0.8461  0.9424 -0.4542
 8709TIP3   OH247541   0.019   6.235  12.434 -0.2190 -0.5044 -0.3508
 8709TIP3    H147542  -0.003   6.287  12.357 -0.8050  0.0739  0.1942
 8709TIP3    H247543   0.112   6.213  12.423  0.4301  1.8333  0.0756
 8710TIP3   OH247544   1.496   5.508   0.706  0.6924  0.4560 -0.1233
 8710TIP3    H147545   1.578   5.501   0.754  0.2378  1.4984  0.8700
 8710TIP3    H247546   1.521   5.536   0.618  1.4657 -0.3231 -0.1547
 8711TIP3   OH247547   3.382   0.123   1.388 -0.6647 -0.1508 -0.3002
 8711TIP3    H147548   3.323   0.111   1.462  0.6872  1.7957  1.1960
 8711TIP3    H247549   3.334   0.180   1.328 -0.7076  0.6292  0.4547
 8712TIP3   OH247550   6.442   1.255   5.723 -0.0102 -0.1315  0.3134
 8712TIP3    H147551   6.385   1.254   5.646  1.3075  0.4629 -0.7011
 8712TIP3    H247552   6.477   1.166   5.728  0.4610  0.0221 -0.2087
 8713TIP3   OH247553   0.348   4.304   5.548  0.1021 -0.2520 -0.0761
 8713TIP3    H147554   0.350   4.214   5.515  1.9481 -0.3183  0.0929
 8713TIP3    H247555   0.339   4.295   5.643  0.8420 -0.2853 -0.0069
 8714TIP3   OH247556   2.593   6.536   1.481 -0.2995  0.0041 -0.1349
 8714TIP3    H147557   2.518   6.477   1.488 -1.8187  1.9551  1.4998
 8714TIP3    H247558   2.623   6.526   1.391 -0.8896 -2.6980 -0.1154
 8715TIP3   OH247559   1.680   1.273  15.213  1.2205 -0.0755  0.6347
 8715TIP3    H147560   1.759   1.297  15.165  0.1351  0.3838 -0.9932
 8715TIP3    H247561   1.620   1.241  15.146  0.6016 -2.0705  2.0499
 8716TIP3   OH247562   4.332   1.918  15.710 -0.2426 -0.1828 -0.5029
 8716TIP3    H147563   4.307   1.930  15.618 -0.5277  0.7082 -0.3239
 8716TIP3    H247564   4.249   1.919  15.757 -0.0527 -0.0109 -0.1733
 8717TIP3   OH247565   5.169   4.934   3.198 -0.2300  0.2895 -0.3145
 8717TIP3    H147566   5.189   4.893   3.114 -1.1916 -1.4574  0.2410
 8717TIP3    H247567   5.091   4.987   3.182 -1.3692 -1.2972 -0.2351
 8718TIP3   OH247568   4.634   4.780  12.188  0.6283 -0.8807  0.1874
 8718TIP3    H147569   4.639   4.706  12.249 -0.0837 -0.0214  1.3200
 8718TIP3    H247570   4.577   4.843  12.232  3.2638  1.4895  0.4903
 8719TIP3   OH247571   5.204   5.479   1.666  0.2010  0.1198 -0.0728
 8719TIP3    H147572   5.214   5.451   1.575 -1.9235  2.0973 -1.0203
 8719TIP3    H247573   5.279   5.536   1.683  0.4934 -0.0924 -0.6475
 8720TIP3   OH247574   5.399   2.446  14.106  0.4843  0.5323 -0.0685
 8720TIP3    H147575   5.365   2.535  14.109 -1.5655 -0.2088  0.7514
 8720TIP3    H247576   5.441   2.433  14.191 -0.4010  0.3259  0.3547
 8721TIP3   OH247577   5.877   0.415  14.269 -0.0366  0.3829  0.1495
 8721TIP3    H147578   5.787   0.446  14.271 -0.4364 -0.7079 -0.3612
 8721TIP3    H247579   5.876   0.340  14.209  1.0337 -0.1979  0.8218
 8722TIP3   OH247580   4.480   4.067   0.819 -0.6011  0.6568 -0.0486
 8722TIP3    H147581   4.448   3.994   0.767  0.5556 -0.8203  1.2233
 8722TIP3    H247582   4.562   4.093   0.775 -0.6612  0.7465 -0.1091
 8723TIP3   OH247583   2.132   2.583  13.278 -0.5344 -0.1482 -0.0094
 8723TIP3    H147584   2.199   2.519  13.301 -0.9601 -0.3463  0.7278
 8723TIP3    H247585   2.164   2.665  13.314 -1.1252 -0.4281  1.2075
 8724TIP3   OH247586   0.804   2.484   2.653  0.5022  0.3515 -0.1548
 8724TIP3    H147587   0.892   2.522   2.654  0.3654  0.6655  0.1416
 8724TIP3    H247588   0.803   2.423   2.726  0.6492 -0.0662 -0.4950
 8725TIP3   OH247589   5.157   4.390   6.476 -0.3096  0.3261  0.3396
 8725TIP3    H147590   5.149   4.304   6.435 -0.9320  0.1879  0.7405
 8725TIP3    H247591   5.236   4.384   6.530 -0.6520 -0.1772  0.7939
 8726TIP3   OH247592   3.531   0.107  12.515  0.1897  0.0609 -0.1993
 8726TIP3    H147593   3.589   0.052  12.567 -1.3472 -1.3610  0.1178
 8726TIP3    H247594   3.552   0.084  12.424  0.9737  0.5000 -0.1361
 8727TIP3   OH247595   3.454   1.257  16.167 -0.2940  0.2666  1.2140
 8727TIP3    H147596   3.405   1.339  16.161 -0.6352  0.1141  1.8281
 8727TIP3    H247597   3.418   1.213  16.245  0.9541  0.2459  1.8046
 8728TIP3   OH247598   3.226   1.368  13.559 -0.0392 -0.4522 -0.4098
 8728TIP3    H147599   3.271   1.443  13.520 -2.3833  0.4994 -1.5118
 8728TIP3    H247600   3.265   1.358  13.646  1.3846  1.0651 -0.8400
 8729TIP3   OH247601   1.334   1.658  15.457  0.3205 -0.0373  0.0204
 8729TIP3    H147602   1.391   1.601  15.405 -0.2824  0.5313 -1.3154
 8729TIP3    H247603   1.358   1.747  15.430  1.7415  0.4445  2.5837
 8730TIP3   OH247604   4.549   4.107   5.617  0.0101 -0.2056  0.4433
 8730TIP3    H147605   4.469   4.056   5.603 -0.6383  0.4479  1.5977
 8730TIP3    H247606   4.524   4.197   5.594  0.4834 -0.0473  0.5406
 8731TIP3   OH247607   2.658   6.508  12.594  0.1107  0.5283  0.0341
 8731TIP3    H147608   2.642   6.574  12.526 -1.3853 -0.2832 -0.4406
 8731TIP3    H247609   2.752   6.515  12.612  0.2122  1.9287 -0.8869
 8732TIP3   OH247610   3.732   2.860   3.346 -0.6133  0.4519 -0.3270
 8732TIP3    H147611   3.664   2.794   3.363 -0.2007  0.3154  0.8321
 8732TIP3    H247612   3.735   2.912   3.426  0.4167  0.6711 -0.5050
 8733TIP3   OH247613   3.592   2.815   0.001 -0.1825  0.5822  0.4556
 8733TIP3    H147614   3.663   2.875   0.025  0.5793  0.7798 -1.9845
 8733TIP3    H247615   3.632   2.728   0.006  0.6202  0.7449 -1.7849
 8734TIP3   OH247616   1.142   2.406   3.626  0.2664  0.1350 -0.3502
 8734TIP3    H147617   1.143   2.482   3.684  1.5518 -0.9470  1.1184
 8734TIP3    H247618   1.103   2.336   3.678 -1.4079 -0.1570 -1.8597
 8735TIP3   OH247619   4.947   5.226  13.763  0.0322 -0.3152  0.2458
 8735TIP3    H147620   5.030   5.195  13.799  0.6274 -0.1821 -0.9508
 8735TIP3    H247621   4.904   5.147  13.730  0.4058 -0.2101 -0.5284
 8736TIP3   OH247622   2.999   6.176   1.872 -0.7620 -0.1727 -0.4023
 8736TIP3    H147623   3.008   6.081   1.883  1.8104  0.0653  0.2121
 8736TIP3    H247624   2.986   6.209   1.961 -0.3254  0.1422 -0.4504
 8737TIP3   OH247625   3.119   2.719  11.381 -0.0241 -0.3588  0.0264
 8737TIP3    H147626   3.094   2.765  11.301 -2.4944 -0.2467  0.7687
 8737TIP3    H247627   3.120   2.787  11.448  2.8391 -0.2960  0.0405
 8738TIP3   OH247628   3.934   4.724   1.788  0.7793  0.6294  0.3175
 8738TIP3    H147629   3.917   4.654   1.725  0.9796 -0.2091  1.1828
 8738TIP3    H247630   3.925   4.805   1.737 -0.1731  0.0087 -0.5234
 8739TIP3   OH247631   5.862   1.638  16.016 -0.2742  0.0157 -0.0945
 8739TIP3    H147632   5.866   1.691  16.096  1.6257 -0.6067  0.2678
 8739TIP3    H247633   5.951   1.605  16.004 -0.9758 -1.5956 -1.3308
 8740TIP3   OH247634   0.012   6.710   4.718  0.6325  0.2202  0.1596
 8740TIP3    H147635   0.001   6.713   4.813  2.0877  1.1365  0.3292
 8740TIP3    H247636   0.059   6.628   4.702  1.0349  0.4178  0.3147
 8741TIP3   OH247637   5.351   2.003  16.747  0.3160  0.3991 -0.1037
 8741TIP3    H147638   5.260   1.974  16.737 -0.3181  2.3800 -0.7156
 8741TIP3    H247639   5.394   1.971  16.668  0.5088 -1.6061  0.7591
 8742TIP3   OH247640   1.209   5.397   5.256  1.0492 -0.3258 -0.0063
 8742TIP3    H147641   1.218   5.455   5.332  1.2106  1.4002 -1.2980
 8742TIP3    H247642   1.201   5.309   5.294 -0.2289  0.6126  2.0515
 8743TIP3   OH247643   3.244   4.143   1.728  0.4798  0.2661  0.6100
 8743TIP3    H147644   3.328   4.152   1.771  1.0185  1.1488 -0.5641
 8743TIP3    H247645   3.190   4.213   1.766  0.1148 -0.5826  1.6863
 8744TIP3   OH247646   5.563   2.254   2.913  0.3242 -0.2856 -0.2111
 8744TIP3    H147647   5.650   2.220   2.891  0.7821 -0.1283  1.2988
 8744TIP3    H247648   5.570   2.283   3.004 -1.1383  0.3113 -0.2639
 8745TIP3   OH247649   1.614   5.016   1.835  0.0724 -0.4471  0.6070
 8745TIP3    H147650   1.669   4.939   1.818 -0.2732 -0.5087 -0.3313
 8745TIP3    H247651   1.574   5.035   1.750 -0.3331  0.3931  0.9778
 8746TIP3   OH247652   5.307   4.692   5.294  0.1514  0.3635  0.6642
 8746TIP3    H147653   5.230   4.707   5.349 -0.8692  0.8646 -0.8204
 8746TIP3    H247654   5.358   4.772   5.302 -0.6614  0.9820 -0.1092
 8747TIP3   OH247655   3.366   1.427  13.039 -0.3649  0.1332 -0.2972
 8747TIP3    H147656   3.304   1.371  13.085  0.3727 -1.9211 -1.6473
 8747TIP3    H247657   3.321   1.511  13.028 -1.8013 -0.4167  1.1366
 8748TIP3   OH247658   3.371   3.928  12.831  0.5071 -0.1022  0.1434
 8748TIP3    H147659   3.439   3.911  12.766  0.0671 -0.7358 -0.1581
 8748TIP3    H247660   3.400   4.008  12.876  0.8885  0.2637 -0.7309
 8749TIP3   OH247661   2.838   5.953   0.297  0.1083  0.7661 -0.3778
 8749TIP3    H147662   2.908   6.019   0.290 -1.0138  1.8122 -2.8778
 8749TIP3    H247663   2.774   5.979   0.231 -2.5993 -0.2592  1.6811
 8750TIP3   OH247664   5.556   0.346  10.216  0.2321 -0.3355  0.2566
 8750TIP3    H147665   5.591   0.433  10.235  1.3866 -0.8681  0.6244
 8750TIP3    H247666   5.481   0.363  10.158  0.3707  0.9043  0.4123
 8751TIP3   OH247667   0.906   0.899   1.181  0.3401 -0.2096 -0.1714
 8751TIP3    H147668   0.829   0.859   1.222  0.0933 -1.9420 -2.1127
 8751TIP3    H247669   0.976   0.888   1.244 -0.6482 -0.0549  0.9866
 8752TIP3   OH247670   0.791   4.127  13.861  0.3611  0.2159  0.9543
 8752TIP3    H147671   0.793   4.210  13.813  0.8186 -0.1822  0.2739
 8752TIP3    H247672   0.704   4.091  13.843  1.1467 -0.8180 -1.1645
 8753TIP3   OH247673   3.375   0.849  16.669  0.6590 -0.1951  0.1204
 8753TIP3    H147674   3.294   0.897  16.651  1.5479  1.3867  0.2078
 8753TIP3    H247675   3.353   0.792  16.743 -0.9566 -1.4022 -1.2110
 8754TIP3   OH247676   1.077   2.523   1.956 -0.1102  0.1515 -0.1270
 8754TIP3    H147677   0.998   2.578   1.959  1.1847  2.0973  0.9597
 8754TIP3    H247678   1.047   2.439   1.924 -2.6712  0.7537  0.4859
 8755TIP3   OH247679   4.192   3.475   3.291  0.1276  0.2321 -0.0039
 8755TIP3    H147680   4.222   3.430   3.369  0.5596  0.6851  0.0963
 8755TIP3    H247681   4.268   3.523   3.260 -0.1317  0.3233 -0.5136
 8756TIP3   OH247682   2.892   2.718  11.671  1.0906  0.4748  0.4121
 8756TIP3    H147683   2.917   2.638  11.716 -0.8045 -1.3496 -1.5876
 8756TIP3    H247684   2.889   2.694  11.579 -1.0925  2.4037 -0.1132
 8757TIP3   OH247685   0.004   2.855   2.383  0.0203  0.2552  0.2466
 8757TIP3    H147686   0.080   2.813   2.344  0.7679 -0.1809  2.0352
 8757TIP3    H247687   0.015   2.948   2.365  0.8294  0.1542  0.2245
 8758TIP3   OH247688   3.652   4.068  14.094 -0.1056  0.1279  0.1869
 8758TIP3    H147689   3.681   4.107  14.011  0.2754  0.5462  0.5141
 8758TIP3    H247690   3.688   3.980  14.094  1.0669  0.5931  0.5275
 8759TIP3   OH247691   1.847   5.757   2.037  0.3195  0.1843  0.6195
 8759TIP3    H147692   1.846   5.721   1.948  2.6136  0.3007  0.4734
 8759TIP3    H247693   1.756   5.778   2.055 -0.2135  0.2597 -1.7487
 8760TIP3   OH247694   3.410   4.499   0.106 -0.3524  0.2469  0.1568
 8760TIP3    H147695   3.463   4.437   0.055 -1.0426  0.0667 -0.3574
 8760TIP3    H247696   3.343   4.529   0.044 -1.1017  0.1482  0.9096
 8761TIP3   OH247697   1.217   2.074  13.868 -0.1914 -0.5734  0.2737
 8761TIP3    H147698   1.248   2.114  13.949  2.5892 -0.3987 -0.7682
 8761TIP3    H247699   1.219   2.145  13.804 -1.1264 -1.0132 -0.2766
 8762TIP3   OH247700   0.649   5.386  12.111  0.1396  0.1948 -0.0011
 8762TIP3    H147701   0.663   5.393  12.206 -0.3909  0.4253  0.0674
 8762TIP3    H247702   0.636   5.476  12.082  0.2787  0.1215 -0.2908
 8763TIP3   OH247703   6.211   5.372   6.525 -0.0618 -0.0901 -0.4337
 8763TIP3    H147704   6.256   5.359   6.441  2.8034  1.8595  0.6389
 8763TIP3    H247705   6.161   5.452   6.513  1.4294  0.9586  0.0298
 8764TIP3   OH247706   3.966   6.764  12.957 -0.2309 -0.0621  0.0691
 8764TIP3    H147707   3.983   6.736  12.867  0.9805 -2.6526  1.0125
 8764TIP3    H247708   3.962   6.860  12.952  2.9124  0.1034 -2.2698
 8765TIP3   OH247709   1.390   0.594   3.892  0.3111 -0.1781  0.4479
 8765TIP3    H147710   1.400   0.689   3.897  1.7330 -0.3312  1.1372
 8765TIP3    H247711   1.341   0.571   3.971 -2.3606  0.1798 -0.9708
 8766TIP3   OH247712   3.672   3.528   1.954 -0.1270  0.2488 -0.3163
 8766TIP3    H147713   3.707   3.561   1.872  1.9818 -0.1304  0.3578
 8766TIP3    H247714   3.609   3.595   1.982  0.2321  1.1155 -1.4964
 8767TIP3   OH247715   6.580   3.520   1.761 -0.2371 -0.3328 -0.1789
 8767TIP3    H147716   6.497   3.568   1.763  0.3611  0.7106  0.8620
 8767TIP3    H247717   6.601   3.506   1.853 -0.3312 -2.5563 -0.4488
 8768TIP3   OH247718   0.724   2.030   6.323 -0.3841 -0.3819 -0.4750
 8768TIP3    H147719   0.782   2.026   6.246  3.0376 -0.2342  1.8946
 8768TIP3    H247720   0.761   2.100   6.377 -1.4570 -1.7944  2.2266
 8769TIP3   OH247721   3.566   0.641  15.201 -0.1107  0.1070  0.1151
 8769TIP3    H147722   3.631   0.700  15.163 -0.7467  0.0361 -1.1429
 8769TIP3    H247723   3.527   0.692  15.273  0.5046  0.5952  0.1103
 8770TIP3   OH247724   6.254   4.005  16.441  0.4508  0.3452 -0.4111
 8770TIP3    H147725   6.323   4.072  16.438 -0.6749  1.5218 -2.4589
 8770TIP3    H247726   6.230   3.991  16.349 -1.3147 -0.8163  0.1684
 8771TIP3   OH247727   5.246   6.555   1.568  0.1722 -0.3724  0.1112
 8771TIP3    H147728   5.179   6.615   1.535 -1.1762  0.0168  3.2083
 8771TIP3    H247729   5.324   6.574   1.514 -2.0683 -0.8924 -3.6924
 8772TIP3   OH247730   2.016   4.304   2.923 -0.0024 -0.3122  0.0117
 8772TIP3    H147731   1.961   4.294   2.845 -0.1754  0.5142  0.0191
 8772TIP3    H247732   1.956   4.292   2.996 -0.7029  2.6721  0.0675
 8773TIP3   OH247733   2.171   0.172  12.716  0.3037 -0.1325  0.2199
 8773TIP3    H147734   2.219   0.109  12.662  0.9934 -0.7483  1.5076
 8773TIP3    H247735   2.211   0.257  12.696 -0.4593 -0.0939 -1.3303
 8774TIP3   OH247736   3.922   3.802  13.817  0.2463 -0.0468  0.4169
 8774TIP3    H147737   3.951   3.863  13.885  1.0526 -0.4835  0.4827
 8774TIP3    H247738   3.828   3.818  13.809  0.6965  2.4743 -0.8361
 8775TIP3   OH247739   4.619   2.518   5.706 -0.3164  0.1472  0.3842
 8775TIP3    H147740   4.559   2.455   5.747 -1.5860  1.0170 -0.0588
 8775TIP3    H247741   4.624   2.590   5.770 -0.6549  0.5750 -0.0624
 8776TIP3   OH247742   0.955   3.360  11.495 -0.2175  0.5407  0.2585
 8776TIP3    H147743   0.928   3.449  11.518 -2.4439  0.1732 -0.6855
 8776TIP3    H247744   0.991   3.325  11.577  0.1558  2.0862  0.8035
 8777TIP3   OH247745   1.087   0.341   2.831 -0.4882 -0.1556 -0.4837
 8777TIP3    H147746   1.110   0.412   2.892 -1.5800 -0.1941 -0.0141
 8777TIP3    H247747   1.041   0.386   2.759  0.8728 -0.0958 -1.3690
 8778TIP3   OH247748   4.644   2.452   3.050  0.1869 -0.1923  0.6916
 8778TIP3    H147749   4.668   2.514   2.981  1.2533 -0.8842  0.4149
 8778TIP3    H247750   4.669   2.496   3.131  0.1229  0.0983  0.5554
 8779TIP3   OH247751   1.182   3.180   0.247  0.0960  0.1400 -0.7221
 8779TIP3    H147752   1.123   3.238   0.295  1.1285 -1.4644  2.7987
 8779TIP3    H247753   1.140   3.094   0.252  2.2038 -0.8762  1.1491
 8780TIP3   OH247754   2.529   0.966   5.331  0.0685  0.1856  0.3612
 8780TIP3    H147755   2.468   0.893   5.333  0.4397 -0.1675 -0.6873
 8780TIP3    H247756   2.475   1.042   5.307  0.0784 -0.1927 -0.9370
 8781TIP3   OH247757   4.912   3.217  16.298 -0.3900  0.9010  0.3350
 8781TIP3    H147758   4.978   3.257  16.354  0.7637  0.4573 -0.6675
 8781TIP3    H247759   4.861   3.161  16.357  0.0402  1.3402  1.1451
 8782TIP3   OH247760   3.825   6.617   4.171 -0.6354  0.3420 -0.4013
 8782TIP3    H147761   3.745   6.641   4.218 -0.2978  0.3450  0.1944
 8782TIP3    H247762   3.854   6.699   4.131  0.1748  0.8534  1.1096
 8783TIP3   OH247763   6.234   2.908   5.595  0.2411 -0.1358 -0.3630
 8783TIP3    H147764   6.316   2.908   5.644 -0.2445  0.3922  0.4554
 8783TIP3    H247765   6.257   2.870   5.510  0.4865 -3.9829  1.2203
 8784TIP3   OH247766   4.954   5.930  15.194 -0.4477 -0.0552  0.5325
 8784TIP3    H147767   4.913   5.977  15.266  0.0405  2.7452 -0.8780
 8784TIP3    H247768   5.048   5.936  15.212 -0.3215  0.6778 -0.3004
 8785TIP3   OH247769   2.604   5.319  13.198 -0.2424  0.5904  0.2413
 8785TIP3    H147770   2.549   5.331  13.120 -2.3044  1.5036  1.7433
 8785TIP3    H247771   2.639   5.230  13.189 -1.6838  0.0974 -0.9751
 8786TIP3   OH247772   3.846   3.483   6.903  0.0610 -0.9973 -0.3834
 8786TIP3    H147773   3.925   3.440   6.869 -0.3742 -0.3330 -2.3744
 8786TIP3    H247774   3.832   3.557   6.843 -0.6944  0.3746  1.3880
 8787TIP3   OH247775   5.664   0.157   5.322  0.1064 -0.3334 -0.2398
 8787TIP3    H147776   5.681   0.199   5.406  0.6997  1.7160 -1.3236
 8787TIP3    H247777   5.582   0.109   5.335 -0.0504  0.3218  1.3551
 8788TIP3   OH247778   0.120   1.256   4.514  0.2984 -0.3250 -0.1206
 8788TIP3    H147779   0.113   1.260   4.418  1.1885  1.1320 -0.1600
 8788TIP3    H247780   0.172   1.177   4.531 -0.8389 -1.2401 -0.7518
 8789TIP3   OH247781   1.176   6.165   0.262 -0.2051 -0.6701  0.1251
 8789TIP3    H147782   1.175   6.174   0.357 -2.3927  3.5192 -0.0867
 8789TIP3    H247783   1.262   6.198   0.236 -0.4925  0.4657  0.5717
 8790TIP3   OH247784   2.904   0.097  15.411 -0.0745  0.3831  0.0960
 8790TIP3    H147785   2.933   0.018  15.366 -0.0495  0.1186  0.5750
 8790TIP3    H247786   2.818   0.116  15.373 -0.8031 -0.7867  1.0898
 8791TIP3   OH247787   4.316   5.504   0.134 -0.4060 -0.8458  0.8519
 8791TIP3    H147788   4.370   5.467   0.205 -0.3437  2.5901  2.8223
 8791TIP3    H247789   4.238   5.536   0.178 -1.0393  0.1578 -0.9143
 8792TIP3   OH247790   3.935   6.233   2.805  0.0897  0.3214  0.3238
 8792TIP3    H147791   3.879   6.308   2.823  0.9400  0.7434  1.3171
 8792TIP3    H247792   4.018   6.271   2.775 -0.0632 -0.2902 -0.9630
 8793TIP3   OH247793   6.747   6.738  15.241  0.0854  0.3371 -0.5487
 8793TIP3    H147794   6.701   6.819  15.223 -0.5521 -0.1856 -1.3102
 8793TIP3    H247795   6.738   6.686  15.161 -0.7200 -1.0459  0.4057
 8794TIP3   OH247796   3.578   4.109   3.164 -0.0679 -0.0903  0.2682
 8794TIP3    H147797   3.667   4.087   3.137  0.5965  0.8602  1.5450
 8794TIP3    H247798   3.556   4.044   3.230 -0.8461 -1.1080 -0.9656
 8795TIP3   OH247799   2.365   0.355   5.812  0.6535  0.3134 -0.2023
 8795TIP3    H147800   2.333   0.361   5.902  0.4748 -1.2927 -0.1240
 8795TIP3    H247801   2.398   0.443   5.792 -0.0647  0.9176  1.1299
 8796TIP3   OH247802   3.644   3.981  12.451  0.1459 -0.4500  0.3103
 8796TIP3    H147803   3.618   3.889  12.461  1.3919 -0.8603 -0.0390
 8796TIP3    H247804   3.712   3.994  12.516 -0.0710  0.2632  0.4058
 8797TIP3   OH247805   1.856   5.832  11.513  0.6124  0.2144 -0.1833
 8797TIP3    H147806   1.792   5.880  11.460  0.6305  0.8252  0.3356
 8797TIP3    H247807   1.929   5.816  11.453 -0.3169 -1.1862 -1.0135
 8798TIP3   OH247808   6.388   2.790  12.854 -0.4868 -0.3879  0.1709
 8798TIP3    H147809   6.329   2.730  12.901 -0.7768 -1.6223 -1.6745
 8798TIP3    H247810   6.429   2.841  12.924 -0.8491 -2.1645  1.7884
 8799TIP3   OH247811   2.429   5.317  15.642  0.3632 -0.1014  0.3292
 8799TIP3    H147812   2.415   5.373  15.565  2.2002 -0.2685 -0.1681
 8799TIP3    H247813   2.414   5.375  15.716  0.1716  0.5052 -0.1714
 8800TIP3   OH247814   6.701   4.086   1.877  0.0749  0.5095 -0.6933
 8800TIP3    H147815   6.638   4.125   1.816 -1.7100 -1.3177 -0.1670
 8800TIP3    H247816   6.764   4.155   1.895  0.4087  1.3197 -4.1802
 8801TIP3   OH247817   1.895   1.000   5.447  0.2194 -0.1371  0.3372
 8801TIP3    H147818   1.823   1.006   5.510  1.1513  0.3304  1.3964
 8801TIP3    H247819   1.878   0.920   5.397 -1.3764  0.3148  0.1180
 8802TIP3   OH247820   5.684   6.337   4.000  0.0846 -0.1960 -0.0761
 8802TIP3    H147821   5.657   6.286   4.077  1.1366 -0.2688  0.2645
 8802TIP3    H247822   5.778   6.348   4.012  0.5699 -1.5889 -2.1635
 8803TIP3   OH247823   5.499   0.071  11.725 -0.0571 -0.2326  0.0138
 8803TIP3    H147824   5.411   0.102  11.703  0.6577  0.4667 -2.1187
 8803TIP3    H247825   5.506  -0.014  11.681  0.7927  0.3678 -1.0629
 8804TIP3   OH247826   2.701   1.665   3.482  0.2582  0.3653 -0.5148
 8804TIP3    H147827   2.776   1.628   3.437  0.2577  2.3448 -2.2972
 8804TIP3    H247828   2.626   1.645   3.425 -0.3079 -0.0287  0.3376
 8805TIP3   OH247829   3.253   3.844  13.711 -0.0490  0.3929 -0.5431
 8805TIP3    H147830   3.176   3.826  13.657 -0.6258 -0.2197  0.4376
 8805TIP3    H247831   3.302   3.909  13.662 -0.5253 -0.1599 -1.8116
 8806TIP3   OH247832   4.706   2.655  15.167  0.1464 -0.2989  0.4970
 8806TIP3    H147833   4.742   2.597  15.234 -1.0723  0.1950  1.6392
 8806TIP3    H247834   4.611   2.643  15.174 -0.0728  0.9356 -0.0428
 8807TIP3   OH247835   3.478   1.264  11.724 -0.1646  0.3041  0.6325
 8807TIP3    H147836   3.509   1.355  11.724  0.9973 -0.0538 -0.3955
 8807TIP3    H247837   3.399   1.265  11.778 -0.6717  2.0902 -0.0650
 8808TIP3   OH247838   3.576   4.818  14.921 -0.0348 -0.0637 -0.4014
 8808TIP3    H147839   3.656   4.788  14.966 -1.1143  0.0020  1.6810
 8808TIP3    H247840   3.602   4.824  14.829  2.3677 -0.0332  0.1942
 8809TIP3   OH247841   6.349   2.468   4.592  0.4831  0.0533  0.4295
 8809TIP3    H147842   6.379   2.420   4.669  2.8345  2.4010  1.1138
 8809TIP3    H247843   6.397   2.551   4.595 -1.9301  1.6874 -1.7060
 8810TIP3   OH247844   5.601   5.046  16.053 -0.1767  0.3884  0.0646
 8810TIP3    H147845   5.604   4.964  16.003 -1.6128 -0.3214  1.0638
 8810TIP3    H247846   5.606   5.115  15.987  0.1470 -0.5102 -0.8691
 8811TIP3   OH247847   4.041   0.462   3.401 -0.0083 -0.1103 -0.1511
 8811TIP3    H147848   3.976   0.529   3.425  2.6936  2.1951  1.3737
 8811TIP3    H247849   4.046   0.466   3.306 -1.3723  0.3323 -0.2300
 8812TIP3   OH247850   2.612   6.380  13.924 -0.1855 -0.2427  0.2376
 8812TIP3    H147851   2.603   6.456  13.865 -0.9707 -0.6234 -0.1516
 8812TIP3    H247852   2.522   6.362  13.952  0.1603 -0.2022  1.3983
 8813TIP3   OH247853   3.284   5.231   3.220 -0.1285  0.3918  0.1670
 8813TIP3    H147854   3.292   5.219   3.315 -0.6798  2.3200  0.4843
 8813TIP3    H247855   3.288   5.325   3.207  2.3401  0.0941 -1.9831
 8814TIP3   OH247856   4.355   4.278  16.871  0.0004 -0.1656 -0.2350
 8814TIP3    H147857   4.295   4.248  16.803  0.7137 -0.0362 -0.9359
 8814TIP3    H247858   4.324   4.367  16.891 -0.2419 -0.2199 -0.3577
 8815TIP3   OH247859   3.926   5.020  11.419  0.0672 -0.3781 -0.0178
 8815TIP3    H147860   3.864   5.069  11.364  0.0519  0.3804  0.6546
 8815TIP3    H247861   3.873   4.951  11.459 -0.0136 -0.6639 -0.6037
 8816TIP3   OH247862   5.281   5.419  15.831  0.9101 -0.2498 -0.1888
 8816TIP3    H147863   5.330   5.337  15.827  0.4139 -0.6070  0.7344
 8816TIP3    H247864   5.220   5.407  15.904  0.6603  0.8488 -0.2000
 8817TIP3   OH247865   6.111   1.934   6.632 -0.3507 -0.8752  0.4736
 8817TIP3    H147866   6.197   1.956   6.669  0.0002 -1.7448  0.2081
 8817TIP3    H247867   6.131   1.887   6.551 -1.0733 -1.2676  0.5122
 8818TIP3   OH247868   2.595   2.075  16.102 -0.1666 -0.6341 -0.4875
 8818TIP3    H147869   2.502   2.054  16.099 -1.0080  2.5006 -0.2990
 8818TIP3    H247870   2.620   2.065  16.194 -0.6708 -0.3059 -0.3129
 8819TIP3   OH247871   2.081   6.345  12.049  0.1928 -0.1158 -0.6490
 8819TIP3    H147872   2.069   6.293  12.129 -0.3421  1.3942  0.2966
 8819TIP3    H247873   2.045   6.290  11.979 -2.2871 -0.2401  0.6086
 8820TIP3   OH247874   0.178   4.593   3.104  0.3885  0.4894  0.4176
 8820TIP3    H147875   0.255   4.650   3.107  1.4608 -0.6881 -2.2945
 8820TIP3    H247876   0.131   4.621   3.026 -1.4991  0.5550  1.5178
 8821TIP3   OH247877   3.070   2.985  13.723 -0.5480  0.4714  0.0993
 8821TIP3    H147878   3.071   3.038  13.643  0.8311 -0.1520 -0.3296
 8821TIP3    H247879   3.049   2.897  13.693 -0.0124  0.2314  0.4010
 8822TIP3   OH247880   0.010   4.613   1.411 -0.0761  0.3487 -0.2188
 8822TIP3    H147881  -0.053   4.610   1.482  0.7517 -2.7827  0.5450
 8822TIP3    H247882   0.017   4.706   1.388 -2.6697  1.1034  1.6539
 8823TIP3   OH247883   6.435   3.290   5.687 -0.3908  0.0969  0.0559
 8823TIP3    H147884   6.529   3.272   5.685 -0.6693 -1.4210 -0.2463
 8823TIP3    H247885   6.407   3.287   5.596 -0.8977 -0.4209  0.2220
 8824TIP3   OH247886   0.264   4.066  15.976 -0.0069  0.1932  0.3042
 8824TIP3    H147887   0.296   4.087  16.063 -1.4624  0.6567  0.7618
 8824TIP3    H247888   0.175   4.102  15.974 -0.0331  0.1224 -1.3438
 8825TIP3   OH247889   5.614   2.393   3.740 -0.0096 -1.4698  0.1932
 8825TIP3    H147890   5.667   2.362   3.814 -0.1354  0.6027  1.2178
 8825TIP3    H247891   5.532   2.343   3.747 -0.4736 -0.5448  2.1916
 8826TIP3   OH247892   6.369   3.941   0.901 -0.7527  0.0868  0.6661
 8826TIP3    H147893   6.298   3.976   0.846  0.3423  0.6833 -0.4114
 8826TIP3    H247894   6.447   3.986   0.870  0.6178 -2.7109 -0.2373
 8827TIP3   OH247895   5.708   0.943   2.512  0.2245  0.1706  0.5135
 8827TIP3    H147896   5.712   1.023   2.461 -1.4720 -0.6161 -0.9675
 8827TIP3    H247897   5.632   0.955   2.570 -1.9499 -1.4114 -1.8026
 8828TIP3   OH247898   5.461   4.308   5.526  0.0756  0.2028 -0.4407
 8828TIP3    H147899   5.411   4.275   5.452 -0.3141  1.0729 -0.5707
 8828TIP3    H247900   5.545   4.335   5.488  1.4517 -2.9740  0.0496
 8829TIP3   OH247901   3.560   5.589   1.812 -0.5129 -0.2036  0.2564
 8829TIP3    H147902   3.561   5.500   1.848  1.2864  0.4188  1.9493
 8829TIP3    H247903   3.516   5.642   1.879 -1.8695  0.1655 -0.8847
 8830TIP3   OH247904   4.980   3.655   0.547  0.6288  0.3648 -0.3608
 8830TIP3    H147905   5.001   3.707   0.469  1.3481  0.4137 -0.1465
 8830TIP3    H247906   4.892   3.621   0.531 -0.0288  1.9680 -0.3439
 8831TIP3   OH247907   6.169   1.536  16.601 -1.0874 -0.0352 -0.0219
 8831TIP3    H147908   6.249   1.483  16.604 -1.5347 -0.6993  0.6055
 8831TIP3    H247909   6.163   1.576  16.687  0.0943  2.3841 -0.9899
 8832TIP3   OH247910   6.632   4.891  12.408  0.3714  0.5087  0.5084
 8832TIP3    H147911   6.721   4.909  12.379  0.0436  2.8532  0.7969
 8832TIP3    H247912   6.576   4.944  12.352 -0.7734 -0.0697  1.0488
 8833TIP3   OH247913   1.189   2.225  15.859 -0.0927  0.0956 -0.4659
 8833TIP3    H147914   1.111   2.193  15.814 -0.1364 -0.9775  0.3234
 8833TIP3    H247915   1.249   2.150  15.858 -0.6421 -0.4987  2.4979
 8834TIP3   OH247916   4.805   3.907   3.251  0.0144 -0.1594 -0.0114
 8834TIP3    H147917   4.758   3.883   3.331  1.1343 -0.5195  0.5534
 8834TIP3    H247918   4.886   3.948   3.281 -0.8057  2.4034 -0.9455
 8835TIP3   OH247919   6.680   1.878  11.907 -0.5571 -0.7065  0.4371
 8835TIP3    H147920   6.612   1.813  11.927 -1.8998  0.8500  1.2291
 8835TIP3    H247921   6.703   1.914  11.992  0.6454 -0.5861  0.0706
 8836TIP3   OH247922   0.879   3.160  15.856  0.0801  0.2697  0.0485
 8836TIP3    H147923   0.923   3.094  15.910 -0.9713 -2.0839 -1.7895
 8836TIP3    H247924   0.786   3.138  15.864 -0.2837  1.3939 -0.8390
 8837TIP3   OH247925   4.278   3.656   2.343  0.5325 -0.2560 -0.1152
 8837TIP3    H147926   4.348   3.613   2.392 -0.2666 -0.8340  0.5474
 8837TIP3    H247927   4.210   3.589   2.334 -0.6424  0.7616  0.7371
 8838TIP3   OH247928   4.143   4.801  12.400  0.1166  0.3513 -0.1079
 8838TIP3    H147929   4.220   4.760  12.360  0.9653  1.7568  0.0232
 8838TIP3    H247930   4.069   4.757  12.359  0.9629  0.5297 -1.9384
 8839TIP3   OH247931   1.818   4.629  16.525 -0.2733  0.3381 -0.5913
 8839TIP3    H147932   1.791   4.720  16.527 -0.5447  0.2566 -0.4967
 8839TIP3    H247933   1.909   4.630  16.556 -0.0238  0.6594 -1.3092
 8840TIP3   OH247934   0.311   1.229  15.582 -0.2956  0.4459  0.1451
 8840TIP3    H147935   0.358   1.242  15.664  0.7731  2.4108 -0.7142
 8840TIP3    H247936   0.373   1.185  15.525 -0.1931  1.1570 -0.3150
 8841TIP3   OH247937   5.400   0.536   5.250  0.1520  0.0781  0.0797
 8841TIP3    H147938   5.334   0.552   5.182 -0.0604  0.7932  0.4345
 8841TIP3    H247939   5.375   0.453   5.289  0.8589 -0.8618 -1.3726
 8842TIP3   OH247940   2.898   4.704  12.353  0.7141 -0.2656  0.8602
 8842TIP3    H147941   2.988   4.676  12.338  0.7637  1.3252 -2.8871
 8842TIP3    H247942   2.906   4.786  12.402  1.6337  1.2554 -1.6204
 8843TIP3   OH247943   3.088   1.583   1.112 -0.2741  0.0721 -0.0753
 8843TIP3    H147944   3.051   1.576   1.024  0.7814 -1.2261 -0.4551
 8843TIP3    H247945   3.019   1.624   1.164 -1.3785 -0.2436 -1.2393
 8844TIP3   OH247946   2.412   5.316   1.594  0.2359 -0.3991 -0.2966
 8844TIP3    H147947   2.333   5.270   1.619  0.0841  0.2723  0.5054
 8844TIP3    H247948   2.384   5.406   1.579  0.9417  0.0112  0.6782
 8845TIP3   OH247949   4.794   1.542   1.146 -0.2145 -0.1206 -0.1679
 8845TIP3    H147950   4.752   1.458   1.164  1.2440 -1.0704 -1.0038
 8845TIP3    H247951   4.871   1.543   1.204 -1.0297  1.3510  0.9611
 8846TIP3   OH247952   1.160   2.001   3.635 -1.0651  0.0127  0.3181
 8846TIP3    H147953   1.203   1.968   3.714  1.8899 -1.0182 -1.5958
 8846TIP3    H247954   1.132   1.923   3.588  1.2524  0.3033 -1.7224
 8847TIP3   OH247955   6.290   3.490   1.260  0.7661 -0.2141  0.1481
 8847TIP3    H147956   6.233   3.454   1.193  0.3486  2.9746 -1.3961
 8847TIP3    H247957   6.378   3.479   1.226  0.5612  1.3180 -1.0022
 8848TIP3   OH247958   1.115   0.334   0.975  0.0360  0.1402  0.0506
 8848TIP3    H147959   1.100   0.419   1.017  3.9693  0.4099  1.3220
 8848TIP3    H247960   1.100   0.350   0.882 -0.4477  1.9113  0.3881
 8849TIP3   OH247961   2.100   3.974   2.424  0.6671  0.0113  0.1649
 8849TIP3    H147962   2.164   4.044   2.437  0.9736 -0.4744  1.4634
 8849TIP3    H247963   2.121   3.938   2.338  1.4165  0.5921  0.0925
 8850TIP3   OH247964   3.373   5.933   3.786 -0.2982 -0.3275 -0.2021
 8850TIP3    H147965   3.409   5.847   3.761  0.3972  0.3549 -1.6871
 8850TIP3    H247966   3.331   5.965   3.705 -1.3911  0.3327  0.5974
 8851TIP3   OH247967   5.207   4.796   2.959 -0.0037 -0.1458  0.8597
 8851TIP3    H147968   5.246   4.730   2.900  0.0760  0.6567 -0.0061
 8851TIP3    H247969   5.132   4.830   2.910  0.0624  0.5358  1.2273
 8852TIP3   OH247970   4.499   2.768  14.156 -0.0612  0.0049  0.2846
 8852TIP3    H147971   4.460   2.850  14.126 -0.6776  0.6793  2.6934
 8852TIP3    H247972   4.455   2.700  14.106 -0.6497  1.0551 -0.6676
 8853TIP3   OH247973   0.331   1.573  14.845 -0.1471 -0.1037  0.3627
 8853TIP3    H147974   0.420   1.558  14.813 -0.8271 -0.7595 -1.3631
 8853TIP3    H247975   0.302   1.488  14.876 -1.9440 -1.3946 -4.0249
 8854TIP3   OH247976   1.140   0.341   5.127  0.3440  0.8420 -0.5418
 8854TIP3    H147977   1.230   0.314   5.148  0.6491  0.1729 -2.4521
 8854TIP3    H247978   1.109   0.273   5.066 -1.9384  0.3629  1.0391
 8855TIP3   OH247979   2.948   0.363  16.891  0.2618  0.1911 -0.2394
 8855TIP3    H147980   2.888   0.356  16.966  0.3090 -2.5861 -0.3856
 8855TIP3    H247981   2.890   0.370  16.815  0.2092  1.3130 -0.1200
 8856TIP3   OH247982   3.826   5.012   3.936  0.3195  0.0375  0.1881
 8856TIP3    H147983   3.831   5.094   3.886 -1.6603 -0.2605 -0.5955
 8856TIP3    H247984   3.842   4.944   3.870 -2.0397 -0.3457 -0.0931
 8857TIP3   OH247985   5.170   2.026   4.515  0.5990  0.1717 -0.0007
 8857TIP3    H147986   5.108   2.058   4.581  0.3351 -1.1994  0.4485
 8857TIP3    H247987   5.125   1.951   4.475  0.8773  0.8051 -1.5521
 8858TIP3   OH247988   1.670   1.817  12.214 -0.3029 -0.1395  0.1059
 8858TIP3    H147989   1.765   1.808  12.215 -0.1712  1.0849 -0.2009
 8858TIP3    H247990   1.643   1.767  12.137 -0.0750 -1.7532  1.0297
 8859TIP3   OH247991   3.511   6.073  12.622 -0.6536  0.0831 -0.2176
 8859TIP3    H147992   3.541   6.084  12.532  0.0197  3.2506  0.2675
 8859TIP3    H247993   3.416   6.085  12.617 -0.8577 -1.5189 -0.6781
 8860TIP3   OH247994   2.360   6.595  13.682  0.2771 -0.0575 -0.1811
 8860TIP3    H147995   2.420   6.616  13.754 -2.0069  1.1795  1.4735
 8860TIP3    H247996   2.417   6.587  13.606  2.4472  2.6886  0.9532
 8861TIP3   OH247997   5.438   4.624   1.378 -0.1231  0.0552 -0.4013
 8861TIP3    H147998   5.387   4.659   1.451 -2.1190 -1.5535 -0.9048
 8861TIP3    H247999   5.484   4.699   1.343  0.8213  0.9081  2.3994
 8862TIP3   OH248000   1.223   6.752   0.216  0.3559  0.6127 -0.4878
 8862TIP3    H148001   1.131   6.758   0.189  0.1649 -0.8945 -0.2487
 8862TIP3    H248002   1.233   6.662   0.246  1.4306  1.2693  1.2718
 8863TIP3   OH248003   4.016   0.820   2.330  0.2253 -0.1044  0.1801
 8863TIP3    H148004   4.079   0.809   2.401  1.1579 -2.0595 -0.8791
 8863TIP3    H248005   4.064   0.795   2.251 -1.0869  1.0124 -1.0288
 8864TIP3   OH248006   0.281   0.749   2.077  0.3216  0.1706  0.1510
 8864TIP3    H148007   0.247   0.768   2.165 -0.0223 -0.5965  0.1997
 8864TIP3    H248008   0.282   0.653   2.073 -1.4685  0.1492 -1.3486
 8865TIP3   OH248009   6.062   5.031  12.939  0.4285  0.5171 -0.7598
 8865TIP3    H148010   6.103   5.000  13.020 -0.2409 -3.7463 -1.8429
 8865TIP3    H248011   6.129   5.085  12.897  1.7600  0.5973  1.3395
 8866TIP3   OH248012   0.841   6.304  14.410 -0.1052 -0.0962  0.1996
 8866TIP3    H148013   0.843   6.230  14.349  0.1428 -0.3398  0.5041
 8866TIP3    H248014   0.894   6.371  14.366 -1.5226  0.4525 -0.7614
 8867TIP3   OH248015   2.987   4.138  15.216  0.4517  0.1036  0.1730
 8867TIP3    H148016   2.992   4.161  15.308  0.1313  0.9548 -0.0164
 8867TIP3    H248017   3.068   4.090  15.198  0.2665 -0.5460  1.0199
 8868TIP3   OH248018   2.078   2.376   5.899 -0.1037  0.1208 -0.5926
 8868TIP3    H148019   2.154   2.334   5.860  0.6923  0.7778  0.2033
 8868TIP3    H248020   2.082   2.351   5.992 -0.5286  0.6192 -0.4365
 8869TIP3   OH248021   5.687   1.501   1.148  0.2311  0.0552  0.0304
 8869TIP3    H148022   5.716   1.591   1.163  1.8340 -0.4773  0.3224
 8869TIP3    H248023   5.652   1.502   1.059  2.1321  0.5559 -0.7614
 8870TIP3   OH248024   3.832   3.537   7.371  0.0375 -0.1850 -0.1522
 8870TIP3    H148025   3.841   3.591   7.293 -2.2499 -0.3507 -0.6051
 8870TIP3    H248026   3.756   3.481   7.353 -1.3910  0.6470  2.6536
 8871TIP3   OH248027   1.846   6.270   0.382  0.4833  0.3217 -0.3495
 8871TIP3    H148028   1.881   6.342   0.433 -1.6040  2.4922 -1.7568
 8871TIP3    H248029   1.900   6.269   0.302  1.3822 -0.6402  0.2422
 8872TIP3   OH248030   0.547   5.798   0.235  0.3412  0.0803 -0.4018
 8872TIP3    H148031   0.596   5.759   0.307  2.2238 -1.4173 -2.3785
 8872TIP3    H248032   0.504   5.724   0.192  0.2186  0.7821 -1.5219
 8873TIP3   OH248033   5.480   4.350  12.721  0.0498  0.1300  0.5273
 8873TIP3    H148034   5.558   4.405  12.722  0.4929 -0.4947  0.7501
 8873TIP3    H248035   5.431   4.379  12.644 -0.7641  2.2489  1.7678
 8874TIP3   OH248036   0.907   2.886  14.807 -0.0711 -0.1215 -0.3928
 8874TIP3    H148037   0.830   2.937  14.783  0.7546  1.0410 -0.6166
 8874TIP3    H248038   0.913   2.895  14.902 -0.5540 -0.7268 -0.2985
 8875TIP3   OH248039   3.673   2.176  13.755 -0.2014  0.1594  0.2233
 8875TIP3    H148040   3.593   2.145  13.797 -0.6476 -0.1620 -0.8326
 8875TIP3    H248041   3.736   2.184  13.826 -0.9773 -0.2173  0.9702
 8876TIP3   OH248042   6.336   4.106  13.917 -0.3638  0.9649 -0.1449
 8876TIP3    H148043   6.377   4.034  13.869  0.4329  0.5421  1.1296
 8876TIP3    H248044   6.396   4.180  13.905 -0.7319  1.1833 -0.7060
 8877TIP3   OH248045   5.596   1.247  11.110 -0.2708 -0.2849  0.5352
 8877TIP3    H148046   5.678   1.288  11.086 -0.2914  0.3924  1.5713
 8877TIP3    H248047   5.605   1.156  11.082  1.5278 -0.6695  2.1915
 8878TIP3   OH248048   3.888   0.367  15.177 -0.2819 -0.2662  0.2353
 8878TIP3    H148049   3.810   0.314  15.189 -2.2730  2.6351  1.2205
 8878TIP3    H248050   3.875   0.444  15.233  3.4506  0.2720  0.6905
 8879TIP3   OH248051   2.908   5.680   4.848 -0.2305 -0.7154 -0.6734
 8879TIP3    H148052   2.830   5.734   4.834  0.7603  0.4824 -1.8257
 8879TIP3    H248053   2.938   5.703   4.936  0.0832  0.5452 -1.0874
 8880TIP3   OH248054   5.277   4.714   5.823 -0.1684 -0.2839 -0.3479
 8880TIP3    H148055   5.323   4.694   5.905 -1.1127 -1.5262 -0.0892
 8880TIP3    H248056   5.343   4.700   5.755  0.0542 -1.2748  0.0585
 8881TIP3   OH248057   0.394   4.531  13.034  0.2293 -0.1314  0.6802
 8881TIP3    H148058   0.347   4.606  12.997  0.4038  0.0042  0.7344
 8881TIP3    H248059   0.440   4.492  12.960 -0.2032 -0.4397  0.5701
 8882TIP3   OH248060   6.011   0.513   3.362  0.5408  0.0927 -0.5370
 8882TIP3    H148061   6.086   0.519   3.421 -0.0678 -0.2883  0.2945
 8882TIP3    H248062   6.026   0.432   3.313  0.6579 -0.0078 -0.3403
 8883TIP3   OH248063   2.099   6.085  10.753 -0.4921  0.2764  0.6232
 8883TIP3    H148064   2.101   6.113  10.662  0.5518  1.8770  1.1048
 8883TIP3    H248065   2.150   6.004  10.754 -2.2737 -0.9268 -0.5359
 8884TIP3   OH248066   5.837   5.711   0.820  0.3168  0.2177  0.7168
 8884TIP3    H148067   5.915   5.669   0.785  1.3633  1.9207  0.9138
 8884TIP3    H248068   5.768   5.691   0.757  1.1266 -0.4821  0.0347
 8885TIP3   OH248069   5.024   4.019  13.015  0.0101 -0.1399  0.1388
 8885TIP3    H148070   5.058   4.038  13.103 -0.7697  1.3927  0.1466
 8885TIP3    H248071   5.084   3.954  12.980  0.3081 -0.8265  1.8214
 8886TIP3   OH248072   4.818   3.891  13.785  0.4034 -0.0265  0.0812
 8886TIP3    H148073   4.805   3.883  13.880 -2.6986 -0.0310 -0.2144
 8886TIP3    H248074   4.805   3.984  13.767 -2.2734 -0.4345 -0.5831
 8887TIP3   OH248075   4.827   5.027   2.618  0.1199 -0.1453 -0.4977
 8887TIP3    H148076   4.910   5.058   2.582 -0.8000  0.6490 -2.0482
 8887TIP3    H248077   4.762   5.087   2.583 -1.2960 -1.6730 -0.5905
 8888TIP3   OH248078   4.541   1.417   5.615  0.0216  0.1166 -0.5088
 8888TIP3    H148079   4.475   1.418   5.684  1.2556 -0.6412  0.7431
 8888TIP3    H248080   4.585   1.502   5.623  0.2926 -0.0496 -0.2310
 8889TIP3   OH248081   0.960   0.893  14.742 -0.0313 -0.2973 -0.7266
 8889TIP3    H148082   0.905   0.954  14.791  1.1271  0.2441 -0.0452
 8889TIP3    H248083   1.016   0.950  14.689  2.8512 -0.5064  1.7788
 8890TIP3   OH248084   0.049   2.640  11.419 -0.0894 -0.1095 -0.7080
 8890TIP3    H148085   0.092   2.625  11.335  1.0775 -1.4547  0.0760
 8890TIP3    H248086   0.120   2.637  11.483 -1.3153 -2.4681  0.6557
 8891TIP3   OH248087   3.935   0.081  12.187  0.1127  0.2043  0.3274
 8891TIP3    H148088   3.944  -0.011  12.208  1.4207 -0.1233 -1.3727
 8891TIP3    H248089   4.006   0.124  12.235  0.6659  0.0230 -0.3022
 8892TIP3   OH248090   6.423   5.494  16.201  0.5909 -0.4905 -0.1639
 8892TIP3    H148091   6.394   5.421  16.147  3.6388 -0.9794 -1.3567
 8892TIP3    H248092   6.455   5.559  16.138  0.8034  0.5285  0.9557
 8893TIP3   OH248093   5.142   3.613   4.548 -0.1046  0.6270 -0.1196
 8893TIP3    H148094   5.209   3.569   4.601 -2.7963 -2.2622  1.2196
 8893TIP3    H248095   5.069   3.551   4.545 -2.9314  3.6882 -1.1551
 8894TIP3   OH248096   3.544   0.529  13.277 -0.5653  0.2275  0.9463
 8894TIP3    H148097   3.517   0.525  13.368 -0.3338 -1.3440  0.9655
 8894TIP3    H248098   3.560   0.438  13.252  0.9097  0.7586 -0.2055
 8895TIP3   OH248099   1.779   2.289   1.253 -0.5331  0.4031  0.3138
 8895TIP3    H148100   1.861   2.315   1.294  0.6196  1.0604 -2.2438
 8895TIP3    H248101   1.732   2.371   1.238 -0.5370  0.2796 -0.4179
 8896TIP3   OH248102   3.503   3.645   0.979  0.3695 -0.2994 -0.1815
 8896TIP3    H148103   3.484   3.646   1.073 -0.0670 -0.1026 -0.2687
 8896TIP3    H248104   3.580   3.701   0.970  1.0974 -1.2324  0.1944
 8897TIP3   OH248105   5.204   3.502   0.178 -0.8152  0.2589  0.0331
 8897TIP3    H148106   5.248   3.582   0.150 -0.9715  0.5925  0.7128
 8897TIP3    H248107   5.115   3.509   0.142 -1.2749  1.0772  1.2587
 8898TIP3   OH248108   1.741   6.621  12.529  0.0182  0.6120 -0.3840
 8898TIP3    H148109   1.814   6.682  12.516  2.4184 -2.3184 -1.8026
 8898TIP3    H248110   1.732   6.615  12.624  3.4322 -0.7133  0.0115
 8899TIP3   OH248111   4.119   4.012   3.618  0.0986  0.3135  0.1729
 8899TIP3    H148112   4.047   4.029   3.678 -0.7459  0.2424 -0.8007
 8899TIP3    H248113   4.086   4.040   3.532  1.0560 -0.1540 -0.3620
 8900TIP3   OH248114   2.744   3.586   0.090 -0.0681 -0.2331 -0.6268
 8900TIP3    H148115   2.754   3.661   0.031  1.1715 -0.3580 -0.5980
 8900TIP3    H248116   2.655   3.595   0.125 -0.0859  0.9907 -0.9369
 8901TIP3   OH248117   4.270   0.817  16.287  0.2389  0.1208 -0.2164
 8901TIP3    H148118   4.343   0.875  16.266  1.3845 -0.4340  1.8552
 8901TIP3    H248119   4.203   0.875  16.323  0.5285  0.4112 -0.1350
 8902TIP3   OH248120   2.838   6.636  13.830  0.0717  0.0969  0.3623
 8902TIP3    H148121   2.852   6.729  13.811 -2.5478  0.4890 -0.0501
 8902TIP3    H248122   2.888   6.590  13.762  1.9073  1.1243  0.9373
 8903TIP3   OH248123   3.330   3.625  11.049  0.7721 -0.1472 -0.0814
 8903TIP3    H148124   3.339   3.667  11.135  2.5472 -0.6946  0.0431
 8903TIP3    H248125   3.407   3.653  11.000  1.2874 -2.0942 -0.4802
 8904TIP3   OH248126   1.831   5.991   2.421 -0.3274  0.2638 -0.3153
 8904TIP3    H148127   1.753   5.941   2.397 -0.3570  0.3806 -0.4683
 8904TIP3    H248128   1.838   5.981   2.516 -0.8902  0.7620 -0.2097
 8905TIP3   OH248129   6.742   5.282  11.219  0.1938 -0.4073  0.3429
 8905TIP3    H148130   6.684   5.243  11.153 -1.9047  0.1175  1.7894
 8905TIP3    H248131   6.774   5.208  11.270 -0.3791 -0.5762  0.4554
 8906TIP3   OH248132   3.457   3.879  12.032  0.4980 -0.1064  0.4146
 8906TIP3    H148133   3.507   3.886  11.951 -1.1532  0.0810 -0.6312
 8906TIP3    H248134   3.421   3.790  12.030 -0.1146  0.1337  0.5951
 8907TIP3   OH248135   0.137   4.904   4.818 -0.1413 -0.1412  0.3826
 8907TIP3    H148136   0.099   4.831   4.770  3.3370 -1.3647 -0.8357
 8907TIP3    H248137   0.185   4.954   4.751 -1.0568  2.3900  1.4708
 8908TIP3   OH248138   0.491   0.140  10.924  0.3492 -0.3540  0.4616
 8908TIP3    H148139   0.431   0.204  10.887  1.3122 -0.4853 -1.4956
 8908TIP3    H248140   0.436   0.082  10.976 -0.9803  0.3588 -0.1059
 8909TIP3   OH248141   2.560   6.061   4.731 -0.1015 -0.1188  0.3536
 8909TIP3    H148142   2.476   6.105   4.722 -0.6878 -1.0160  1.1419
 8909TIP3    H248143   2.620   6.129   4.759  0.2228  1.2377 -3.1460
 8910TIP3   OH248144   6.102   4.606   5.470 -0.1200 -0.0797  0.3016
 8910TIP3    H148145   6.027   4.586   5.527  0.2726 -0.5744  0.6520
 8910TIP3    H248146   6.176   4.561   5.511  0.5759  1.1929  0.5044
 8911TIP3   OH248147   0.650   2.219   4.353  0.1198  0.1137 -0.0703
 8911TIP3    H148148   0.591   2.172   4.295  3.5082 -3.4131 -1.1713
 8911TIP3    H248149   0.705   2.272   4.295 -1.5860  3.1417  0.8935
 8912TIP3   OH248150   1.588   2.769   5.597 -0.1186 -0.1620  0.0219
 8912TIP3    H148151   1.553   2.711   5.665 -1.4216 -0.0731 -0.5489
 8912TIP3    H248152   1.680   2.781   5.621 -0.6105  0.1256  1.9645
 8913TIP3   OH248153   4.211   0.693  14.831  0.1723  0.6043  0.3027
 8913TIP3    H148154   4.170   0.649  14.905 -2.3946 -0.0920 -1.3816
 8913TIP3    H248155   4.305   0.685  14.846 -0.2483 -1.7890  2.1527
 8914TIP3   OH248156   0.013   6.753   1.393 -0.0691  0.4546  0.4393
 8914TIP3    H148157   0.054   6.771   1.308  0.4577  4.0766  1.2767
 8914TIP3    H248158  -0.069   6.801   1.390 -0.9760 -0.9872  1.3185
 8915TIP3   OH248159   0.958   0.644   0.842 -0.6211  0.0258  0.0469
 8915TIP3    H148160   0.956   0.633   0.937  0.9219 -1.6017 -0.0589
 8915TIP3    H248161   0.940   0.557   0.807  0.9389  0.1216 -1.1021
 8916TIP3   OH248162   3.310   1.135   5.765 -0.0079  0.0054 -0.4485
 8916TIP3    H148163   3.239   1.133   5.829  0.6731 -1.5206  0.3033
 8916TIP3    H248164   3.366   1.061   5.788  1.7294  1.0406 -1.1550
 8917TIP3   OH248165   0.350   2.602  14.202  0.2003  0.0046 -0.4089
 8917TIP3    H148166   0.271   2.656  14.205 -0.1307 -0.4419 -0.9123
 8917TIP3    H248167   0.420   2.662  14.175  0.3218  0.7126  1.3234
 8918TIP3   OH248168   1.133   4.873   0.126  0.0210  0.0768  0.2102
 8918TIP3    H148169   1.187   4.795   0.118  0.1202  0.2327 -0.8489
 8918TIP3    H248170   1.074   4.855   0.199 -1.8036 -2.1234 -1.6412
 8919TIP3   OH248171   2.782   5.594   4.604  0.0401  0.2618 -0.6441
 8919TIP3    H148172   2.867   5.551   4.611 -0.0385  0.2862  0.6758
 8919TIP3    H248173   2.727   5.532   4.556 -0.2459 -1.4275  1.7017
 8920TIP3   OH248174   4.095   2.736   0.466  0.0210  0.1813 -0.3298
 8920TIP3    H148175   4.081   2.801   0.535 -1.0240  0.2421 -0.5776
 8920TIP3    H248176   4.117   2.656   0.512 -1.7788 -0.0731  0.1750
 8921TIP3   OH248177   3.262   4.424   5.777  0.3964 -0.5288  0.7160
 8921TIP3    H148178   3.279   4.473   5.857  0.7861 -0.4155  0.5652
 8921TIP3    H248179   3.204   4.353   5.804 -0.2013  0.0334  0.9314
 8922TIP3   OH248180   2.809   4.527   0.070  0.1746 -0.2362  0.0736
 8922TIP3    H148181   2.831   4.541  -0.022  1.3964 -2.2120  0.0005
 8922TIP3    H248182   2.715   4.512   0.071  0.3789 -1.8742 -1.1479
 8923TIP3   OH248183   2.795   0.933  11.538  0.1322  0.2958 -0.0862
 8923TIP3    H148184   2.770   1.022  11.513  1.2184  0.7102  0.2292
 8923TIP3    H248185   2.823   0.941  11.630 -0.9585 -0.6182  0.3389
 8924TIP3   OH248186   4.107   3.710   7.330  0.4928  1.0040  0.2990
 8924TIP3    H148187   4.142   3.670   7.251 -1.5805  0.0080 -0.1896
 8924TIP3    H248188   4.094   3.802   7.307  0.3035  0.8109 -0.3879
 8925TIP3   OH248189   4.466   4.608   1.675 -0.0204  0.0839  0.2255
 8925TIP3    H148190   4.533   4.561   1.725  0.8950 -2.2963 -2.9716
 8925TIP3    H248191   4.405   4.639   1.742  0.7829 -3.3307  2.8047
 8926TIP3   OH248192   0.765   0.492  16.970 -0.1590  0.7234 -0.1571
 8926TIP3    H148193   0.746   0.483  16.877 -2.8830 -1.3436  0.4583
 8926TIP3    H248194   0.734   0.580  16.992 -0.9770  0.6481 -0.9383
 8927TIP3   OH248195   1.676   5.174   2.060 -0.1111  0.1690 -0.6938
 8927TIP3    H148196   1.638   5.136   1.981  0.1274 -0.8103 -0.3428
 8927TIP3    H248197   1.637   5.125   2.132 -1.3791  1.9482 -0.1012
 8928TIP3   OH248198   5.004   0.085  11.574  0.4986 -0.6443  0.2501
 8928TIP3    H148199   4.922   0.038  11.588 -0.6088  1.1180  0.0569
 8928TIP3    H248200   5.008   0.098  11.480 -0.6640  1.9066  0.4397
 8929TIP3   OH248201   3.383   0.550   6.557  0.0867  0.1657  0.2000
 8929TIP3    H148202   3.438   0.608   6.609  0.0058  1.6824 -1.2945
 8929TIP3    H248203   3.294   0.585   6.568  0.0660  0.5114 -0.8824
 8930TIP3   OH248204   0.137   4.394  16.579  0.3014 -0.4051 -0.2489
 8930TIP3    H148205   0.120   4.302  16.560 -1.0440  0.1961 -2.2491
 8930TIP3    H248206   0.054   4.438  16.561  0.4934  1.0577  2.0228
 8931TIP3   OH248207   5.727   4.862  14.963 -0.2608  0.6180  1.1319
 8931TIP3    H148208   5.756   4.818  14.883 -0.4338  0.0520  1.3732
 8931TIP3    H248209   5.671   4.932  14.933 -0.7764  0.0626  0.7765
 8932TIP3   OH248210   3.838   0.848   4.241  0.2384  0.0856  0.0355
 8932TIP3    H148211   3.880   0.910   4.182 -0.0715  0.0679 -0.2061
 8932TIP3    H248212   3.765   0.897   4.280 -0.7855 -0.4706 -1.0912
 8933TIP3   OH248213   0.188   1.242   1.367 -0.1804  0.5140 -0.1139
 8933TIP3    H148214   0.217   1.333   1.372  0.4886  0.4508 -1.9389
 8933TIP3    H248215   0.216   1.213   1.280 -2.5720 -0.6816 -0.5721
 8934TIP3   OH248216   0.556   2.473  15.763  0.2864  0.0385 -0.4858
 8934TIP3    H148217   0.620   2.445  15.697 -0.6774  0.5945 -1.6871
 8934TIP3    H248218   0.604   2.534  15.818  1.9293 -2.5147  1.1264
 8935TIP3   OH248219   1.694   0.891   0.051 -0.4413  0.5220 -0.2686
 8935TIP3    H148220   1.722   0.928   0.135 -0.0252  0.8390 -0.5434
 8935TIP3    H248221   1.729   0.801   0.052  1.1318  1.0981 -0.8532
 8936TIP3   OH248222   5.815   0.221  11.482  0.3938 -0.1394  0.1203
 8936TIP3    H148223   5.731   0.200  11.524  0.1442  1.5023  0.4883
 8936TIP3    H248224   5.794   0.287  11.417  1.4141  0.3345  0.2547
 8937TIP3   OH248225   2.356   6.046   0.249  0.0290 -0.1240 -0.4298
 8937TIP3    H148226   2.415   6.026   0.322 -1.7412 -0.3113  1.0267
 8937TIP3    H248227   2.274   6.071   0.291 -0.8105  0.6093 -2.3762
 8938TIP3   OH248228   4.515   6.358  11.160  0.0140  0.1255  0.1393
 8938TIP3    H148229   4.505   6.368  11.254  2.9972  0.1567  0.5606
 8938TIP3    H248230   4.565   6.435  11.133  0.6606 -0.7046 -1.1509
 8939TIP3   OH248231   5.784   2.913  14.209  0.0961 -0.3081  0.0299
 8939TIP3    H148232   5.762   2.888  14.299  1.8379  0.9137  0.8458
 8939TIP3    H248233   5.701   2.942  14.171 -0.3875  0.7420  1.7810
 8940TIP3   OH248234   2.437   5.769  14.424  0.2259  0.1099  0.0947
 8940TIP3    H148235   2.357   5.777  14.475  1.1783  0.3387  1.5968
 8940TIP3    H248236   2.464   5.678  14.436 -0.3431 -0.2682 -1.2822
 8941TIP3   OH248237   5.237   6.272  15.913  0.5362 -0.3736  0.0281
 8941TIP3    H148238   5.144   6.249  15.918  0.4004 -0.1878 -1.2591
 8941TIP3    H248239   5.249   6.338  15.981 -0.2931 -0.3534  0.1655
 8942TIP3   OH248240   2.365   1.028   4.187  0.5676  0.3324 -0.2720
 8942TIP3    H148241   2.418   1.105   4.207 -0.7500  0.9145  1.1528
 8942TIP3    H248242   2.352   0.985   4.271  0.2290 -0.7608 -0.8672
 8943TIP3   OH248243   6.509   3.470   5.897 -0.5017  0.1466 -0.1954
 8943TIP3    H148244   6.529   3.380   5.874 -2.8601 -0.8367  1.2599
 8943TIP3    H248245   6.518   3.518   5.815  1.6617 -1.1976 -0.8130
 8944TIP3   OH248246   3.193   6.497   0.957  0.3413  0.7503  0.0865
 8944TIP3    H148247   3.179   6.462   0.869 -0.0872 -0.0629  0.4613
 8944TIP3    H248248   3.193   6.420   1.013 -1.2531  1.3725  1.0212
 8945TIP3   OH248249   5.513   1.685  11.304  0.6075  0.0201 -0.3743
 8945TIP3    H148250   5.516   1.733  11.222  0.4155 -0.0648 -0.4316
 8945TIP3    H248251   5.447   1.617  11.290  0.6671 -0.0767 -0.1952
 8946TIP3   OH248252   3.648   6.343  14.985 -0.0251 -0.0192 -0.2583
 8946TIP3    H148253   3.618   6.418  14.934  0.4443  1.5561  1.6595
 8946TIP3    H248254   3.741   6.336  14.966  0.1278  0.5009  0.2807
 8947TIP3   OH248255   3.330   3.750  16.777  0.4296 -0.3664  0.2803
 8947TIP3    H148256   3.335   3.685  16.707  1.0109  0.0285 -0.0450
 8947TIP3    H248257   3.245   3.793  16.764  1.4801  1.2633 -1.5834
 8948TIP3   OH248258   3.520   3.755  11.778  0.3046 -0.0613  0.3624
 8948TIP3    H148259   3.579   3.697  11.826 -0.2992 -0.3259  0.7960
 8948TIP3    H248260   3.432   3.726  11.804 -0.0045  0.8750  0.3840
 8949TIP3   OH248261   4.005   1.590   1.602 -0.3388  0.2987  0.0293
 8949TIP3    H148262   3.982   1.509   1.648  0.5936 -0.1262 -0.2281
 8949TIP3    H248263   4.016   1.564   1.511 -0.2983  0.7748 -0.1064
 8950TIP3   OH248264   4.987   6.197  15.846 -0.1713  0.7074  0.0773
 8950TIP3    H148265   4.945   6.207  15.761  0.3125  1.4250 -0.0809
 8950TIP3    H248266   4.967   6.107  15.872 -0.9655  0.7274 -0.4395
 8951TIP3   OH248267   5.094   0.458  13.921 -0.1512 -1.2038  0.1939
 8951TIP3    H148268   5.075   0.494  13.835  0.8820 -0.3997  0.2765
 8951TIP3    H248269   5.012   0.416  13.949 -1.0078 -0.0180 -0.4619
 8952TIP3   OH248270   5.862   6.483  11.222  0.4319 -0.2493  0.2359
 8952TIP3    H148271   5.904   6.504  11.139 -0.4904  1.2203  0.1046
 8952TIP3    H248272   5.852   6.388  11.219 -1.4326 -0.0924 -2.3022
 8953TIP3   OH248273   3.084   3.241  15.389  0.1093  0.3421 -0.0732
 8953TIP3    H148274   3.153   3.284  15.439  0.3731  0.5684 -0.6203
 8953TIP3    H248275   3.058   3.305  15.323  0.7694 -0.4530 -1.1417
 8954TIP3   OH248276   5.516   1.582  16.950  0.0008 -0.3572  0.1699
 8954TIP3    H148277   5.502   1.671  16.983 -2.3073 -0.8663  0.7029
 8954TIP3    H248278   5.546   1.533  17.026 -0.8762 -0.5026  0.4357
 8955TIP3   OH248279   2.158   2.028  12.705 -0.0925 -0.5777 -0.3386
 8955TIP3    H148280   2.122   2.091  12.769 -1.2788 -0.8241 -0.7393
 8955TIP3    H248281   2.199   1.961  12.759  0.8025  0.2973  0.1081
 8956TIP3   OH248282   1.779   3.301   4.979 -0.1444  0.2037  0.0127
 8956TIP3    H148283   1.773   3.330   5.070 -1.4885  0.0356 -0.0003
 8956TIP3    H248284   1.789   3.206   4.984  0.4971  0.2620 -0.0175
 8957TIP3   OH248285   5.511   6.445  13.488  0.3273  0.3688  0.2950
 8957TIP3    H148286   5.480   6.357  13.510 -1.0080  0.8308  0.3952
 8957TIP3    H248287   5.509   6.492  13.571 -0.3135  0.8588  0.0161
 8958TIP3   OH248288   3.863   2.844  12.499 -0.3190  0.3724  0.3463
 8958TIP3    H148289   3.874   2.890  12.582 -1.3834  0.6553  0.3386
 8958TIP3    H248290   3.804   2.899  12.448 -1.5291 -0.9149  0.2882
 8959TIP3   OH248291   0.100   0.879  14.064 -0.1706  0.0936 -0.6085
 8959TIP3    H148292   0.184   0.843  14.092 -0.3345  0.4741  0.4299
 8959TIP3    H248293   0.035   0.820  14.103 -0.4054 -0.9739 -2.4840
 8960TIP3   OH248294   0.755   4.577   0.105 -0.3902  0.1557 -0.8066
 8960TIP3    H148295   0.726   4.667   0.092  4.7491  2.4169  0.7188
 8960TIP3    H248296   0.709   4.549   0.185 -0.7019  2.2074 -0.2003
 8961TIP3   OH248297   2.587   3.219   4.529 -0.1310 -0.1694 -0.4497
 8961TIP3    H148298   2.532   3.295   4.509 -1.0570 -1.2902 -2.6341
 8961TIP3    H248299   2.602   3.224   4.623 -0.9591  2.1671 -0.3656
 8962TIP3   OH248300   5.655   1.867  11.985  0.1457  0.0054 -0.1692
 8962TIP3    H148301   5.621   1.875  12.075  0.5908  1.7668 -0.1333
 8962TIP3    H248302   5.589   1.815  11.940  0.0542 -1.1850  1.2299
 8963TIP3   OH248303   5.776   3.335   2.731 -0.2919 -0.4287  0.2626
 8963TIP3    H148304   5.840   3.406   2.726 -1.7512  0.9255 -0.4135
 8963TIP3    H248305   5.812   3.266   2.675 -0.0963  0.8918 -1.3041
 8964TIP3   OH248306   5.585   6.074   1.014  0.3502  0.5282 -0.4200
 8964TIP3    H148307   5.542   6.010   1.070  1.2984 -0.7156 -1.0694
 8964TIP3    H248308   5.581   6.156   1.064 -1.1304  0.0548  0.3073
 8965TIP3   OH248309   2.180   4.778  11.450  0.0246 -1.0401  0.4575
 8965TIP3    H148310   2.097   4.793  11.497 -1.2911  0.1305 -2.0308
 8965TIP3    H248311   2.164   4.700  11.397  0.8886 -1.3846  0.6889
 8966TIP3   OH248312   5.009   1.892  16.458  0.3135  0.5196 -0.4958
 8966TIP3    H148313   5.022   1.806  16.417 -2.4701  0.9247 -2.5279
 8966TIP3    H248314   4.947   1.937  16.400 -2.7153  1.7904  3.3118
 8967TIP3   OH248315   3.760   5.473   6.545 -0.1101 -0.0317 -0.0485
 8967TIP3    H148316   3.852   5.491   6.525  0.7741 -2.2885  1.5649
 8967TIP3    H248317   3.739   5.395   6.494 -1.6129  1.1942 -1.4194
 8968TIP3   OH248318   4.327   5.363  12.189  0.1615 -0.3853 -0.1534
 8968TIP3    H148319   4.292   5.284  12.230  0.0055 -0.3354 -0.1889
 8968TIP3    H248320   4.380   5.404  12.257  0.3623 -0.5958 -0.1813
 8969TIP3   OH248321   4.849   4.766  11.023 -0.0772  0.1529 -0.0252
 8969TIP3    H148322   4.941   4.789  11.040  0.1781 -0.7067 -0.2134
 8969TIP3    H248323   4.801   4.846  11.043  0.7247  0.6538 -0.0275
 8970TIP3   OH248324   5.361   0.672  15.358 -0.5110 -0.2341 -0.6672
 8970TIP3    H148325   5.439   0.645  15.310  0.4874  2.0760 -0.4792
 8970TIP3    H248326   5.326   0.591  15.395  1.4533 -1.4025 -1.2503
 8971TIP3   OH248327   0.498   1.358   1.901 -0.2298 -0.0027 -0.0941
 8971TIP3    H148328   0.440   1.333   1.830 -1.5611  1.2277  0.5054
 8971TIP3    H248329   0.520   1.450   1.883  1.6338 -0.4655 -0.3582
 8972TIP3   OH248330   2.882   0.137  10.698 -0.3410  0.4261 -0.1352
 8972TIP3    H148331   2.808   0.170  10.647  0.0381  0.6968 -0.5208
 8972TIP3    H248332   2.959   0.165  10.649  0.1590  2.9865  1.8893
 8973TIP3   OH248333   1.968   1.035  13.871 -0.1021 -0.1490  0.3401
 8973TIP3    H148334   1.954   0.969  13.939 -1.3473 -0.3893 -0.1321
 8973TIP3    H248335   2.052   1.011  13.832  0.3288 -0.3666  1.3728
 8974TIP3   OH248336   1.945   4.836  11.580 -0.1272 -0.0200 -0.1503
 8974TIP3    H148337   1.924   4.925  11.550  0.3948 -0.6650 -2.6875
 8974TIP3    H248338   1.860   4.793  11.590 -0.4293 -0.6137 -3.7839
 8975TIP3   OH248339   1.403   3.608   0.641  0.3697  0.2701  0.2992
 8975TIP3    H148340   1.315   3.607   0.679 -0.3365  0.1926 -1.2467
 8975TIP3    H248341   1.462   3.595   0.716 -0.8944  0.8577  1.4448
 8976TIP3   OH248342   1.425   2.058  12.515 -0.0201  0.3090 -0.0267
 8976TIP3    H148343   1.363   2.041  12.586  1.0230 -0.9531  0.6144
 8976TIP3    H248344   1.458   1.972  12.491  0.6229  0.8507 -1.1725
 8977TIP3   OH248345   4.053   0.201  12.401  0.0043 -0.1911  0.1726
 8977TIP3    H148346   3.970   0.248  12.405  0.6606  1.0063  0.1273
 8977TIP3    H248347   4.094   0.217  12.486  0.0332 -1.0908  0.3379
 8978TIP3   OH248348   2.612   3.227  15.338  0.1671 -0.6596 -0.3320
 8978TIP3    H148349   2.663   3.308  15.339  0.6033 -0.9266 -0.4344
 8978TIP3    H248350   2.524   3.253  15.365  0.3520 -0.1844 -0.1814
 8979TIP3   OH248351   0.429   5.561   5.992  0.6620 -0.4262  0.1563
 8979TIP3    H148352   0.349   5.550   5.940  0.8661  1.0279 -0.5310
 8979TIP3    H248353   0.411   5.517   6.075 -0.1273 -1.7674 -0.6966
 8980TIP3   OH248354   6.793   1.386   3.897 -0.5684  0.4453  0.3077
 8980TIP3    H148355   6.831   1.410   3.982 -2.7145  2.4994  0.7737
 8980TIP3    H248356   6.777   1.469   3.853 -2.3473 -0.4299 -0.8162
 8981TIP3   OH248357   3.150   4.691   0.494 -0.4294  0.6638 -0.0833
 8981TIP3    H148358   3.081   4.638   0.454  1.0712 -0.9362 -0.6971
 8981TIP3    H248359   3.222   4.686   0.432  0.9845  0.4953  1.5021
 8982TIP3   OH248360   2.367   6.474  14.827 -0.0990 -0.5476 -0.0952
 8982TIP3    H148361   2.339   6.383  14.823 -0.2731 -0.4426 -2.0920
 8982TIP3    H248362   2.285   6.523  14.838 -0.1980 -0.5501 -0.7588
 8983TIP3   OH248363   1.663   4.626  12.669  0.8218  0.4756 -0.5942
 8983TIP3    H148364   1.688   4.699  12.612 -1.0159  1.1180 -0.6465
 8983TIP3    H248365   1.614   4.667  12.741  0.4376 -0.6229 -0.1997
 8984TIP3   OH248366   5.028   1.769  12.358  0.3181 -0.2574  0.4578
 8984TIP3    H148367   5.028   1.710  12.433  1.7974 -0.1846  0.5433
 8984TIP3    H248368   5.112   1.815  12.363  0.3830 -0.1420 -1.1607
 8985TIP3   OH248369   1.835   1.049   4.698 -0.3083 -0.0880  0.4704
 8985TIP3    H148370   1.864   0.963   4.667  0.7622  0.6041 -0.5530
 8985TIP3    H248371   1.765   1.030   4.760  1.6239 -1.8210  2.2484
 8986TIP3   OH248372   1.186   1.411  16.182 -0.6393 -0.0426 -0.0688
 8986TIP3    H148373   1.191   1.434  16.089 -1.6565 -2.4425 -0.7986
 8986TIP3    H248374   1.247   1.338  16.192 -0.8589 -0.0896  1.0282
 8987TIP3   OH248375   6.146   0.632  12.915  0.5315  0.0264  0.7248
 8987TIP3    H148376   6.073   0.652  12.973 -0.1277  1.4358 -0.5337
 8987TIP3    H248377   6.217   0.688  12.944 -0.2282  1.7811 -0.6135
 8988TIP3   OH248378   0.618   3.640   2.780 -0.1800  0.0504  0.3562
 8988TIP3    H148379   0.644   3.561   2.733 -0.5167 -0.1385  0.4869
 8988TIP3    H248380   0.563   3.609   2.852 -0.8620  0.4531  0.0230
 8989TIP3   OH248381   1.219   4.545   2.321 -0.2437 -0.1000  0.3755
 8989TIP3    H148382   1.184   4.482   2.258  2.0955  0.4557 -1.6315
 8989TIP3    H248383   1.275   4.493   2.379  0.6157 -0.1088 -0.4364
 8990TIP3   OH248384   5.970   1.543   3.349  0.8230 -0.2812  0.2848
 8990TIP3    H148385   5.951   1.579   3.436 -0.3735 -1.6253  0.6238
 8990TIP3    H248386   5.915   1.465   3.344 -0.7939  0.8898 -2.5277
 8991TIP3   OH248387   1.118   0.175  12.609 -0.0674 -0.5026  0.2666
 8991TIP3    H148388   1.115   0.101  12.669 -0.1935  0.5547  1.6360
 8991TIP3    H248389   1.050   0.157  12.545  0.1495 -1.7303  0.3634
 8992TIP3   OH248390   5.867   3.269  11.699  0.5629  0.2469 -0.1850
 8992TIP3    H148391   5.950   3.227  11.677  0.7654  0.2465  0.5439
 8992TIP3    H248392   5.835   3.220  11.775  0.0258  0.4209 -0.2935
 8993TIP3   OH248393   0.189   2.958  15.595 -0.1037  0.1532 -0.0176
 8993TIP3    H148394   0.169   3.046  15.564 -0.7549 -0.6555 -2.1437
 8993TIP3    H248395   0.103   2.916  15.602  0.1408 -0.1071  1.7151
 8994TIP3   OH248396   1.187   1.094  13.932 -0.2315 -0.3551 -0.5913
 8994TIP3    H148397   1.252   1.029  13.958  0.0471  0.1037 -0.1603
 8994TIP3    H248398   1.222   1.132  13.851 -0.2922 -0.5847 -0.7270
 8995TIP3   OH248399   5.867   3.774  11.297  0.3012 -0.1256 -0.1702
 8995TIP3    H148400   5.777   3.756  11.322  0.5343 -0.6573  0.2951
 8995TIP3    H248401   5.879   3.867  11.317  0.0087 -0.1717  0.2346
 8996TIP3   OH248402   3.096   4.341  13.098 -1.0294  0.3447 -0.1900
 8996TIP3    H148403   3.130   4.394  13.025 -1.4194 -1.6567 -1.9196
 8996TIP3    H248404   3.002   4.359  13.099 -0.9640  0.6932  0.1279
 8997TIP3   OH248405   3.839   3.170   1.545  0.2556  0.2414  0.2695
 8997TIP3    H148406   3.755   3.145   1.507  0.4274  0.2859 -0.1412
 8997TIP3    H248407   3.855   3.258   1.512  1.2463 -0.3787 -1.0198
 8998TIP3   OH248408   2.084   4.573   2.948 -0.1636  0.0417 -0.2002
 8998TIP3    H148409   2.075   4.478   2.934 -1.4127  0.1170 -0.0802
 8998TIP3    H248410   2.047   4.612   2.868 -0.5968  0.4231  0.1776
 8999TIP3   OH248411   1.211   2.807   1.038 -0.0522 -0.2475 -0.3675
 8999TIP3    H148412   1.174   2.810   1.126 -0.3613 -0.6035 -0.4800
 8999TIP3    H248413   1.139   2.774   0.983  0.1932 -0.2027 -0.7184
 9000TIP3   OH248414   4.467   1.097   1.901  0.8829  0.2447 -0.0597
 9000TIP3    H148415   4.424   1.047   1.831  1.7146  0.5359 -0.8058
 9000TIP3    H248416   4.397   1.118   1.962  0.1618 -0.1636 -0.7243
 9001TIP3   OH248417   6.538   4.030   3.138 -0.6832 -0.4423 -0.1884
 9001TIP3    H148418   6.590   4.107   3.119 -0.7779 -0.6755 -1.4575
 9001TIP3    H248419   6.577   3.993   3.217  1.0508 -0.5878 -1.0792
 9002TIP3   OH248420   0.538   3.482  11.452 -0.0970  0.2736  0.4813
 9002TIP3    H148421   0.520   3.565  11.495 -1.4934 -0.2900  1.0378
 9002TIP3    H248422   0.511   3.415  11.515  1.5173 -0.6342  0.2704
 9003TIP3   OH248423   3.715   5.556  10.372 -0.1101  0.1191  0.8924
 9003TIP3    H148424   3.666   5.553  10.290  0.1218  3.9206  0.4106
 9003TIP3    H248425   3.648   5.545  10.440 -0.3728 -2.5923  0.2738
 9004TIP3   OH248426   1.950   2.039   0.563  0.1142 -0.1037 -0.8365
 9004TIP3    H148427   1.970   2.114   0.619 -1.4363 -0.5978  0.4230
 9004TIP3    H248428   2.020   1.976   0.582  0.5044  0.3646 -0.6893
 9005TIP3   OH248429   1.199   2.502   4.055  0.0563  0.0072  0.0802
 9005TIP3    H148430   1.231   2.417   4.024 -0.3022 -0.0409 -0.1619
 9005TIP3    H248431   1.261   2.565   4.019 -1.0867  0.0909 -1.9034
 9006TIP3   OH248432   1.584   4.771   2.447  0.0241  0.0396 -0.5651
 9006TIP3    H148433   1.622   4.686   2.468 -0.7160 -0.1915 -0.0991
 9006TIP3    H248434   1.654   4.834   2.461  0.4925 -0.4683 -0.6289
 9007TIP3   OH248435   2.199   1.471   1.664 -0.4760 -0.3330 -0.5794
 9007TIP3    H148436   2.292   1.490   1.671 -1.0453  2.3981  1.2437
 9007TIP3    H248437   2.175   1.500   1.576  0.3162 -0.6759 -0.9137
 9008TIP3   OH248438   1.965   1.176   1.619 -0.1850 -0.0332  0.3652
 9008TIP3    H148439   2.018   1.250   1.648  0.8377 -0.9429  0.8913
 9008TIP3    H248440   1.913   1.152   1.695 -0.8179  0.3904  0.0727
 9009TIP3   OH248441   1.420   3.329   3.260 -0.0974 -0.1949  0.5367
 9009TIP3    H148442   1.403   3.422   3.276 -0.9379 -0.5842  2.0391
 9009TIP3    H248443   1.513   3.318   3.282  0.9007  0.8489 -2.5842
 9010TIP3   OH248444   0.624   6.433   0.057  0.1065 -0.1172 -0.0301
 9010TIP3    H148445   0.652   6.475   0.138 -0.8975  0.5324  0.0028
 9010TIP3    H248446   0.611   6.341   0.081  0.5289 -0.0797  0.3566
 9011TIP3   OH248447   3.856   4.366  14.198  0.0440 -0.2341 -0.6185
 9011TIP3    H148448   3.761   4.373  14.183 -0.2077 -1.2938  0.3392
 9011TIP3    H248449   3.895   4.383  14.112 -0.9324  1.5077 -0.7643
 9012TIP3   OH248450   6.394   4.131   3.961  0.4594 -0.2123  0.4486
 9012TIP3    H148451   6.426   4.145   3.872 -0.3115  1.1753  0.3612
 9012TIP3    H248452   6.456   4.179   4.016  0.9059 -1.0267  0.6696
 9013TIP3   OH248453   6.451   3.913   1.644  0.3629  0.2938 -0.5903
 9013TIP3    H148454   6.520   3.972   1.616  1.3555 -0.2734  0.5698
 9013TIP3    H248455   6.474   3.829   1.606  0.9188 -0.1385  0.6521
 9014TIP3   OH248456   3.533   3.005   2.417  0.0836  0.1921  0.5392
 9014TIP3    H148457   3.480   3.000   2.337 -1.4544  2.2126  1.3443
 9014TIP3    H248458   3.586   3.084   2.406  1.5667 -0.7699  0.5720
 9015TIP3   OH248459   0.630   6.795   1.098 -0.6025 -0.0977 -0.4159
 9015TIP3    H148460   0.555   6.841   1.136 -0.1587  0.5093 -0.2554
 9015TIP3    H248461   0.659   6.735   1.167 -1.4944 -1.0042 -0.8057
 9016TIP3   OH248462   0.859   5.874  12.196  0.4146 -0.2954  1.0725
 9016TIP3    H148463   0.932   5.855  12.255  0.4935  0.3148  1.1786
 9016TIP3    H248464   0.896   5.864  12.109  1.0826  1.5457  1.0938
 9017TIP3   OH248465   2.007   4.023   0.665 -1.1058 -0.4050  0.2348
 9017TIP3    H148466   1.956   4.092   0.622  0.8474 -0.8084 -3.0080
 9017TIP3    H248467   2.061   4.070   0.729 -1.5679  0.7312 -0.1778
 9018TIP3   OH248468   4.379   1.752  16.710 -0.0146 -0.1666  0.1527
 9018TIP3    H148469   4.330   1.821  16.665  0.2614  0.0885  0.2431
 9018TIP3    H248470   4.383   1.680  16.646  0.3285  0.1725 -0.2160
 9019TIP3   OH248471   0.988   3.389   2.338  0.0941  0.2456  0.7502
 9019TIP3    H148472   1.044   3.464   2.322 -2.2263  1.8193 -0.5912
 9019TIP3    H248473   0.931   3.384   2.261  0.8959 -3.7028  0.1517
 9020TIP3   OH248474   1.837   3.061  15.303  0.2142  0.2761  0.0872
 9020TIP3    H148475   1.783   2.982  15.300  1.6487 -0.7405  0.0593
 9020TIP3    H248476   1.859   3.071  15.396  0.8311  0.0580 -0.0271
 9021TIP3   OH248477   0.200   5.639  14.625 -0.0920 -0.3785 -0.8150
 9021TIP3    H148478   0.108   5.613  14.634  0.1025 -0.7347  0.3193
 9021TIP3    H248479   0.201   5.730  14.654 -0.0967 -0.3704 -0.8407
 9022TIP3   OH248480   1.875   5.608   4.905  0.1287 -0.0676 -0.2444
 9022TIP3    H148481   1.815   5.538   4.882 -1.1190  1.2183 -1.0874
 9022TIP3    H248482   1.819   5.685   4.916  1.6200  1.2575 -1.3733
 9023TIP3   OH248483   2.717   5.332  14.846 -0.5114  0.0038  0.1605
 9023TIP3    H148484   2.643   5.311  14.789 -0.6458  0.8440  0.0217
 9023TIP3    H248485   2.689   5.410  14.894  0.3751  0.4514 -0.0474
 9024TIP3   OH248486   2.182   4.455  16.880 -0.1634  0.0298  0.0762
 9024TIP3    H148487   2.151   4.545  16.867  0.4924  0.1587 -0.6761
 9024TIP3    H248488   2.277   4.462  16.884 -0.1672 -0.4314  1.8466
 9025TIP3   OH248489   2.645   2.887   6.114  0.2319 -0.6650 -0.1544
 9025TIP3    H148490   2.718   2.928   6.159  1.2868 -1.7271 -0.8126
 9025TIP3    H248491   2.684   2.847   6.036 -1.0944 -1.0707 -0.6544
 9026TIP3   OH248492   3.624   1.099  11.376 -0.5350 -0.3325  0.1108
 9026TIP3    H148493   3.557   1.118  11.310  0.1592  1.8702 -0.0271
 9026TIP3    H248494   3.678   1.030  11.336 -1.2720 -0.4179 -0.7764
 9027TIP3   OH248495   6.507   2.527   0.500 -0.1338 -0.2746 -0.2090
 9027TIP3    H148496   6.574   2.546   0.565 -0.8877 -0.3353  0.6147
 9027TIP3    H248497   6.450   2.604   0.501 -1.5262 -1.2533  0.9968
 9028TIP3   OH248498   1.150   6.170   3.792  0.3402 -0.1578 -0.3354
 9028TIP3    H148499   1.156   6.078   3.817  0.1549 -0.3865 -1.1196
 9028TIP3    H248500   1.062   6.179   3.756  0.3330  0.3477 -0.1987
 9029TIP3   OH248501   2.986   5.012   1.765 -0.0572  0.0113  0.4898
 9029TIP3    H148502   3.040   5.065   1.824  0.3512 -0.4478  0.5332
 9029TIP3    H248503   2.965   4.934   1.815 -0.1035 -0.1672  0.1944
 9030TIP3   OH248504   1.705   0.209  14.476 -0.0909  0.3563  0.3465
 9030TIP3    H148505   1.733   0.298  14.456  1.7587  0.0664  1.4634
 9030TIP3    H248506   1.775   0.153  14.442 -1.7570 -0.8093 -1.3918
 9031TIP3   OH248507   6.189   6.015   1.487  0.3707 -0.8600  0.2685
 9031TIP3    H148508   6.210   5.965   1.566  0.1390 -0.3622  0.6478
 9031TIP3    H248509   6.217   6.105   1.507  0.6321 -0.7981 -0.3425
 9032TIP3   OH248510   4.980   6.619   3.174 -0.0904  0.9338 -0.6533
 9032TIP3    H148511   5.060   6.583   3.136 -0.3771 -1.3636  0.7154
 9032TIP3    H248512   4.977   6.582   3.262 -1.3309  3.0999  0.2998
 9033TIP3   OH248513   1.830   0.049  13.366 -0.2805  0.7663 -0.0314
 9033TIP3    H148514   1.835  -0.031  13.419 -0.9492  1.5138  1.2223
 9033TIP3    H248515   1.778   0.025  13.290 -2.6246  0.5808  1.5346
 9034TIP3   OH248516   6.799   4.577   2.902 -0.0496  0.3690 -0.1578
 9034TIP3    H148517   6.786   4.540   2.814  0.3308  0.0527 -0.0808
 9034TIP3    H248518   6.710   4.592   2.934 -0.2983 -2.0557  0.4746
 9035TIP3   OH248519   4.748   4.859   4.633 -0.3020 -0.4198 -0.0745
 9035TIP3    H148520   4.674   4.806   4.664  0.2852 -0.4584  1.3162
 9035TIP3    H248521   4.707   4.933   4.588 -1.1910 -0.6335  0.3617
 9036TIP3   OH248522   6.187   5.121  11.194  0.3515  0.1769 -0.4329
 9036TIP3    H148523   6.260   5.066  11.166 -0.4720 -1.0906 -0.1599
 9036TIP3    H248524   6.115   5.099  11.135 -1.0462 -1.6638  1.7452
 9037TIP3   OH248525   2.321   2.983   1.207  0.3369  0.0095 -0.0006
 9037TIP3    H148526   2.250   2.955   1.264  0.6007  0.0770  0.3652
 9037TIP3    H248527   2.359   2.901   1.174 -0.6087 -0.0152 -1.0828
 9038TIP3   OH248528   0.653   1.621  11.959  0.5466 -0.7641  0.1730
 9038TIP3    H148529   0.663   1.712  11.989 -0.2941 -0.3636 -0.7316
 9038TIP3    H248530   0.596   1.581  12.024  0.3990 -0.4656  0.2294
 9039TIP3   OH248531   4.972   0.797   5.071 -0.6024 -0.0895  0.1485
 9039TIP3    H148532   5.006   0.845   5.147 -1.2772 -1.1336  1.1451
 9039TIP3    H248533   5.050   0.771   5.022 -0.2207  2.3577 -0.6825
 9040TIP3   OH248534   4.026   2.086  13.359 -0.0442 -0.6095 -0.2759
 9040TIP3    H148535   4.027   2.045  13.445 -1.2597 -0.1159 -0.0114
 9040TIP3    H248536   4.110   2.061  13.320  0.5723 -0.7511  1.0832
 9041TIP3   OH248537   0.065   4.343  11.378 -0.0597  0.3613  0.4606
 9041TIP3    H148538  -0.023   4.307  11.389  1.0270 -2.4465  0.7642
 9041TIP3    H248539   0.118   4.298  11.444  1.7110  1.6463  0.0036
 9042TIP3   OH248540   5.109   0.611  12.135 -0.3626 -0.2114  0.3169
 9042TIP3    H148541   5.142   0.615  12.225 -0.0471  0.4169  0.1838
 9042TIP3    H248542   5.182   0.574  12.085 -0.6202 -0.7704  0.3566
 9043TIP3   OH248543   4.154   6.152   5.881 -0.3378  0.8090  0.4410
 9043TIP3    H148544   4.191   6.132   5.795 -1.6233 -0.5397  0.1417
 9043TIP3    H248545   4.179   6.243   5.898  0.5528  0.8728 -1.0241
 9044TIP3   OH248546   6.523   3.378  16.953 -0.8486  0.1644 -0.3383
 9044TIP3    H148547   6.605   3.427  16.959  0.8007 -2.1399 -2.1221
 9044TIP3    H248548   6.478   3.417  16.878  0.4275 -0.8777 -1.7157
 9045TIP3   OH248549   5.638   1.024   6.700 -0.1143  0.0411  0.0402
 9045TIP3    H148550   5.589   1.022   6.618 -1.5543 -0.6978  0.8760
 9045TIP3    H248551   5.699   0.951   6.694  2.8432  2.4531 -2.0805
 9046TIP3   OH248552   5.266   1.647  13.869  0.2393 -0.4294 -0.0970
 9046TIP3    H148553   5.308   1.687  13.793 -0.1508 -0.3463 -0.2695
 9046TIP3    H248554   5.175   1.677  13.865 -0.9170 -3.7073 -1.9735
 9047TIP3   OH248555   5.940   0.734  10.829  0.6186 -0.1973 -0.1803
 9047TIP3    H148556   5.951   0.721  10.923  0.5143  0.3043 -0.0964
 9047TIP3    H248557   5.897   0.654  10.798  2.1509 -1.1026 -0.0956
 9048TIP3   OH248558   0.846   3.814   1.700  0.5430 -0.8813 -0.0695
 9048TIP3    H148559   0.924   3.799   1.753  0.5806 -0.0029  0.1380
 9048TIP3    H248560   0.801   3.887   1.743 -0.0478 -0.9383 -0.5688
 9049TIP3   OH248561   2.143   1.894   5.840  0.5423 -0.0799  0.1661
 9049TIP3    H148562   2.215   1.848   5.883  0.1694 -0.2016  0.6696
 9049TIP3    H248563   2.113   1.957   5.905  0.6054  0.4105 -0.2760
 9050TIP3   OH248564   0.575   0.962  16.370  0.1755 -0.1017  0.5860
 9050TIP3    H148565   0.589   1.052  16.398  1.0922  0.0641 -0.3230
 9050TIP3    H248566   0.557   0.968  16.276  2.1009 -0.9627  0.1007
 9051TIP3   OH248567   3.785   6.186  12.768 -0.2647  0.0061 -0.2574
 9051TIP3    H148568   3.880   6.172  12.763 -0.1068  1.0068 -0.3172
 9051TIP3    H248569   3.769   6.209  12.859 -0.2450  1.1036 -0.5138
 9052TIP3   OH248570   3.276   6.482  13.445  0.0294 -0.1336  0.2413
 9052TIP3    H148571   3.205   6.545  13.453  0.6905  0.8519 -1.1169
 9052TIP3    H248572   3.327   6.513  13.370  1.2621 -1.4296  0.4914
 9053TIP3   OH248573   4.758   1.026   4.846  0.1725  0.4747  0.1665
 9053TIP3    H148574   4.769   1.026   4.751 -3.6392  1.3598 -0.4480
 9053TIP3    H248575   4.762   0.934   4.871 -1.8870 -0.1124 -1.4134
 9054TIP3   OH248576   2.813   5.044   5.820  0.0368 -0.4417  0.3443
 9054TIP3    H148577   2.724   5.077   5.836  0.6379  0.7650  1.3385
 9054TIP3    H248578   2.870   5.102   5.871  1.3255 -1.7968  0.5101
 9055TIP3   OH248579   2.492   2.923  16.793  0.2016  1.6154  0.0666
 9055TIP3    H148580   2.536   2.840  16.807  1.4248  2.1162 -0.7105
 9055TIP3    H248581   2.554   2.989  16.823 -1.8101  2.2269  3.3965
 9056TIP3   OH248582   2.669   2.285  14.696  0.4801 -0.0802 -0.5378
 9056TIP3    H148583   2.708   2.365  14.660  1.7163 -0.6669 -0.5629
 9056TIP3    H248584   2.742   2.223  14.700 -0.5357 -1.3259 -0.8451
 9057TIP3   OH248585   0.565   2.313   1.099  0.7492 -0.1424 -0.1539
 9057TIP3    H148586   0.515   2.379   1.051 -1.3307 -1.4553  0.0393
 9057TIP3    H248587   0.550   2.232   1.049 -1.8744 -1.6753  2.7361
 9058TIP3   OH248588   0.816   6.671  13.929  0.1875 -0.1855 -0.1108
 9058TIP3    H148589   0.801   6.685  13.835 -0.9161  0.1835  0.1078
 9058TIP3    H248590   0.840   6.757  13.962 -1.8030  0.2225  0.3619
 9059TIP3   OH248591   5.212   5.582   5.482  0.4402 -0.1004 -0.3857
 9059TIP3    H148592   5.281   5.637   5.521  0.1382  1.0129 -1.3486
 9059TIP3    H248593   5.163   5.642   5.426 -1.1286 -0.9524  0.0259
 9060TIP3   OH248594   2.464   2.000  11.182  0.1663  0.0809  0.3330
 9060TIP3    H148595   2.396   2.032  11.122 -0.1092 -1.8245 -0.4558
 9060TIP3    H248596   2.456   1.904  11.177  1.8088 -0.1435  1.5136
 9061TIP3   OH248597   0.716   0.219   1.932  0.1870  0.3502 -0.3951
 9061TIP3    H148598   0.790   0.263   1.890 -0.9537  0.5101 -2.3430
 9061TIP3    H248599   0.647   0.218   1.866 -1.2504 -0.6647  1.0237
 9062TIP3   OH248600   0.036   0.175  16.088  0.0339 -0.2804 -0.4637
 9062TIP3    H148601   0.033   0.080  16.086  1.8203 -0.3522 -1.3424
 9062TIP3    H248602   0.116   0.198  16.040  0.5954  1.6008  1.2556
 9063TIP3   OH248603   4.004   6.485   1.352  0.0920 -0.3968  0.5785
 9063TIP3    H148604   4.026   6.395   1.377 -1.0020 -1.6363 -2.4375
 9063TIP3    H248605   4.088   6.522   1.323  0.5029 -0.4995  1.5849
 9064TIP3   OH248606   5.109   3.371   5.053 -0.4668  0.2673  0.8389
 9064TIP3    H148607   5.139   3.323   4.976  0.3344  1.8059  0.1429
 9064TIP3    H248608   5.188   3.385   5.105 -0.5851  1.2359  0.7818
 9065TIP3   OH248609   1.494   6.535   5.391 -0.5695 -0.2668 -0.1490
 9065TIP3    H148610   1.457   6.623   5.390  0.8017  0.4355 -3.8152
 9065TIP3    H248611   1.580   6.545   5.431 -0.6433 -0.0292 -0.0506
 9066TIP3   OH248612   6.424   2.262   1.371 -0.1691  0.3084  0.3048
 9066TIP3    H148613   6.485   2.295   1.305  2.0396  0.6311  2.3608
 9066TIP3    H248614   6.436   2.167   1.369 -0.2302  0.3042  0.1220
 9067TIP3   OH248615   6.186   4.503   3.226 -0.1054 -0.6342 -0.5869
 9067TIP3    H148616   6.124   4.435   3.251 -3.1249  1.0504 -2.9385
 9067TIP3    H248617   6.149   4.584   3.261  1.4139  0.2928 -1.0242
 9068TIP3   OH248618   0.977   0.133  10.868 -0.3328  0.2725 -0.2049
 9068TIP3    H148619   1.001   0.086  10.787  0.4067 -0.4035  0.3821
 9068TIP3    H248620   0.884   0.153  10.857 -0.4672 -0.6079 -0.8412
 9069TIP3   OH248621   5.376   3.428   4.389 -0.1803  0.0891 -0.6676
 9069TIP3    H148622   5.314   3.448   4.319  0.2323 -0.3715 -1.1769
 9069TIP3    H248623   5.460   3.460   4.356  0.1778 -0.8970 -0.7747
 9070TIP3   OH248624   4.848   6.675  14.309 -0.2749 -0.3011  0.1020
 9070TIP3    H148625   4.833   6.748  14.369 -1.5671 -0.1216 -0.4148
 9070TIP3    H248626   4.815   6.706  14.225  0.1761 -1.0846 -0.3810
 9071TIP3   OH248627   3.275   2.647  12.753 -0.5778 -0.8343 -0.0638
 9071TIP3    H148628   3.305   2.673  12.666 -0.7652 -0.5875 -0.0548
 9071TIP3    H248629   3.316   2.710  12.813  1.7000 -2.5642  0.3165
 9072TIP3   OH248630   1.457   1.260  16.639  0.0287  0.2742  0.4484
 9072TIP3    H148631   1.372   1.295  16.610  0.1093  0.2937  0.2384
 9072TIP3    H248632   1.494   1.218  16.561  0.3721  0.5699  0.4523
 9073TIP3   OH248633   2.252   5.879   5.746  0.8398 -0.9073  0.0795
 9073TIP3    H148634   2.226   5.788   5.738 -1.3170 -0.3691  0.2543
 9073TIP3    H248635   2.230   5.918   5.662 -2.4469  0.3131  1.3266
 9074TIP3   OH248636   4.488   2.964   1.598 -0.0111  0.6368 -0.0911
 9074TIP3    H148637   4.459   3.054   1.608  1.0349  0.8950  0.7802
 9074TIP3    H248638   4.467   2.922   1.681  1.3437  0.6349  0.2803
 9075TIP3   OH248639   3.444   3.028   0.563 -0.1428 -0.5022 -0.1649
 9075TIP3    H148640   3.432   3.104   0.506 -0.6885 -0.3472  0.1558
 9075TIP3    H248641   3.535   3.035   0.593 -0.5379  0.7289  0.8583
 9076TIP3   OH248642   4.782   3.413  15.894 -0.0373  0.3265 -0.8378
 9076TIP3    H148643   4.815   3.324  15.894 -0.8407  0.0164 -0.8984
 9076TIP3    H248644   4.745   3.426  15.981 -1.1544  0.1153 -1.2684
 9077TIP3   OH248645   1.846   6.762  10.861  0.1595 -0.1750 -0.2770
 9077TIP3    H148646   1.756   6.756  10.892  0.2568 -0.6145 -0.0720
 9077TIP3    H248647   1.838   6.772  10.766 -0.1056 -0.2293 -0.2616
 9078TIP3   OH248648   6.697   6.497  16.593 -0.2927 -0.5797  0.4002
 9078TIP3    H148649   6.622   6.441  16.613 -0.5228 -0.5210 -0.2691
 9078TIP3    H248650   6.727   6.466  16.508 -1.1461  1.0499 -0.5431
 9079TIP3   OH248651   1.156   0.404   1.329 -0.2908 -0.0765 -0.0713
 9079TIP3    H148652   1.109   0.391   1.412 -0.3705  0.0529 -0.0957
 9079TIP3    H248653   1.238   0.446   1.355  0.2091 -1.1199  0.0644
 9080TIP3   OH248654   5.803   0.625  14.541 -0.0037  0.2104 -0.0029
 9080TIP3    H148655   5.885   0.661  14.505  0.3665 -0.5816  0.0324
 9080TIP3    H248656   5.749   0.609  14.464  0.7681 -1.4311 -0.2445
 9081TIP3   OH248657   4.229   4.039  13.785  0.0571  0.7794  0.4868
 9081TIP3    H148658   4.244   3.947  13.763  0.6070  1.3395 -1.8122
 9081TIP3    H248659   4.313   4.070  13.819 -0.1279  0.4460  1.2613
 9082TIP3   OH248660   4.613   4.057   3.940  0.2163  0.1851  0.2317
 9082TIP3    H148661   4.556   4.073   4.016 -0.5430  0.5250 -0.3965
 9082TIP3    H248662   4.647   4.144   3.918  2.9868 -0.2917  2.0970
 9083TIP3   OH248663   5.928   3.265  12.040 -0.0391  0.1955  0.1329
 9083TIP3    H148664   5.915   3.178  12.003  0.1483  0.1897  0.0784
 9083TIP3    H248665   5.853   3.316  12.012 -0.1989  0.0222  0.2463
 9084TIP3   OH248666   5.201   5.984   0.960 -0.8166  0.5712 -0.5171
 9084TIP3    H148667   5.289   6.013   0.935 -0.1305  0.7233  1.8271
 9084TIP3    H248668   5.163   5.952   0.879  2.1075 -1.3128 -1.3342
 9085TIP3   OH248669   5.113   4.860  10.997  0.0688 -0.2970 -0.5061
 9085TIP3    H148670   5.163   4.834  10.921  0.3136 -1.7428  0.1263
 9085TIP3    H248671   5.110   4.956  10.993  1.6408 -0.2690 -1.3194
 9086TIP3   OH248672   3.016   5.103  15.697  0.2376  0.3127 -0.3929
 9086TIP3    H148673   3.036   5.022  15.744 -0.7552  0.2722 -0.0204
 9086TIP3    H248674   3.069   5.098  15.617  1.0619 -0.1565  0.1714
 9087TIP3   OH248675   5.154   6.594  15.816  0.2504  0.2392 -0.2523
 9087TIP3    H148676   5.229   6.571  15.870  1.1692  0.0769 -1.5651
 9087TIP3    H248677   5.088   6.527  15.836 -0.3055  1.4241  2.3013
 9088TIP3   OH248678   4.464   4.974  14.552 -0.3786 -0.3082 -0.2541
 9088TIP3    H148679   4.514   5.053  14.574 -0.0600 -0.1936 -1.3318
 9088TIP3    H248680   4.384   5.006  14.511 -1.8923 -0.4547  2.3587
 9089TIP3   OH248681   1.585   2.361  13.780 -0.0759 -0.5269 -0.3763
 9089TIP3    H148682   1.545   2.442  13.748 -0.4168 -0.3660  0.4253
 9089TIP3    H248683   1.547   2.348  13.867  0.4541 -1.2087 -0.2345
 9090TIP3   OH248684   2.569   3.351   2.015 -0.3949 -0.2702  0.2747
 9090TIP3    H148685   2.613   3.433   2.040  0.2194  0.0823 -1.7358
 9090TIP3    H248686   2.616   3.322   1.936 -1.3463 -1.9578  0.2827
 9091TIP3   OH248687   4.579   3.612   2.811  0.0535  0.7787  0.0039
 9091TIP3    H148688   4.571   3.517   2.805  0.4285  0.7361  0.1720
 9091TIP3    H248689   4.517   3.645   2.746  0.0934  0.4140 -0.2220
 9092TIP3   OH248690   2.824   2.754   1.626  0.0759  0.0512  0.1605
 9092TIP3    H148691   2.755   2.730   1.564 -0.1174 -0.9947  0.7639
 9092TIP3    H248692   2.878   2.818   1.578 -1.0774  0.5953 -0.4490
 9093TIP3   OH248693   4.344   1.162  16.351 -0.5238  0.6128  0.2449
 9093TIP3    H148694   4.393   1.180  16.431  0.5099 -0.3814 -0.1492
 9093TIP3    H248695   4.400   1.104  16.300 -1.3409  0.8912 -1.0280
 9094TIP3   OH248696   0.234   1.147   3.406 -0.1770 -0.3062  0.6850
 9094TIP3    H148697   0.162   1.172   3.348  0.4841 -0.3786 -0.2068
 9094TIP3    H248698   0.194   1.092   3.473 -0.8615 -0.8323 -0.1274
 9095TIP3   OH248699   3.727   0.043  14.236 -0.4631  0.2614 -0.6146
 9095TIP3    H148700   3.805   0.058  14.182 -1.1667 -0.6114 -1.9400
 9095TIP3    H248701   3.655   0.042  14.173 -1.1197 -2.6603  0.0349
 9096TIP3   OH248702   4.767   1.894  13.762  0.5348 -0.4447  0.4349
 9096TIP3    H148703   4.858   1.910  13.735  0.2085  0.0404 -0.4011
 9096TIP3    H248704   4.771   1.892  13.858  1.5635 -1.2784  0.3898
 9097TIP3   OH248705   0.643   0.034  14.226 -0.6458 -0.1211  0.1518
 9097TIP3    H148706   0.636   0.043  14.131  1.0557  0.4101  0.0428
 9097TIP3    H248707   0.673  -0.056  14.240 -1.7318 -0.4883  0.2706
 9098TIP3   OH248708   5.850   6.294  16.745  0.1882 -0.0572 -0.4639
 9098TIP3    H148709   5.777   6.250  16.703  0.0464 -0.6727  0.3975
 9098TIP3    H248710   5.837   6.387  16.724 -3.0694  0.4451  2.7375
 9099TIP3   OH248711   5.536   4.070  16.710 -0.1520 -0.2958 -0.4771
 9099TIP3    H148712   5.576   4.089  16.795  0.1275  2.8055 -1.1779
 9099TIP3    H248713   5.442   4.073  16.728 -0.1591 -2.4840  0.1773
 9100TIP3   OH248714   6.674   5.604  15.724  0.3274 -0.1707 -0.1341
 9100TIP3    H148715   6.696   5.675  15.664  1.4908  0.1689  0.6503
 9100TIP3    H248716   6.631   5.539  15.670 -2.1809  1.7409 -0.6251
 9101TIP3   OH248717   3.205   3.599   4.247 -0.0927 -0.2121  0.1499
 9101TIP3    H148718   3.214   3.663   4.317  0.4020 -0.1372  0.0204
 9101TIP3    H248719   3.286   3.607   4.197 -0.8109  0.3854 -0.9766
 9102TIP3   OH248720   3.911   3.564   5.656 -0.2073 -0.6186 -0.0810
 9102TIP3    H148721   3.939   3.521   5.737  1.8290 -1.5953 -1.2163
 9102TIP3    H248722   3.987   3.616   5.629 -2.0724  2.7035  0.4563
 9103TIP3   OH248723   5.385   3.162   5.167  0.8191  0.7070 -0.5515
 9103TIP3    H148724   5.440   3.142   5.242  0.3587 -0.5969 -0.5475
 9103TIP3    H248725   5.330   3.235   5.197 -0.0100 -0.3976  0.7290
 9104TIP3   OH248726   2.831   5.081  13.294  0.1696  0.2187 -0.6152
 9104TIP3    H148727   2.908   5.104  13.242  2.3094  0.8434  2.5573
 9104TIP3    H248728   2.818   5.156  13.352  0.2203 -1.8327  2.2108
 9105TIP3   OH248729   2.860   5.281  14.335  0.3150  0.1490  0.0197
 9105TIP3    H148730   2.839   5.336  14.259 -1.1081  0.8400  0.8495
 9105TIP3    H248731   2.952   5.258  14.324  0.7469  2.0495 -0.7969
 9106TIP3   OH248732   1.367   2.690  16.369  0.4047  0.1169 -0.0422
 9106TIP3    H148733   1.313   2.661  16.296  1.0286 -0.7447 -0.1786
 9106TIP3    H248734   1.453   2.706  16.331  0.8946 -0.9179  0.5869
 9107TIP3   OH248735   3.809   1.079   2.848 -0.2198 -0.0805 -0.2737
 9107TIP3    H148736   3.758   1.160   2.844 -1.3518 -0.8023 -0.7196
 9107TIP3    H248737   3.762   1.023   2.909 -0.0878 -0.8413 -0.8567
 9108TIP3   OH248738   3.248   1.403   4.814 -0.0120 -0.1186 -0.0069
 9108TIP3    H148739   3.243   1.499   4.807  2.5979 -0.0024 -2.1015
 9108TIP3    H248740   3.279   1.387   4.903 -1.0348  0.9033  0.5673
 9109TIP3   OH248741   2.903   5.559  16.053  0.0362  0.1590  0.1038
 9109TIP3    H148742   2.863   5.586  16.136  0.7111  1.3378  0.0546
 9109TIP3    H248743   2.927   5.640  16.010 -0.2427 -0.4461 -1.2357
 9110TIP3   OH248744   2.677   5.788  13.785 -0.1093  0.1230  0.5359
 9110TIP3    H148745   2.739   5.739  13.839 -0.3928  0.8440  1.5376
 9110TIP3    H248746   2.698   5.880  13.802  1.3983  0.4709 -2.4145
 9111TIP3   OH248747   1.726   6.701   1.486 -0.3537 -0.3553  0.2519
 9111TIP3    H148748   1.722   6.641   1.411 -1.3838 -0.7079  0.5774
 9111TIP3    H248749   1.758   6.783   1.449  0.8688 -1.0299 -0.2414
 9112TIP3   OH248750   5.314   2.714  14.961 -0.3162  0.7169 -0.3238
 9112TIP3    H148751   5.306   2.777  14.889  0.3551  0.7070 -0.4167
 9112TIP3    H248752   5.324   2.769  15.039  2.1558  0.7803 -0.6132
 9113TIP3   OH248753   0.216   2.183   6.029  0.3033 -0.7182  0.2093
 9113TIP3    H148754   0.219   2.162   6.123  3.1268 -0.9967  0.1659
 9113TIP3    H248755   0.144   2.245   6.020 -0.6907 -1.4673  2.3776
 9114TIP3   OH248756   5.678   4.416   2.666 -0.5412 -0.3412  0.0666
 9114TIP3    H148757   5.751   4.474   2.692 -1.3158  0.6049  0.1954
 9114TIP3    H248758   5.713   4.367   2.592 -0.0072  0.6610 -0.3753
 9115TIP3   OH248759   0.245   3.057  15.868  0.2713 -0.8764 -0.1949
 9115TIP3    H148760   0.253   3.021  15.779 -1.2359 -1.8586  0.0161
 9115TIP3    H248761   0.212   2.984  15.920 -2.0011  0.5021  0.4628
 9116TIP3   OH248762   0.396   6.694  14.435 -0.6966 -0.0618  0.4112
 9116TIP3    H148763   0.394   6.782  14.398 -1.7405 -0.5338 -0.7048
 9116TIP3    H248764   0.483   6.661  14.413 -1.2800 -0.3223 -1.6490
 9117TIP3   OH248765   4.566   3.778  13.865  0.4985  0.4861 -1.1425
 9117TIP3    H148766   4.603   3.725  13.936 -1.4083  0.5704 -0.0177
 9117TIP3    H248767   4.595   3.735  13.785  0.4925 -1.2173 -0.2806
 9118TIP3   OH248768   2.793   6.172   1.700  0.1806  0.8483  0.4664
 9118TIP3    H148769   2.803   6.095   1.643  0.7042  1.4926 -0.3388
 9118TIP3    H248770   2.880   6.186   1.737 -0.2845  0.0886  1.9162
 9119TIP3   OH248771   6.150   0.320   0.757  0.3590 -0.7610  0.5313
 9119TIP3    H148772   6.126   0.272   0.678 -1.6980 -0.3043  0.8211
 9119TIP3    H248773   6.150   0.412   0.731  1.9831 -0.7326  0.5396
 9120TIP3   OH248774   1.988   4.682  14.480  0.1258 -0.7051 -0.6525
 9120TIP3    H148775   2.073   4.640  14.497  0.5548 -0.2605 -1.6456
 9120TIP3    H248776   2.010   4.766  14.442 -0.7371  0.2764  0.9003
 9121TIP3   OH248777   3.812   5.528  15.579  0.4645  0.2219  0.0222
 9121TIP3    H148778   3.863   5.605  15.555  1.3574 -0.6122 -0.8648
 9121TIP3    H248779   3.877   5.457  15.583 -0.1125 -0.2753  2.0357
 9122TIP3   OH248780   4.366   4.430   0.991 -0.1086 -0.2384  0.6617
 9122TIP3    H148781   4.435   4.365   1.005 -0.2608 -0.8495 -1.0500
 9122TIP3    H248782   4.340   4.416   0.900 -2.3861  0.0662  1.2076
 9123TIP3   OH248783   3.148   1.974   5.291 -0.2167  0.1702 -0.3569
 9123TIP3    H148784   3.156   1.948   5.383  0.1010 -0.0808 -0.4578
 9123TIP3    H248785   3.059   1.949   5.267  0.2406 -1.2878 -0.5967
 9124TIP3   OH248786   6.766   1.942   3.169 -0.2677  0.4651  0.2904
 9124TIP3    H148787   6.705   1.926   3.240 -0.8129  1.7043  0.1116
 9124TIP3    H248788   6.714   1.930   3.089  0.2669 -0.6254  0.0843
 9125TIP3   OH248789   1.172   5.860   3.798  0.0210 -0.1667 -0.2079
 9125TIP3    H148790   1.080   5.855   3.773  0.5000 -0.2204 -2.1104
 9125TIP3    H248791   1.205   5.771   3.787  0.1877 -0.2592  0.9699
 9126TIP3   OH248792   3.768   6.787  15.448 -0.1483  0.2984  0.2563
 9126TIP3    H148793   3.719   6.869  15.438  1.1939  1.4242  2.1766
 9126TIP3    H248794   3.721   6.739  15.516 -0.3823 -0.0868 -0.1754
 9127TIP3   OH248795   2.200   0.984  12.192  0.2592 -0.4004 -0.1609
 9127TIP3    H148796   2.183   1.026  12.277 -0.0904 -0.1739 -0.3409
 9127TIP3    H248797   2.113   0.961  12.160  0.4822 -1.8495  0.2287
 9128TIP3   OH248798   0.916   6.187  12.810 -0.2908  0.1637 -0.1602
 9128TIP3    H148799   1.012   6.193  12.801 -0.3499 -1.2231 -2.6087
 9128TIP3    H248800   0.883   6.252  12.748 -0.9481  0.2931  0.3171
 9129TIP3   OH248801   5.268   5.217  14.727  0.4755  0.4858  0.0591
 9129TIP3    H148802   5.232   5.304  14.713 -0.9857 -0.0324  0.4002
 9129TIP3    H248803   5.231   5.164  14.656  0.2838 -0.1407  0.6137
 9130TIP3   OH248804   2.135   3.931   0.423  0.4105  0.9327  0.3697
 9130TIP3    H148805   2.073   3.966   0.358 -0.7048 -0.4759  0.6237
 9130TIP3    H248806   2.101   3.962   0.507  0.2596  0.4771  0.4793
 9131TIP3   OH248807   0.740   3.780  11.828 -0.3248 -0.2333  0.0755
 9131TIP3    H148808   0.771   3.814  11.913  0.3765  1.3244 -0.7555
 9131TIP3    H248809   0.791   3.828  11.763  0.0550 -2.3067 -1.2469
 9132TIP3   OH248810   4.737   1.259  15.565  0.3261  0.0182  0.3132
 9132TIP3    H148811   4.743   1.166  15.586  1.9902  0.3659  1.5693
 9132TIP3    H248812   4.820   1.278  15.522  1.6571  1.6443  3.3187
 9133TIP3   OH248813   0.389   6.609   0.041 -0.2599  0.2155 -0.4202
 9133TIP3    H148814   0.420   6.700   0.043 -2.5307  1.0571 -0.8588
 9133TIP3    H248815   0.466   6.558   0.014  1.4982  1.7752  1.3249
 9134TIP3   OH248816   4.779   5.421   2.722 -0.0994  1.0603  0.0963
 9134TIP3    H148817   4.763   5.515   2.717 -0.0746  1.0334 -0.6710
 9134TIP3    H248818   4.865   5.409   2.682 -0.7336  0.5607 -1.1822
 9135TIP3   OH248819   5.066   1.890   5.760  0.1953  0.1397 -0.0005
 9135TIP3    H148820   5.104   1.974   5.784 -0.3751  0.4281 -0.0791
 9135TIP3    H248821   4.971   1.905   5.761  0.1049 -0.3087 -0.7066
 9136TIP3   OH248822   4.270   1.595   5.281  0.2509 -0.9212 -0.8831
 9136TIP3    H148823   4.344   1.535   5.277  1.4691  0.3820  0.5083
 9136TIP3    H248824   4.307   1.681   5.259 -0.4921  0.0156  1.2561
 9137TIP3   OH248825   2.074   5.775   2.180  0.2998  0.2822 -0.0192
 9137TIP3    H148826   2.083   5.870   2.181  1.1895  0.2484 -1.4791
 9137TIP3    H248827   1.982   5.760   2.159  0.7129  0.9157 -2.7261
 9138TIP3   OH248828   0.667   6.472   3.362  0.0903 -0.1950  0.0381
 9138TIP3    H148829   0.711   6.557   3.357 -0.3964  0.0737  0.2075
 9138TIP3    H248830   0.598   6.476   3.296  2.0128 -1.6650 -2.2120
 9139TIP3   OH248831   1.170   6.358   4.212 -0.3215  0.1002 -0.4276
 9139TIP3    H148832   1.219   6.374   4.292 -0.7640  0.7103 -0.2630
 9139TIP3    H248833   1.109   6.432   4.207 -1.2853 -0.6862 -0.5718
 9140TIP3   OH248834   3.903   3.309  16.365  0.1477  0.0304 -0.2894
 9140TIP3    H148835   3.971   3.312  16.432 -1.8076  0.4130  1.8004
 9140TIP3    H248836   3.838   3.247  16.399 -0.1249 -1.1403 -2.7063
 9141TIP3   OH248837   3.866   3.435  11.969  0.1034 -1.1920  0.1799
 9141TIP3    H148838   3.890   3.406  11.881  2.3911 -1.9711  0.9820
 9141TIP3    H248839   3.858   3.355  12.020  1.9375 -0.7035  1.3588
 9142TIP3   OH248840   5.347   2.298   3.770  0.0441 -0.5876 -0.0532
 9142TIP3    H148841   5.292   2.345   3.833 -2.3463 -3.7474  0.4978
 9142TIP3    H248842   5.298   2.301   3.688  3.1631  3.5552 -2.1407
 9143TIP3   OH248843   0.583   1.427  12.431 -0.0169 -0.4284  0.1315
 9143TIP3    H148844   0.598   1.517  12.460 -1.1410 -0.5790  1.2591
 9143TIP3    H248845   0.556   1.436  12.340  0.7167  0.2941 -0.0362
 9144TIP3   OH248846   1.320   5.986   3.579 -0.7474  0.7973  0.0087
 9144TIP3    H148847   1.263   5.956   3.507 -0.0254 -0.1422 -0.1986
 9144TIP3    H248848   1.278   5.951   3.658 -1.4957  1.7580  0.0545
 9145TIP3   OH248849   0.075   4.259  12.123 -0.4631 -0.0269  0.3203
 9145TIP3    H148850   0.125   4.179  12.105 -2.0398 -0.9000 -0.3592
 9145TIP3    H248851   0.122   4.327  12.074  0.8461 -0.5281  0.8272
 9146TIP3   OH248852   5.939   5.215   3.006 -0.0951  0.1960  0.4416
 9146TIP3    H148853   5.898   5.280   2.949 -0.1049 -0.5002 -0.3584
 9146TIP3    H248854   5.866   5.177   3.055  0.0056  1.3905  1.5730
 9147TIP3   OH248855   5.647   4.960   1.907  0.0521 -0.1234 -0.0833
 9147TIP3    H148856   5.681   4.936   1.821 -0.3033  1.1444 -0.5992
 9147TIP3    H248857   5.717   5.010   1.948 -0.4662  0.9203 -0.4229
 9148TIP3   OH248858   1.902   1.633   5.618  0.7566 -0.0434 -0.3996
 9148TIP3    H148859   1.861   1.674   5.542  0.5352  1.2849  0.4070
 9148TIP3    H248860   1.968   1.574   5.580 -0.1305 -0.2837 -1.6376
 9149TIP3   OH248861   1.739   1.288  14.874  0.8195 -0.6609 -0.1309
 9149TIP3    H148862   1.656   1.311  14.917 -0.1534  0.5815 -2.4560
 9149TIP3    H248863   1.713   1.237  14.798  2.3827 -1.8950  0.1209
 9150TIP3   OH248864   6.080   1.970   6.111 -0.1543 -0.0067  0.8656
 9150TIP3    H148865   6.149   1.957   6.046 -1.2109 -0.5405 -0.1826
 9150TIP3    H248866   6.087   2.062   6.136  0.7269  0.0214  0.5379
 9151TIP3   OH248867   3.683   0.982   0.542 -0.1936 -0.4850  0.9474
 9151TIP3    H148868   3.754   0.919   0.530  0.7699  0.6583  0.3758
 9151TIP3    H248869   3.658   0.974   0.633  1.4595 -0.1530  1.4709
 9152TIP3   OH248870   5.887   3.386   0.284 -0.6120 -0.3139 -0.0208
 9152TIP3    H148871   5.964   3.439   0.305  0.4377 -1.4065 -0.9566
 9152TIP3    H248872   5.864   3.343   0.367  0.4831 -0.8311  0.0364
 9153TIP3   OH248873   3.345   0.108   5.327  0.0538  0.4950 -0.2179
 9153TIP3    H148874   3.408   0.166   5.369  0.4197  0.0555 -0.1520
 9153TIP3    H248875   3.260   0.150   5.341  0.3854  1.3696 -0.7739
 9154TIP3   OH248876   1.218   2.702   3.092  0.1862 -0.2101  0.0175
 9154TIP3    H148877   1.138   2.724   3.140 -0.3209 -0.8426 -0.5220
 9154TIP3    H248878   1.284   2.762   3.127 -0.5537  0.4178  0.3697
 9155TIP3   OH248879   6.128   6.622   4.370  0.2224  0.1334 -0.0200
 9155TIP3    H148880   6.124   6.717   4.362  1.6169  0.6041  3.2038
 9155TIP3    H248881   6.221   6.603   4.382 -0.0818 -1.5731 -0.0789
 9156TIP3   OH248882   3.472   1.808   3.755 -0.2338 -0.1030 -0.4292
 9156TIP3    H148883   3.516   1.881   3.798 -0.0744  0.1620 -1.0344
 9156TIP3    H248884   3.515   1.730   3.791  0.7957  0.1482 -1.0559
 9157TIP3   OH248885   2.479   1.262   2.059 -0.5065  0.2809 -0.0267
 9157TIP3    H148886   2.493   1.180   2.011 -0.2598  1.2126 -1.6138
 9157TIP3    H248887   2.537   1.255   2.135  0.4381 -0.5111 -0.7846
 9158TIP3   OH248888   6.155   6.145  13.813 -0.0543 -0.2888  0.2656
 9158TIP3    H148889   6.139   6.054  13.787  0.2529 -0.3260  0.2036
 9158TIP3    H248890   6.216   6.179  13.748 -0.0051 -0.1013  0.4088
 9159TIP3   OH248891   5.372   4.431  14.260  0.3702 -0.0909  0.3431
 9159TIP3    H148892   5.318   4.424  14.339 -0.8619 -0.2265 -0.4765
 9159TIP3    H248893   5.308   4.443  14.189  1.4189 -0.5236 -0.6967
 9160TIP3   OH248894   5.150   4.785   4.781 -0.5331 -0.2790  0.3148
 9160TIP3    H148895   5.194   4.777   4.865  0.7981 -0.6277 -0.3907
 9160TIP3    H248896   5.204   4.847   4.731 -1.0322 -0.4443 -0.4539
 9161TIP3   OH248897   0.952   2.193   3.370 -0.2445  0.3171  0.0257
 9161TIP3    H148898   1.045   2.180   3.356 -0.1870  2.0437 -1.5768
 9161TIP3    H248899   0.921   2.110   3.406  1.5196 -1.0707 -1.4757
 9162TIP3   OH248900   0.037   4.803  10.165 -0.4436 -0.2309 -0.4135
 9162TIP3    H148901   0.131   4.796  10.181 -0.2763 -0.1022 -1.3256
 9162TIP3    H248902   0.018   4.896  10.180 -0.6518 -0.4664  0.9063
 9163TIP3   OH248903   4.442   5.742   2.205  0.1163 -0.2542 -0.0194
 9163TIP3    H148904   4.396   5.729   2.122  0.4837  2.0730 -0.6521
 9163TIP3    H248905   4.461   5.654   2.236 -1.3165 -1.2020 -1.6722
 9164TIP3   OH248906   2.062   4.230   5.122  0.3931  0.1580  0.4412
 9164TIP3    H148907   2.038   4.289   5.194  1.0641 -0.4359  1.1674
 9164TIP3    H248908   2.108   4.287   5.059 -0.6265  0.7799  0.2255
 9165TIP3   OH248909   2.247   0.026  14.610  0.2200  0.1571  0.0246
 9165TIP3    H148910   2.267   0.113  14.646  0.9708  0.5541 -1.2964
 9165TIP3    H248911   2.170   0.040  14.555  0.3598 -0.0069 -0.2150
 9166TIP3   OH248912   5.989   4.177   5.657  0.1447 -0.3481  0.0007
 9166TIP3    H148913   6.054   4.224   5.708 -0.2681  0.0326  0.1874
 9166TIP3    H248914   5.994   4.215   5.569  0.6352 -0.7835 -0.1615
 9167TIP3   OH248915   3.789   5.297  14.170  0.0686  0.0508 -0.2900
 9167TIP3    H148916   3.808   5.313  14.078  0.2263 -2.6135 -0.7949
 9167TIP3    H248917   3.737   5.372  14.198  1.2299  1.6170 -2.1247
 9168TIP3   OH248918   6.088   0.545   4.641 -0.5606 -0.1295 -0.0986
 9168TIP3    H148919   6.086   0.600   4.719 -0.0679  0.4618 -0.4892
 9168TIP3    H248920   6.164   0.487   4.654 -0.4271  0.0269 -0.1705
 9169TIP3   OH248921   5.934   0.910   0.859 -0.8859  0.0339  0.1641
 9169TIP3    H148922   5.864   0.921   0.794  0.5878  0.0988 -1.4824
 9169TIP3    H248923   6.009   0.957   0.823  0.9045 -2.4309  0.4039
 9170TIP3   OH248924   5.914   2.011  15.401  0.0305  0.2039 -0.3202
 9170TIP3    H148925   5.830   1.966  15.393  1.1638 -2.2899  0.7469
 9170TIP3    H248926   5.954   2.005  15.315 -0.2400  0.0493 -0.4345
 9171TIP3   OH248927   0.284   0.481  12.549 -0.2015 -0.0628  0.2922
 9171TIP3    H148928   0.264   0.408  12.607  0.8501 -1.6706 -1.2756
 9171TIP3    H248929   0.347   0.534  12.597 -0.5515 -0.4865  1.2381
 9172TIP3   OH248930   3.661   1.171   0.888 -0.5574 -0.6581 -0.6011
 9172TIP3    H148931   3.621   1.256   0.905 -0.9742 -0.6520 -1.5599
 9172TIP3    H248932   3.755   1.189   0.882 -0.4846 -0.5063  0.5929
 9173TIP3   OH248933   3.644   3.836  11.109  0.1303  0.8433 -0.2272
 9173TIP3    H148934   3.673   3.759  11.060  0.8033  0.7487  0.3091
 9173TIP3    H248935   3.589   3.884  11.047  1.2648  0.9255 -1.2122
 9174TIP3   OH248936   2.365   6.434   2.197 -0.1258 -0.1765  0.3901
 9174TIP3    H148937   2.274   6.464   2.192  0.3413  1.3408  0.4852
 9174TIP3    H248938   2.360   6.349   2.242 -1.2449  1.2868  3.2959
 9175TIP3   OH248939   3.002   2.356   3.946 -0.2620  0.0185 -1.0529
 9175TIP3    H148940   3.070   2.289   3.954 -0.3145 -0.1457 -1.8695
 9175TIP3    H248941   2.931   2.327   4.003  0.6036  0.5274  0.3414
 9176TIP3   OH248942   1.576   2.832   5.341 -0.0700  0.2680  0.6608
 9176TIP3    H148943   1.551   2.742   5.323 -0.2256  0.3193  0.6213
 9176TIP3    H248944   1.581   2.837   5.437  0.2147  0.1433  0.6533
 9177TIP3   OH248945   2.352   6.586  15.220  0.3208  0.5992  0.0279
 9177TIP3    H148946   2.397   6.529  15.283  0.3681  0.2732 -0.2990
 9177TIP3    H248947   2.380   6.675  15.244  2.7287  0.3030 -1.3792
 9178TIP3   OH248948   2.814   4.624  15.980  0.1599  0.1858 -0.2126
 9178TIP3    H148949   2.748   4.612  16.049 -0.1649  1.0766 -0.3488
 9178TIP3    H248950   2.837   4.717  15.986  0.4337  0.1735 -1.0281
 9179TIP3   OH248951   2.729   1.319   4.490  0.1896 -0.0341  0.9763
 9179TIP3    H148952   2.642   1.349   4.517  0.0935  0.2620  0.3459
 9179TIP3    H248953   2.790   1.368   4.546  0.0134  0.9723  0.3070
 9180TIP3   OH248954   1.344   6.481   0.499 -0.4909  0.1538 -0.2582
 9180TIP3    H148955   1.317   6.551   0.559  0.5372 -1.5633  2.4397
 9180TIP3    H248956   1.434   6.504   0.476  0.2071 -0.6586  1.4345
 9181TIP3   OH248957   3.330   1.476   1.102 -0.5385  0.2323  0.0560
 9181TIP3    H148958   3.258   1.539   1.108  0.2087  1.3652 -2.0121
 9181TIP3    H248959   3.326   1.443   1.012  0.7594 -0.6292  0.2880
 9182TIP3   OH248960   3.956   6.246   0.684 -0.3818  0.4829  0.2976
 9182TIP3    H148961   4.047   6.263   0.705  0.2397 -2.2435  0.0580
 9182TIP3    H248962   3.923   6.331   0.653  1.7638  1.7544  1.2946
 9183TIP3   OH248963   6.463   4.374   3.226  0.8302 -0.3749 -0.1810
 9183TIP3    H148964   6.387   4.431   3.220  1.5383  0.7080  0.6378
 9183TIP3    H248965   6.429   4.291   3.259 -0.0456 -0.0479 -0.2401
 9184TIP3   OH248966   1.295   2.063  11.539  0.4077 -0.2548  0.3075
 9184TIP3    H148967   1.333   2.105  11.462  2.1250 -1.9450  0.1783
 9184TIP3    H248968   1.361   2.076  11.608 -0.7981  0.6325  1.3406
 9185TIP3   OH248969   2.487   4.248  10.240  0.2320  0.0334  0.6214
 9185TIP3    H148970   2.578   4.254  10.210 -0.2534  1.3848 -0.6711
 9185TIP3    H248971   2.477   4.322  10.300 -0.7868  1.6852 -1.4828
 9186TIP3   OH248972   0.839   6.688   2.431 -0.5134 -0.0971  0.4619
 9186TIP3    H148973   0.850   6.730   2.516 -0.2564 -0.7935  0.7740
 9186TIP3    H248974   0.900   6.735   2.374 -0.7568  0.4377  0.6243
 9187TIP3   OH248975   4.041   3.966  11.843 -0.0148 -0.1921 -0.2774
 9187TIP3    H148976   4.116   3.940  11.897 -1.0419  0.1734  1.4004
 9187TIP3    H248977   3.974   3.899  11.861 -0.9222  0.8070  0.1518
 9188TIP3   OH248978   1.361   3.799  10.608  0.3938 -0.4395 -0.3610
 9188TIP3    H148979   1.370   3.875  10.551 -1.0822  0.1183  0.0888
 9188TIP3    H248980   1.375   3.724  10.551 -2.4064  0.0313 -1.8692
 9189TIP3   OH248981   1.873   0.956  12.340  0.0946  0.0729  0.1269
 9189TIP3    H148982   1.864   1.033  12.284 -1.2073 -0.5605 -0.5648
 9189TIP3    H248983   1.831   0.885  12.291  0.0402 -0.7749  1.3583
 9190TIP3   OH248984   3.433   0.562  12.516 -0.0212 -0.2843 -0.2494
 9190TIP3    H148985   3.428   0.573  12.611 -1.3432  0.7486 -0.4000
 9190TIP3    H248986   3.502   0.498  12.503  0.4237 -0.1915  1.3933
 9191TIP3   OH248987   0.163   1.934   1.391  0.4350 -0.2964  0.0917
 9191TIP3    H148988   0.098   1.942   1.322 -0.8847 -1.6907  1.1113
 9191TIP3    H248989   0.240   1.980   1.357 -0.6886  0.4170 -1.6135
 9192TIP3   OH248990   2.578   5.248   3.696 -0.3534  0.0414 -0.0291
 9192TIP3    H148991   2.593   5.291   3.612  1.5502 -0.2516  0.1289
 9192TIP3    H248992   2.483   5.256   3.710 -0.9552 -0.9777 -2.7757
 9193TIP3   OH248993   0.363   3.518   4.946 -0.3421  0.0796 -0.1868
 9193TIP3    H148994   0.384   3.554   5.031 -0.4810  0.9543 -0.5141
 9193TIP3    H248995   0.316   3.437   4.965 -1.3007  0.7951  0.5880
 9194TIP3   OH248996   5.680   5.985   5.004 -0.2221 -0.0771 -0.1931
 9194TIP3    H148997   5.618   5.919   5.034 -2.1263  0.9699 -1.6375
 9194TIP3    H248998   5.663   6.061   5.060 -1.0704  0.5759 -1.2884
 9195TIP3   OH248999   3.092   1.258  14.496  0.2247 -0.2533  0.3826
 9195TIP3    H149000   3.130   1.221  14.575  1.8386  0.3333 -0.0874
 9195TIP3    H249001   3.115   1.351  14.498  1.4909 -0.4706 -1.4081
 9196TIP3   OH249002   6.401   1.573  16.063 -0.3369 -0.7130  0.3165
 9196TIP3    H149003   6.463   1.642  16.084 -1.0958  0.5103 -1.1904
 9196TIP3    H249004   6.370   1.541  16.148 -0.5875  1.4096  1.0778
 9197TIP3   OH249005   5.685   3.393  13.936 -0.0009 -0.1071 -0.6805
 9197TIP3    H149006   5.715   3.373  14.025  0.8758  2.4662 -0.3230
 9197TIP3    H249007   5.593   3.366  13.935  0.4856 -2.0140  0.3184
 9198TIP3   OH249008   6.736   6.186  16.514  0.2193 -0.3616  0.0593
 9198TIP3    H149009   6.795   6.171  16.588 -0.9552  1.5671  1.4727
 9198TIP3    H249010   6.777   6.256  16.464  0.3354 -0.7281 -0.3681
 9199TIP3   OH249011   5.444   5.510  13.165  0.0382  0.8672 -0.3817
 9199TIP3    H149012   5.442   5.563  13.085 -1.5653  2.2674  0.5152
 9199TIP3    H249013   5.423   5.421  13.136 -2.7760  1.7234 -1.3436
 9200TIP3   OH249014   1.371   1.170   2.367 -0.3470  0.1114  0.1551
 9200TIP3    H149015   1.449   1.126   2.402  0.6771  1.7893  0.0968
 9200TIP3    H249016   1.343   1.115   2.294 -1.3426 -2.3918  2.2740
 9201TIP3   OH249017   4.484   0.764  10.532  0.7711 -0.2394 -0.5768
 9201TIP3    H149018   4.465   0.832  10.468 -0.4805  0.4634  0.5059
 9201TIP3    H249019   4.560   0.796  10.580  0.4353  0.2037 -0.3401
 9202TIP3   OH249020   1.238   5.883   5.508 -0.0699  0.1939  0.4441
 9202TIP3    H149021   1.192   5.882   5.592 -0.2030  0.5676  0.3755
 9202TIP3    H249022   1.322   5.925   5.527  0.0065  0.0459  0.4415
 9203TIP3   OH249023   5.170   2.882  11.913  0.1189  0.2181 -1.0523
 9203TIP3    H149024   5.077   2.906  11.907 -0.0768 -0.3775 -0.4940
 9203TIP3    H249025   5.185   2.828  11.835  0.4127  1.5992 -1.9949
 9204TIP3   OH249026   4.635   0.500  15.092 -0.2932  0.7968 -0.0343
 9204TIP3    H149027   4.553   0.504  15.141 -0.7968  0.8813 -0.8539
 9204TIP3    H249028   4.637   0.412  15.055  0.4874  0.4514  0.8079
 9205TIP3   OH249029   5.886   0.755  10.537 -0.1134 -0.2705  0.3560
 9205TIP3    H149030   5.973   0.714  10.532  0.9042  1.6836  0.6319
 9205TIP3    H249031   5.865   0.755  10.630 -0.0869 -0.1501  0.3630
 9206TIP3   OH249032   4.646   1.802  15.032 -0.4783  0.4243  0.2265
 9206TIP3    H149033   4.561   1.759  15.031 -0.7480  0.9438 -0.8748
 9206TIP3    H249034   4.706   1.736  15.068 -0.8570 -0.9286 -1.4728
 9207TIP3   OH249035   4.521   1.851  11.741 -0.5440  0.2416  0.0079
 9207TIP3    H149036   4.477   1.807  11.814 -1.9530  1.2004 -0.2474
 9207TIP3    H249037   4.613   1.824  11.750 -0.7549 -0.0110  1.8747
 9208TIP3   OH249038   5.176   2.162  16.167 -0.1833 -0.0915  0.1210
 9208TIP3    H149039   5.099   2.134  16.118  0.4935 -0.4239 -0.7635
 9208TIP3    H249040   5.230   2.084  16.174 -0.9227 -0.4979  2.7639
 9209TIP3   OH249041   2.038   6.128  12.221 -0.1134  0.2482  0.0795
 9209TIP3    H149042   2.108   6.064  12.207 -1.2511 -1.4047  1.4851
 9209TIP3    H249043   2.040   6.145  12.315 -1.0522  0.8474 -0.0005
 9210TIP3   OH249044   3.619   6.015   0.934 -0.7312 -0.1630 -0.6504
 9210TIP3    H149045   3.604   6.074   0.859 -2.1630  1.0947  0.5612
 9210TIP3    H249046   3.707   6.037   0.964 -1.6047  2.2614  0.4420
 9211TIP3   OH249047   2.440   6.153  15.709  0.5060 -0.6367  0.3836
 9211TIP3    H149048   2.419   6.079  15.652 -1.5205  0.0229  0.1922
 9211TIP3    H249049   2.536   6.153  15.715  0.6355 -2.1110 -1.1422
 9212TIP3   OH249050   3.881   6.599  12.005 -0.1208  0.7860  0.4724
 9212TIP3    H149051   3.908   6.532  12.068  2.3405 -0.1288 -1.3805
 9212TIP3    H249052   3.955   6.659  12.001 -0.5881  1.3206 -0.8412
 9213TIP3   OH249053   6.244   4.497  11.644  0.9038  0.0408 -0.6469
 9213TIP3    H149054   6.318   4.530  11.695  0.7466 -0.9066  0.2292
 9213TIP3    H249055   6.215   4.419  11.692 -0.4824  0.2339 -1.1288
 9214TIP3   OH249056   2.992   6.168   0.933  0.5991  0.5400 -0.2447
 9214TIP3    H149057   2.991   6.078   0.965 -0.5311  1.0681  1.3828
 9214TIP3    H249058   3.082   6.198   0.949  0.5218  0.2252  0.8576
 9215TIP3   OH249059   1.039   0.364   3.970  0.1188  0.0143  0.6424
 9215TIP3    H149060   1.061   0.453   3.997 -0.9996  0.1818  1.0739
 9215TIP3    H249061   0.979   0.375   3.896 -1.6452 -0.3011  1.9596
 9216TIP3   OH249062   2.239   4.002  13.897  0.2538  0.0030  0.0637
 9216TIP3    H149063   2.295   4.041  13.964 -0.3584 -0.5132  0.9022
 9216TIP3    H249064   2.157   3.981  13.944 -0.5864  0.5952 -1.0916
 9217TIP3   OH249065   6.555   3.804  14.624 -0.7318 -0.5973 -0.5129
 9217TIP3    H149066   6.483   3.854  14.585 -0.9748  0.3495  1.0472
 9217TIP3    H249067   6.628   3.815  14.563 -1.1640  0.5866 -0.8428
 9218TIP3   OH249068   0.948   3.710   2.513 -0.1067  0.0648  0.1888
 9218TIP3    H149069   0.882   3.765   2.555 -1.2450 -0.7376 -0.4821
 9218TIP3    H249070   1.031   3.754   2.531 -0.7906  0.9954  1.2348
 9219TIP3   OH249071   5.130   3.052  12.706 -0.4919 -0.6956  0.4794
 9219TIP3    H149072   5.159   3.096  12.786  0.1754  0.0151 -0.1473
 9219TIP3    H249073   5.041   3.086  12.692 -0.4076 -0.4165  0.6155
 9220TIP3   OH249074   0.836   6.462  16.302 -0.6319 -0.3046 -0.4003
 9220TIP3    H149075   0.931   6.468  16.314 -0.6324  0.1264 -0.6150
 9220TIP3    H249076   0.812   6.381  16.347 -0.2514 -0.0946  0.1928
 9221TIP3   OH249077   1.397   3.312  11.181  0.7635 -0.1110 -0.6043
 9221TIP3    H149078   1.354   3.230  11.158  3.4342 -1.4237 -1.3412
 9221TIP3    H249079   1.415   3.354  11.097  2.7917 -0.6933 -0.5217
 9222TIP3   OH249080   3.428   5.709  12.366  0.3797  0.3501 -0.4497
 9222TIP3    H149081   3.344   5.663  12.368 -0.7435  2.1506 -2.2714
 9222TIP3    H249082   3.447   5.728  12.458 -2.1649  1.4520 -0.0595
 9223TIP3   OH249083   2.138   1.835   4.004  0.4786  0.3704 -0.3124
 9223TIP3    H149084   2.070   1.894   4.036  1.4836  0.7059  1.3512
 9223TIP3    H249085   2.110   1.748   4.032 -0.2485  0.2303 -1.4242
 9224TIP3   OH249086   5.341   1.448  11.334  0.0401  0.4407 -0.1712
 9224TIP3    H149087   5.343   1.420  11.242  0.4498  0.8839 -0.3003
 9224TIP3    H249088   5.248   1.461  11.352  0.0937  4.1811 -1.7216
 9225TIP3   OH249089   1.042   5.383  12.264 -0.0850  0.0797  0.1460
 9225TIP3    H149090   1.076   5.347  12.183 -0.1353 -0.4723  0.3670
 9225TIP3    H249091   0.952   5.349  12.270 -0.0092 -0.0589  0.5374
 9226TIP3   OH249092   5.087   3.328   2.485  0.5456  0.6937  0.2003
 9226TIP3    H149093   4.999   3.320   2.451  0.5705 -0.4450  0.3652
 9226TIP3    H249094   5.078   3.317   2.580  1.1241 -2.1550  0.0099
 9227TIP3   OH249095   3.889   1.929  15.689  0.5155  0.5036 -0.2777
 9227TIP3    H149096   3.952   1.922  15.761  2.1796  0.4644 -1.6539
 9227TIP3    H249097   3.878   2.024  15.676 -0.0131  0.5101  0.2127
 9228TIP3   OH249098   4.815   5.398   5.732  0.1059 -0.0853 -0.0620
 9228TIP3    H149099   4.748   5.441   5.678 -0.8067 -0.5842  0.6313
 9228TIP3    H249100   4.807   5.440   5.818  0.4661 -0.3659  0.1126
 9229TIP3   OH249101   5.537   5.231   1.023 -0.0873  0.2818 -0.1193
 9229TIP3    H149102   5.625   5.230   0.983  0.1449  0.6358  0.3715
 9229TIP3    H249103   5.480   5.197   0.955  0.3063  0.8572 -0.7526
 9230TIP3   OH249104   5.073   4.457  11.957  0.4337 -0.6772  0.3567
 9230TIP3    H149105   5.059   4.511  12.035  0.7941  1.2758 -0.8581
 9230TIP3    H249106   5.022   4.377  11.973  0.4284 -0.2957  2.5243
 9231TIP3   OH249107   4.511   3.560   0.650  0.3141 -0.1602 -0.3780
 9231TIP3    H149108   4.423   3.524   0.642  0.3707 -0.1075 -1.2725
 9231TIP3    H249109   4.532   3.551   0.743 -0.0847 -1.4507 -0.3934
 9232TIP3   OH249110   3.435   4.655  12.792 -0.2175  0.1194  1.0982
 9232TIP3    H149111   3.383   4.725  12.832  0.7378  0.6924  1.3787
 9232TIP3    H249112   3.525   4.686  12.797  0.0048  0.0318 -1.1339
 9233TIP3   OH249113   6.636   1.426   2.203 -0.2222  0.3802  0.6541
 9233TIP3    H149114   6.648   1.462   2.115 -0.1800 -0.2379  0.4073
 9233TIP3    H249115   6.612   1.502   2.256 -0.3286  0.7451  0.0936
 9234TIP3   OH249116   4.100   5.917   4.448  0.0671  0.1221 -0.0487
 9234TIP3    H149117   4.146   5.959   4.520  0.0003  0.7903 -0.3916
 9234TIP3    H249118   4.155   5.933   4.371 -1.5911  2.5525 -0.8382
 9235TIP3   OH249119   4.230   3.467   5.536 -0.1912 -0.0750  0.5441
 9235TIP3    H149120   4.211   3.380   5.571 -0.8128 -0.0307  0.3186
 9235TIP3    H249121   4.151   3.492   5.489 -0.2397  0.8598  1.1015
 9236TIP3   OH249122   1.443   0.672  14.916 -0.4170  0.3896  0.2290
 9236TIP3    H149123   1.352   0.661  14.887 -1.3417  1.5166  2.4230
 9236TIP3    H249124   1.438   0.738  14.985  2.0937  0.4414  0.4640
 9237TIP3   OH249125   5.558   3.508   2.805 -0.1489  0.5886  0.2115
 9237TIP3    H149126   5.640   3.457   2.809  0.8923  2.1748  0.0081
 9237TIP3    H249127   5.490   3.446   2.831  1.1322 -0.7458  0.5250
 9238TIP3   OH249128   0.554   2.941   0.456 -0.3858  0.0747 -0.5025
 9238TIP3    H149129   0.525   2.892   0.378 -3.2153  0.0581  0.4531
 9238TIP3    H249130   0.547   3.033   0.430  1.9802  0.1135 -1.2876
 9239TIP3   OH249131   3.642   4.764   3.490 -0.1300  0.4030  0.2053
 9239TIP3    H149132   3.606   4.851   3.510 -2.8455 -0.8363  1.1376
 9239TIP3    H249133   3.576   4.724   3.433  0.9275 -1.1734  0.0393
 9240TIP3   OH249134   0.243   1.822   3.132  0.6482  0.1786 -0.5439
 9240TIP3    H149135   0.217   1.886   3.199  0.6413  0.1122 -0.4825
 9240TIP3    H249136   0.160   1.781   3.106  0.4855  1.0453 -1.4701
 9241TIP3   OH249137   1.699   2.620  12.613  0.0752 -0.2135  0.5723
 9241TIP3    H149138   1.674   2.623  12.521 -0.7052 -1.1827  0.7298
 9241TIP3    H249139   1.622   2.582  12.657  1.6240 -2.9472  1.1543
 9242TIP3   OH249140   0.648   0.114   5.790  0.2769 -0.6833 -0.2325
 9242TIP3    H149141   0.725   0.103   5.846  0.3699 -1.2953 -0.4737
 9242TIP3    H249142   0.683   0.148   5.707  0.1129  0.4529  0.1432
 9243TIP3   OH249143   6.560   2.659  14.154  0.4558  0.3875  0.0862
 9243TIP3    H149144   6.517   2.588  14.201  0.6337 -0.4141 -0.9134
 9243TIP3    H249145   6.513   2.738  14.182  0.3249 -0.0934  1.3001
 9244TIP3   OH249146   5.359   4.584  10.950 -0.9753  0.0074 -0.3859
 9244TIP3    H149147   5.385   4.570  10.859 -0.4736  0.2389 -0.2816
 9244TIP3    H249148   5.265   4.567  10.951 -0.7738 -1.2527 -0.6901
 9245TIP3   OH249149   1.925   2.638  12.222  0.1039  0.0089 -0.5514
 9245TIP3    H149150   2.017   2.624  12.198 -0.1544 -1.5637 -0.7177
 9245TIP3    H249151   1.921   2.618  12.316 -0.0230  0.2915 -0.4957
 9246TIP3   OH249152   3.649   6.190   0.743 -0.1921 -0.0878  0.0208
 9246TIP3    H149153   3.595   6.264   0.770 -0.6228 -0.3652 -0.0726
 9246TIP3    H249154   3.735   6.208   0.780 -0.7216 -0.3837  1.4734
 9247TIP3   OH249155   2.964   3.122  11.228  0.1712 -0.3498 -0.9356
 9247TIP3    H149156   2.968   3.192  11.163 -3.0139  1.3188  0.4412
 9247TIP3    H249157   2.927   3.163  11.306 -0.4821 -3.2399  0.4159
 9248TIP3   OH249158   4.497   0.161  13.283 -0.0346 -0.3523  0.1967
 9248TIP3    H149159   4.498   0.073  13.245 -0.6427  0.0020 -0.6606
 9248TIP3    H249160   4.405   0.186  13.284  0.1476  0.3365  0.2813
 9249TIP3   OH249161   2.475   5.430   2.833  0.3010  0.1257 -0.2242
 9249TIP3    H149162   2.396   5.387   2.800  0.7022 -0.0821 -0.9390
 9249TIP3    H249163   2.525   5.451   2.754  1.3950 -0.5973  0.2475
 9250TIP3   OH249164   5.066   1.022   4.468 -0.6059 -0.1144 -0.2136
 9250TIP3    H149165   5.041   0.983   4.384 -0.4990 -1.4038  0.3320
 9250TIP3    H249166   5.038   1.113   4.461 -1.9418 -0.5603 -1.1030
 9251TIP3   OH249167   3.640   4.246  13.619 -0.2958 -0.3315  0.0689
 9251TIP3    H149168   3.551   4.265  13.646 -0.3425  0.0932 -0.3676
 9251TIP3    H249169   3.654   4.300  13.541  0.5370  0.0623  0.4723
 9252TIP3   OH249170   6.596   1.708  15.706 -0.2650 -0.8532  0.1415
 9252TIP3    H149171   6.649   1.632  15.730  2.0262  0.4944 -0.3409
 9252TIP3    H249172   6.619   1.725  15.614  0.6569  1.4014  0.7128
 9253TIP3   OH249173   5.925   3.754  15.963 -0.1508 -0.4647  0.1308
 9253TIP3    H149174   5.900   3.839  15.926  0.1802 -0.9817 -1.3258
 9253TIP3    H249175   6.001   3.727  15.912  1.2244 -0.5777  2.1322
 9254TIP3   OH249176   4.789   2.018   4.904 -0.1944 -0.0241  0.1761
 9254TIP3    H149177   4.859   1.992   4.964 -1.3344  0.0817  1.5864
 9254TIP3    H249178   4.755   2.099   4.939 -1.6375 -0.5459  0.0397
 9255TIP3   OH249179   4.874   5.310  14.434  0.3683  0.2749 -0.2015
 9255TIP3    H149180   4.844   5.360  14.358 -2.1090  1.2372  1.3033
 9255TIP3    H249181   4.797   5.305  14.491  1.1286 -3.4289  0.7256
 9256TIP3   OH249182   1.599   5.983   2.260 -0.2422  0.4128 -0.5238
 9256TIP3    H149183   1.681   6.006   2.217  0.8540 -1.0827  0.6427
 9256TIP3    H249184   1.591   6.047   2.331  0.6508 -0.2202  0.1817
 9257TIP3   OH249185   2.115   2.079   6.015  0.7223 -0.0309 -0.0893
 9257TIP3    H149186   2.186   2.129   6.056 -1.2221  0.1965  3.3851
 9257TIP3    H249187   2.055   2.060   6.087 -0.7140 -3.8584 -2.0519
 9258TIP3   OH249188   4.456   0.389   0.131 -0.3402 -0.9307  0.6047
 9258TIP3    H149189   4.411   0.370   0.049 -0.1108 -1.3945  0.5835
 9258TIP3    H249190   4.538   0.340   0.126  2.5139  3.3897 -1.4317
 9259TIP3   OH249191   1.103   2.559  13.975 -0.1311  0.4381 -0.2242
 9259TIP3    H149192   1.140   2.524  14.056 -0.9266  0.1062  0.0064
 9259TIP3    H249193   1.099   2.654  13.990  0.5487  0.4731 -0.2291
 9260TIP3   OH249194   0.573   2.975   3.599  0.0478  0.0042  0.0308
 9260TIP3    H149195   0.547   2.968   3.691  1.1734  3.0491  0.7139
 9260TIP3    H249196   0.528   3.053   3.567 -1.5377 -1.8298 -2.5542
 9261TIP3   OH249197   0.665   4.356   5.528 -0.7232  0.3521 -0.2116
 9261TIP3    H149198   0.573   4.362   5.503 -0.7205 -0.3628 -0.4271
 9261TIP3    H249199   0.665   4.363   5.623 -1.0816 -0.4179 -0.1481
 9262TIP3   OH249200   1.676   2.812   0.850  0.2634 -0.1071  0.4168
 9262TIP3    H149201   1.652   2.723   0.824 -0.4723  0.2137 -0.0449
 9262TIP3    H249202   1.712   2.851   0.770 -1.2172  0.6141  0.0653
 9263TIP3   OH249203   2.665   5.403  11.524  0.2831  0.2042 -0.8076
 9263TIP3    H149204   2.743   5.361  11.488  0.0949  0.2826 -1.3097
 9263TIP3    H249205   2.594   5.342  11.505  0.2939 -0.1144  0.1127
 9264TIP3   OH249206   0.071   0.397   2.026  0.0312 -0.4993 -0.0602
 9264TIP3    H149207   0.021   0.471   1.992  0.7128  0.1032  0.2525
 9264TIP3    H249208   0.018   0.364   2.099 -0.7423 -0.9298 -0.7877
 9265TIP3   OH249209   6.018   0.851   1.965 -0.0796  0.1140  0.3022
 9265TIP3    H149210   5.945   0.850   1.903  0.6470  3.9112 -0.8845
 9265TIP3    H249211   6.083   0.793   1.926 -1.6093 -1.6619  0.2913
 9266TIP3   OH249212   0.129   3.887   3.765 -0.3202 -0.2110 -0.0803
 9266TIP3    H149213   0.166   3.975   3.761 -0.0014 -0.3133  0.4684
 9266TIP3    H249214   0.065   3.884   3.694  1.3572 -0.3172 -1.6828
 9267TIP3   OH249215   5.875   3.311  15.717  0.0263 -0.3474  0.1964
 9267TIP3    H149216   5.922   3.394  15.705 -0.0993 -0.1829  0.7773
 9267TIP3    H249217   5.944   3.244  15.718  0.0335 -0.4167 -1.5755
 9268TIP3   OH249218   6.111   4.268   5.422 -0.4882 -0.0331  0.2717
 9268TIP3    H149219   6.129   4.361   5.430 -0.9023  0.0130  0.7240
 9268TIP3    H249220   6.186   4.232   5.375  0.0714  0.3958  0.8328
 9269TIP3   OH249221   5.441   3.533   3.705  0.1330 -0.1392  0.1395
 9269TIP3    H149222   5.422   3.492   3.621 -2.9476 -0.7314  0.9985
 9269TIP3    H249223   5.358   3.532   3.752  1.0293  2.8107  2.1112
 9270TIP3   OH249224   3.597   5.298   1.892  0.0864  0.1875  0.6241
 9270TIP3    H149225   3.678   5.325   1.936  0.4073 -0.4394  0.4248
 9270TIP3    H249226   3.583   5.208   1.919 -0.3501  0.1702  0.3618
 9271TIP3   OH249227   6.490   6.485  13.870 -0.1356  0.3220 -0.1474
 9271TIP3    H149228   6.409   6.510  13.913  0.0433 -0.9387  0.9737
 9271TIP3    H249229   6.542   6.565  13.866 -0.7635  0.7695  0.6306
 9272TIP3   OH249230   0.172   0.686   3.912  0.4973  0.3218  0.0357
 9272TIP3    H149231   0.110   0.647   3.849 -0.1558  0.3455  0.6467
 9272TIP3    H249232   0.204   0.612   3.963 -0.7232  0.5343  1.1786
 9273TIP3   OH249233   1.537   3.508   0.190  0.0856  0.7212 -0.1985
 9273TIP3    H149234   1.547   3.568   0.264 -0.4249  0.9560 -0.3178
 9273TIP3    H249235   1.492   3.432   0.226 -0.9391  1.1948 -0.4420
 9274TIP3   OH249236   1.912   1.120  15.900 -0.2256 -0.4581 -1.0300
 9274TIP3    H149237   1.840   1.058  15.894  0.3527 -1.7036  2.3888
 9274TIP3    H249238   1.990   1.068  15.882  0.0744 -0.1225 -0.7182
 9275TIP3   OH249239   3.269   5.643  15.248  0.0414  0.0340  0.0464
 9275TIP3    H149240   3.267   5.565  15.304  0.8764 -1.2178 -1.5704
 9275TIP3    H249241   3.361   5.654  15.226 -0.2037  0.8507 -0.6075
 9276TIP3   OH249242   3.020   1.228  10.924 -0.1145  0.1289 -0.0759
 9276TIP3    H149243   2.929   1.258  10.923 -0.8110 -1.7530  1.0586
 9276TIP3    H249244   3.034   1.187  10.839  0.0328  1.3630 -0.6572
 9277TIP3   OH249245   0.606   3.402  16.165 -0.4402  0.2975 -0.3978
 9277TIP3    H149246   0.522   3.426  16.204 -0.4776  1.5829 -1.2101
 9277TIP3    H249247   0.588   3.396  16.071  0.0024 -1.1769 -0.4125
 9278TIP3   OH249248   3.522   2.282  12.816  0.0241 -0.5291 -0.0213
 9278TIP3    H149249   3.596   2.268  12.875  0.2794 -0.2399 -0.2676
 9278TIP3    H249250   3.505   2.195  12.779  0.6932 -0.4803 -0.4817
 9279TIP3   OH249251   3.593   3.610   4.365 -0.3987 -0.9433 -0.0739
 9279TIP3    H149252   3.630   3.678   4.422 -0.6811 -1.4243  0.7030
 9279TIP3    H249253   3.631   3.627   4.279  0.3768 -0.4555  0.3531
 9280TIP3   OH249254   5.123   0.134   3.670 -0.0448  0.0742 -0.4127
 9280TIP3    H149255   5.199   0.163   3.620 -0.1015  0.5182 -0.2450
 9280TIP3    H249256   5.139   0.165   3.759 -0.1585 -0.3211 -0.2505
 9281TIP3   OH249257   2.377   4.381  14.655  0.2458  0.5768 -0.0158
 9281TIP3    H149258   2.453   4.434  14.634  0.6758  0.9316  2.1916
 9281TIP3    H249259   2.381   4.369  14.750 -2.7173  1.0581  0.2839
 9282TIP3   OH249260   6.366   4.097  14.740 -0.5964  0.1224  0.0188
 9282TIP3    H149261   6.382   4.022  14.683 -0.9138  0.1949 -0.1640
 9282TIP3    H249262   6.296   4.146  14.698 -1.8593 -0.5928  1.2044
 9283TIP3   OH249263   5.672   0.794   3.493  0.8867  0.3149 -0.3096
 9283TIP3    H149264   5.631   0.772   3.577  0.3899 -1.4194 -0.9655
 9283TIP3    H249265   5.650   0.886   3.479 -0.4880  0.1716  0.6536
 9284TIP3   OH249266   4.601   5.098   5.273  0.0436  0.3019 -0.1715
 9284TIP3    H149267   4.689   5.092   5.237  0.2429  0.8922  0.2223
 9284TIP3    H249268   4.547   5.048   5.211  0.6006  0.1718 -0.5591
 9285TIP3   OH249269   4.855   4.295   3.702  0.2416 -0.3337 -0.3015
 9285TIP3    H149270   4.825   4.206   3.688  2.9380 -1.4356  0.2803
 9285TIP3    H249271   4.818   4.321   3.786 -1.0795 -0.6082 -0.7677
 9286TIP3   OH249272   4.193   2.126  11.361  0.1684 -0.3755  0.1011
 9286TIP3    H149273   4.098   2.120  11.375  0.0623 -1.5567 -0.9291
 9286TIP3    H249274   4.217   2.212  11.395 -1.3003  0.0066  0.2414
 9287TIP3   OH249275   2.456   4.297   6.288 -0.4128 -0.7555  0.0221
 9287TIP3    H149276   2.457   4.236   6.362 -0.2982  0.3835  0.9761
 9287TIP3    H249277   2.383   4.268   6.234 -1.1101 -1.0281  1.0789
 9288TIP3   OH249278   6.090   5.937  16.956  0.2025  0.1996 -0.7682
 9288TIP3    H149279   6.011   5.918  17.005  1.3370  1.0161  1.4908
 9288TIP3    H249280   6.113   6.027  16.980  1.1577  0.4262 -2.3362
 9289TIP3   OH249281   2.289   0.343   3.178  0.7261  0.2505  0.0398
 9289TIP3    H149282   2.269   0.399   3.253 -3.7002  1.3373 -1.5951
 9289TIP3    H249283   2.251   0.259   3.200 -0.9825  0.6905 -0.9736
 9290TIP3   OH249284   2.987   0.938  14.427  0.2790  0.3562 -0.7897
 9290TIP3    H149285   2.970   0.878  14.499 -2.5122  0.3259 -1.3542
 9290TIP3    H249286   2.988   0.882  14.349 -0.4847  0.7990 -1.1295
 9291TIP3   OH249287   1.596   3.186   2.217  0.1488 -0.1352 -0.3565
 9291TIP3    H149288   1.511   3.144   2.228  0.1397 -0.3114 -1.0198
 9291TIP3    H249289   1.659   3.121   2.251  0.0094  0.0754  0.3099
 9292TIP3   OH249290   1.987   5.933   5.305 -0.3410  0.2280  0.5871
 9292TIP3    H149291   1.964   5.869   5.237  0.2526  1.7253 -1.1177
 9292TIP3    H249292   1.907   5.943   5.357 -1.2765  0.0454 -0.7584
 9293TIP3   OH249293   6.180   3.580   5.402 -0.2304  0.0620 -0.4115
 9293TIP3    H149294   6.268   3.575   5.438  0.4902  0.5379 -2.0027
 9293TIP3    H249295   6.139   3.497   5.427  0.8674 -0.4207 -0.1561
 9294TIP3   OH249296   2.981   6.630   4.944  0.3163  0.4297 -0.7088
 9294TIP3    H149297   3.047   6.563   4.930 -0.6567 -0.4824 -1.0617
 9294TIP3    H249298   2.905   6.583   4.979  0.0674  1.5521  0.3269
 9295TIP3   OH249299   5.614   4.049   5.505  0.2084  0.6480  0.1129
 9295TIP3    H149300   5.549   4.119   5.503  0.7831  1.1857 -1.0543
 9295TIP3    H249301   5.670   4.067   5.430  0.9295 -0.5435  0.3401
 9296TIP3   OH249302   2.347   1.209   6.100 -0.3409  0.2124 -0.1007
 9296TIP3    H149303   2.381   1.198   6.011  4.6339  0.0101  1.5194
 9296TIP3    H249304   2.393   1.142   6.151 -4.1778 -0.7376  2.5209
 9297TIP3   OH249305   3.674   5.782   2.577 -0.0900  0.3320  0.9248
 9297TIP3    H149306   3.714   5.766   2.492  0.1273 -3.2138  1.5401
 9297TIP3    H249307   3.667   5.877   2.583  0.4830  0.7398 -2.7370
 9298TIP3   OH249308   5.536   2.538  13.891  0.1652 -0.2807 -0.8519
 9298TIP3    H149309   5.511   2.489  13.969  0.5550  1.2410  0.2616
 9298TIP3    H249310   5.452   2.564  13.852 -0.0249 -0.7052 -0.7367
 9299TIP3   OH249311   6.428   6.640   1.897 -0.0491  0.0183 -0.3820
 9299TIP3    H149312   6.457   6.703   1.963  0.6134  2.5674 -2.9044
 9299TIP3    H249313   6.333   6.644   1.900 -0.0162  0.4782  0.1273
 9300TIP3   OH249314   6.176   3.580  15.369 -0.2660  0.0578 -0.4947
 9300TIP3    H149315   6.110   3.545  15.308 -1.2887  2.5965 -0.9756
 9300TIP3    H249316   6.148   3.670  15.385  1.0279  0.0666  2.3135
 9301TIP3   OH249317   3.014   6.772   2.296 -0.1065  0.3170  0.4597
 9301TIP3    H149318   3.052   6.754   2.382  2.9918 -1.4896 -1.0866
 9301TIP3    H249319   2.994   6.865   2.298  1.9898  0.8318  2.4166
 9302TIP3   OH249320   0.504   1.464   2.192 -0.0348 -0.3138  0.2034
 9302TIP3    H149321   0.594   1.461   2.160  0.4553 -0.3343  1.5047
 9302TIP3    H249322   0.452   1.422   2.124  0.8994 -0.0861 -0.6764
 9303TIP3   OH249323   5.506   2.879  13.273  0.3767  0.1471 -0.0914
 9303TIP3    H149324   5.531   2.821  13.345 -0.4866  0.2905  0.3432
 9303TIP3    H249325   5.418   2.910  13.296  1.6536  3.5043  0.8876
 9304TIP3   OH249326   0.856   3.949  15.246  0.1847 -0.0956 -0.4307
 9304TIP3    H149327   0.950   3.970  15.252  0.0379  1.0586 -1.6297
 9304TIP3    H249328   0.829   3.932  15.336  1.2852  0.7766  0.0851
 9305TIP3   OH249329   2.416   6.613  14.589  0.2976 -0.2955 -0.1375
 9305TIP3    H149330   2.369   6.696  14.580  0.3456 -0.3762 -1.3039
 9305TIP3    H249331   2.394   6.582  14.677 -2.1172 -0.4849 -0.7499
 9306TIP3   OH249332   2.443   1.284  15.797  0.8532 -0.2357 -0.5424
 9306TIP3    H149333   2.446   1.370  15.839  3.1378 -0.6923  0.3505
 9306TIP3    H249334   2.512   1.287  15.730 -0.6336 -0.6154 -2.1800
 9307TIP3   OH249335   5.211   2.298  11.433  0.0471 -0.5883 -0.4193
 9307TIP3    H149336   5.285   2.332  11.382  0.6105 -1.9431 -0.5417
 9307TIP3    H249337   5.240   2.306  11.524 -0.0586 -0.2149 -0.4174
 9308TIP3   OH249338   0.293   0.583  16.609 -0.4290 -0.9430 -0.3210
 9308TIP3    H149339   0.224   0.641  16.576  0.0947  0.2834  0.6797
 9308TIP3    H249340   0.373   0.633  16.598 -0.1975 -0.5164  2.5910
 9309TIP3   OH249341   0.434   4.047   2.603 -0.2382  0.4237 -0.2399
 9309TIP3    H149342   0.394   4.014   2.683  1.1858  0.1136  0.3569
 9309TIP3    H249343   0.460   3.969   2.554 -0.6730  0.6200 -0.8109
 9310TIP3   OH249344   6.323   6.326   0.856 -0.6246 -0.5933 -0.0433
 9310TIP3    H149345   6.259   6.386   0.894  0.5187  2.3534 -2.4311
 9310TIP3    H249346   6.270   6.257   0.816 -1.9747 -1.2372  2.6062
 9311TIP3   OH249347   2.257   1.938  11.793  0.2236  0.0021  0.6065
 9311TIP3    H149348   2.293   1.920  11.880  3.3453 -0.6187 -0.6864
 9311TIP3    H249349   2.202   2.016  11.806  1.3471  0.4994  2.9687
 9312TIP3   OH249350   2.890   2.042   2.183 -0.0584  0.0355 -0.2280
 9312TIP3    H149351   2.886   2.078   2.272 -0.1593  0.1189 -0.2660
 9312TIP3    H249352   2.891   1.947   2.196  1.5288  0.0553 -0.0724
 9313TIP3   OH249353   2.031   0.318  14.256  0.0159 -0.1205 -0.0113
 9313TIP3    H149354   1.951   0.368  14.272  0.7524  1.2658 -0.4799
 9313TIP3    H249355   2.009   0.260  14.184 -0.4080  0.6987 -0.5557
 9314TIP3   OH249356   6.800   3.330  14.195  0.5229 -0.1408 -0.2075
 9314TIP3    H149357   6.883   3.330  14.146  1.0169  2.5484  0.4690
 9314TIP3    H249358   6.757   3.411  14.169 -1.2968 -0.8324  0.5006
 9315TIP3   OH249359   3.290   3.015   3.042  0.1042 -0.4263 -0.1867
 9315TIP3    H149360   3.382   2.992   3.057  0.4212  0.8132 -0.1521
 9315TIP3    H249361   3.246   2.994   3.124  0.0388 -2.4237 -0.6725
 9316TIP3   OH249362   5.465   6.679   5.227  0.4606  0.1233 -0.6226
 9316TIP3    H149363   5.505   6.664   5.141  1.0981  0.7428 -0.4492
 9316TIP3    H249364   5.469   6.593   5.270 -0.8563 -0.4566 -1.5893
 9317TIP3   OH249365   0.742   6.631   1.475  0.2974  0.3664 -0.3989
 9317TIP3    H149366   0.683   6.564   1.441  0.3080  0.4439 -0.5691
 9317TIP3    H249367   0.684   6.700   1.506  0.3220  1.1223 -1.9492
 9318TIP3   OH249368   0.189   5.702  13.330  0.2495 -0.0475  0.3315
 9318TIP3    H149369   0.266   5.757  13.318  1.3823 -1.3732  1.2252
 9318TIP3    H249370   0.224   5.613  13.337 -1.3939 -0.7202  0.4374
 9319TIP3   OH249371   4.147   4.939  11.261  0.5237  0.2385 -0.6260
 9319TIP3    H149372   4.071   4.951  11.318  2.3845  1.4490  1.7917
 9319TIP3    H249373   4.111   4.906  11.179 -2.5502  0.4872  0.5083
 9320TIP3   OH249374   0.844   3.070   0.057  0.6593 -0.2193 -0.3708
 9320TIP3    H149375   0.786   2.998   0.030  0.9077 -1.7258  2.6688
 9320TIP3    H249376   0.924   3.057   0.005  0.2979 -1.5218 -0.6432
 9321TIP3   OH249377   0.550   4.373   0.545 -0.2950 -0.0473  0.1994
 9321TIP3    H149378   0.492   4.366   0.470 -1.0471  1.4581  0.6109
 9321TIP3    H249379   0.499   4.338   0.618 -0.8047  1.4395  0.5961
 9322TIP3   OH249380   2.849   3.190  16.489 -0.2814 -0.0466 -0.2895
 9322TIP3    H149381   2.835   3.105  16.448  0.2081 -0.9752  1.3658
 9322TIP3    H249382   2.764   3.213  16.528 -0.4705  0.3396 -0.9166
 9323TIP3   OH249383   6.314   6.127   5.860  0.0888 -0.4827 -0.2297
 9323TIP3    H149384   6.294   6.046   5.907 -2.3926 -1.8380 -3.2565
 9323TIP3    H249385   6.252   6.191   5.894  0.6790 -0.3746  0.7048
 9324TIP3   OH249386   1.342   3.053  15.615 -0.3036 -0.0924  0.4066
 9324TIP3    H149387   1.367   3.145  15.607 -1.9690  0.4160  0.5451
 9324TIP3    H249388   1.387   3.009  15.543  0.6123  0.8086  0.4157
 9325TIP3   OH249389   5.488   2.568   2.764 -0.0978 -0.4715 -0.7245
 9325TIP3    H149390   5.565   2.550   2.818  0.0619  2.1770  0.0881
 9325TIP3    H249391   5.460   2.656   2.791 -3.7640 -1.5106 -0.5688
 9326TIP3   OH249392   6.352   5.911  13.371  0.0570  0.1124  0.5648
 9326TIP3    H149393   6.392   5.905  13.458  0.9881 -2.1938  0.0606
 9326TIP3    H249394   6.425   5.933  13.313 -0.5625  1.6413  0.3442
 9327TIP3   OH249395   5.873   3.846   1.320  0.0949  0.1384 -0.6819
 9327TIP3    H149396   5.810   3.808   1.381  0.5748 -0.7935 -0.7544
 9327TIP3    H249397   5.948   3.786   1.322  1.9846  2.3752  1.1358
 9328TIP3   OH249398   0.408   3.755   5.082 -0.0900 -0.0575 -0.3261
 9328TIP3    H149399   0.495   3.772   5.117 -1.1390  1.9160  1.5600
 9328TIP3    H249400   0.410   3.791   4.993  0.6508  1.2006  0.1793
 9329TIP3   OH249401   4.201   0.944  13.784  0.2566 -0.4202 -0.5224
 9329TIP3    H149402   4.184   0.867  13.730 -0.1393 -0.0466 -0.9353
 9329TIP3    H249403   4.285   0.977  13.754  0.2814 -0.5108 -0.5529
 9330TIP3   OH249404   4.160   2.845  13.349  0.8038  0.0662  0.6285
 9330TIP3    H149405   4.120   2.891  13.423 -0.8080  0.0561 -0.2004
 9330TIP3    H249406   4.160   2.753  13.375  1.3828  0.1971  1.1106
 9331TIP3   OH249407   6.623   6.543  15.406  0.0892  0.3655  0.9425
 9331TIP3    H149408   6.696   6.576  15.458  0.5970 -0.8588  1.0311
 9331TIP3    H249409   6.605   6.612  15.343  1.9097  0.3201  0.3324
 9332TIP3   OH249410   5.493   4.884  11.342 -0.6373  0.2327 -0.2683
 9332TIP3    H149411   5.472   4.812  11.283  1.3966  0.0521 -0.8633
 9332TIP3    H249412   5.420   4.945  11.333 -1.7080 -1.0800 -0.8355
 9333TIP3   OH249413   6.511   2.246   5.639  0.1972  0.4243  0.0982
 9333TIP3    H149414   6.550   2.175   5.691  0.5281  0.2605 -0.3683
 9333TIP3    H249415   6.543   2.326   5.681 -1.1617  0.3278  1.3753
 9334TIP3   OH249416   3.828   6.422   5.056 -0.3950 -0.5521  0.4934
 9334TIP3    H149417   3.901   6.381   5.103  0.2164 -0.6108 -0.4658
 9334TIP3    H249418   3.817   6.367   4.977  1.8884  2.2026 -1.9819
 9335TIP3   OH249419   0.897   4.144   0.388  0.3399  0.0071  0.0447
 9335TIP3    H149420   0.807   4.112   0.398  1.1824 -2.6483 -0.0819
 9335TIP3    H249421   0.927   4.159   0.477  0.3607 -0.9909  0.2189
 9336TIP3   OH249422   1.471   3.084   3.035 -0.0399 -0.2736  0.2487
 9336TIP3    H149423   1.438   3.121   2.953  0.8343  1.6963  0.7279
 9336TIP3    H249424   1.461   3.155   3.099  1.9432 -0.7429  1.1655
 9337TIP3   OH249425   5.991   2.514   3.939  0.1111  1.2610 -0.1016
 9337TIP3    H149426   6.062   2.465   3.979 -0.7094  0.0994 -0.0096
 9337TIP3    H249427   5.943   2.553   4.012  1.0403  2.6441 -0.1964
 9338TIP3   OH249428   3.090   5.623   1.862  0.1651  0.2068  0.2415
 9338TIP3    H149429   3.073   5.717   1.860 -1.9580 -0.1339  0.0275
 9338TIP3    H249430   3.152   5.609   1.790 -1.1979  1.1740 -1.1908
 9339TIP3   OH249431   3.616   6.003  16.587 -0.2922 -0.1345  0.0571
 9339TIP3    H149432   3.603   6.075  16.648 -1.4973  0.7315 -1.1568
 9339TIP3    H249433   3.528   5.981  16.557  0.1999 -1.0683 -0.7675
 9340TIP3   OH249434   5.118   1.633   5.428  0.2891 -0.4576 -0.4629
 9340TIP3    H149435   5.049   1.628   5.494  0.2151 -3.2581 -0.6181
 9340TIP3    H249436   5.194   1.668   5.475  0.3483 -2.7264  1.2884
 9341TIP3   OH249437   5.851   1.509   2.392  0.2746  0.1482  0.2926
 9341TIP3    H149438   5.825   1.423   2.424  0.8934  0.2018  0.9433
 9341TIP3    H249439   5.938   1.496   2.354 -0.7222 -0.0733 -2.0785
 9342TIP3   OH249440   4.654   2.408   4.690 -0.1032  0.0772 -0.0290
 9342TIP3    H149441   4.672   2.420   4.597  2.4566  1.6188  0.5515
 9342TIP3    H249442   4.583   2.470   4.709 -1.1543 -0.7780 -1.0470
 9343TIP3   OH249443   5.645   0.422   2.937 -0.0556 -0.7124  0.4391
 9343TIP3    H149444   5.674   0.501   2.892 -0.9368 -1.2950 -1.2406
 9343TIP3    H249445   5.616   0.452   3.023  0.3225  0.6639  0.1035
 9344TIP3   OH249446   1.643   6.703   5.132 -0.1669 -0.0450 -0.0972
 9344TIP3    H149447   1.661   6.786   5.177 -0.6406 -0.6183  1.2185
 9344TIP3    H249448   1.708   6.642   5.167 -1.4203 -0.8585  0.9131
 9345TIP3   OH249449   2.047   4.221  14.484 -0.4709  0.5904  0.1871
 9345TIP3    H149450   2.018   4.240  14.395  0.3584 -0.5321 -0.3487
 9345TIP3    H249451   2.139   4.195  14.474  0.0025  1.6717  1.5268
 9346TIP3   OH249452   2.415   0.657  15.806  0.0024  0.2959  0.3725
 9346TIP3    H149453   2.472   0.652  15.882  1.2797 -1.0254 -0.6181
 9346TIP3    H249454   2.456   0.721  15.748 -0.4639  0.6152  0.3883
 9347TIP3   OH249455   4.622   6.431  15.602 -0.0575 -0.4830 -0.6304
 9347TIP3    H149456   4.548   6.460  15.548  0.0845 -1.1543 -1.1982
 9347TIP3    H249457   4.627   6.495  15.673 -0.2462  0.4193 -1.4191
 9348TIP3   OH249458   2.296   2.200  12.396 -0.0470 -0.1628 -0.1930
 9348TIP3    H149459   2.222   2.246  12.357  0.7749  0.7754 -0.6926
 9348TIP3    H249460   2.370   2.261  12.389  1.0939 -1.5510 -0.8994
 9349TIP3   OH249461   4.368   0.985  11.975 -0.3126 -0.2125  0.4485
 9349TIP3    H149462   4.315   0.912  12.007 -0.7962  0.5239  1.3817
 9349TIP3    H249463   4.329   1.008  11.891  2.3968 -3.6884 -2.0387
 9350TIP3   OH249464   3.250   3.105   4.744  0.2768 -0.3226  0.7305
 9350TIP3    H149465   3.282   3.055   4.819  1.4505  1.4468  1.5026
 9350TIP3    H249466   3.249   3.196   4.775  0.4918  0.4246 -1.3007
 9351TIP3   OH249467   4.499   1.005  11.155  0.1186  0.1921 -0.4660
 9351TIP3    H149468   4.535   1.091  11.177  1.8137  0.0180 -2.2017
 9351TIP3    H249469   4.421   1.024  11.103 -0.5306  0.6406  0.6534
 9352TIP3   OH249470   1.447   4.466   1.766 -0.3329 -0.4809  0.5448
 9352TIP3    H149471   1.390   4.496   1.695  0.5884 -0.7881 -0.3615
 9352TIP3    H249472   1.527   4.439   1.721  1.1277  1.3769  1.8974
 9353TIP3   OH249473   2.075   4.948   1.999  0.2188 -0.1242  0.2424
 9353TIP3    H149474   2.018   4.872   2.015 -0.0996 -0.1345 -0.8591
 9353TIP3    H249475   2.031   5.021   2.043  0.1044 -0.4156  0.6162
 9354TIP3   OH249476   5.208   5.825   4.254  0.4663 -0.6754 -0.0917
 9354TIP3    H149477   5.240   5.741   4.288  0.4764 -0.8829 -0.5935
 9354TIP3    H249478   5.288   5.877   4.241  0.3796 -0.2138  1.1691
 9355TIP3   OH249479   5.271   2.673  14.149 -0.1656 -0.2030 -0.0317
 9355TIP3    H149480   5.272   2.766  14.124  0.4945 -0.0961  0.3697
 9355TIP3    H249481   5.183   2.644  14.127 -1.0067  0.9965  1.5679
 9356TIP3   OH249482   5.795   5.640   3.861 -0.1229  0.0442  0.1985
 9356TIP3    H149483   5.807   5.549   3.890 -2.2829  0.3157  2.1538
 9356TIP3    H249484   5.843   5.692   3.925 -1.7824  0.4444  1.1448
 9357TIP3   OH249485   5.270   3.180   2.322  0.1423  0.1114 -0.2996
 9357TIP3    H149486   5.203   3.234   2.362  1.2509  2.5564 -1.5391
 9357TIP3    H249487   5.353   3.215   2.355  0.9859  0.6424 -2.7297
 9358TIP3   OH249488   5.613   6.197  14.683 -0.2082 -0.2771  0.3020
 9358TIP3    H149489   5.544   6.221  14.745  0.0485 -1.3602  1.0311
 9358TIP3    H249490   5.565   6.171  14.604 -0.5020  3.6808 -1.0594
 9359TIP3   OH249491   0.275   6.777  11.755  0.1426 -0.1304  0.0042
 9359TIP3    H149492   0.206   6.826  11.711  1.2453 -0.2970 -2.0339
 9359TIP3    H249493   0.229   6.723  11.819 -1.2665  2.2017  1.0864
 9360TIP3   OH249494   0.622   2.030   3.374  0.6781  0.3369  0.1346
 9360TIP3    H149495   0.579   2.011   3.458  2.1771 -1.1494  0.6059
 9360TIP3    H249496   0.714   2.008   3.388  1.0118  0.2858 -1.8428
 9361TIP3   OH249497   5.219   4.002  14.744 -0.0926  0.2557  0.2625
 9361TIP3    H149498   5.270   3.975  14.821 -0.8043 -0.4133  0.5152
 9361TIP3    H249499   5.284   4.015  14.675  0.3795 -1.2140  0.3968
 9362TIP3   OH249500   1.428   3.634   3.301  0.1161  0.4196  0.3418
 9362TIP3    H149501   1.336   3.660   3.310 -0.2952 -0.9954  0.4191
 9362TIP3    H249502   1.477   3.716   3.306 -1.0840  1.1133  1.0961
 9363TIP3   OH249503   0.285   3.513  12.897  0.0993 -0.1430 -0.0166
 9363TIP3    H149504   0.235   3.435  12.871 -0.6480  0.0861  0.6889
 9363TIP3    H249505   0.346   3.528  12.824 -1.7221  0.3244 -1.5336
 9364TIP3   OH249506   4.727   2.264   3.835 -0.1864  0.3589  0.3448
 9364TIP3    H149507   4.730   2.356   3.807 -2.4739  0.7176  1.1137
 9364TIP3    H249508   4.716   2.268   3.930  0.4857 -0.7520  0.4889
 9365TIP3   OH249509   4.216   1.629   4.799  0.0536  0.6014  0.3927
 9365TIP3    H149510   4.189   1.569   4.869 -1.5086 -0.5555 -1.1207
 9365TIP3    H249511   4.306   1.605   4.780 -0.7445 -1.9099 -0.6957
 9366TIP3   OH249512   0.384   4.881  13.662  0.2581 -0.5934  0.1247
 9366TIP3    H149513   0.449   4.818  13.695  1.7935  0.3973 -0.8574
 9366TIP3    H249514   0.436   4.946  13.615 -1.4749  0.2573 -0.7056
 9367TIP3   OH249515   0.386   6.570   0.947 -0.0468  0.3102 -0.5071
 9367TIP3    H149516   0.416   6.645   0.897 -0.2124 -0.0842 -1.2137
 9367TIP3    H249517   0.402   6.495   0.890 -0.9553 -0.0694 -0.2891
 9368TIP3   OH249518   5.761   5.649  13.009 -0.1334 -0.1047  0.1589
 9368TIP3    H149519   5.840   5.612  12.971 -1.0811 -1.2187 -0.8397
 9368TIP3    H249520   5.710   5.573  13.039 -0.1924  0.6617  2.1522
 9369TIP3   OH249521   0.022   1.638   6.298 -0.5365 -0.5221  0.0267
 9369TIP3    H149522   0.055   1.669   6.382  0.8035 -0.5453 -0.4534
 9369TIP3    H249523  -0.067   1.672   6.292 -0.8053 -0.8723  1.6249
 9370TIP3   OH249524   3.152   1.511   2.571 -0.4353  0.1114 -0.4218
 9370TIP3    H149525   3.061   1.530   2.548 -0.8194 -0.0647  0.9157
 9370TIP3    H249526   3.149   1.478   2.661  1.0905  1.2608  0.0923
 9371TIP3   OH249527   2.796   5.880   1.199 -0.0162  0.0990 -0.0537
 9371TIP3    H149528   2.760   5.841   1.119 -0.7976  0.9800 -0.1500
 9371TIP3    H249529   2.746   5.839   1.270  1.4107 -1.4837  0.0833
 9372TIP3   OH249530   2.606   2.168  15.563  0.0304 -0.7856 -0.2225
 9372TIP3    H149531   2.681   2.188  15.507  1.5918 -0.3712  1.9046
 9372TIP3    H249532   2.628   2.084  15.604 -0.2007 -0.2129  1.1352
 9373TIP3   OH249533   6.340   3.308  15.677  0.4721 -0.6103  0.5186
 9373TIP3    H149534   6.320   3.215  15.682 -0.5436 -0.4576 -0.3374
 9373TIP3    H249535   6.352   3.335  15.768 -1.1585 -1.1778  0.9330
 9374TIP3   OH249536   2.871   0.820  14.020 -0.2043  0.0661  0.3908
 9374TIP3    H149537   2.927   0.777  13.955  1.5738  2.0689  0.4580
 9374TIP3    H249538   2.903   0.911  14.022 -2.7616  1.0348  1.2874
 9375TIP3   OH249539   5.693   0.142   0.868 -0.0487  0.0633 -0.6434
 9375TIP3    H149540   5.667   0.234   0.874  0.2748  0.0625  1.2256
 9375TIP3    H249541   5.613   0.093   0.888 -0.2413 -0.0826 -1.7153
 9376TIP3   OH249542   0.834   2.448  15.209  0.3299  0.3783  0.8915
 9376TIP3    H149543   0.895   2.510  15.168  0.1441  0.1138  0.2124
 9376TIP3    H249544   0.886   2.369  15.222 -0.0429 -0.0921 -0.3432
 9377TIP3   OH249545   1.369   1.274   1.013  0.0574 -0.0715  0.0549
 9377TIP3    H149546   1.420   1.350   1.039 -1.3356  0.5928  0.9255
 9377TIP3    H249547   1.397   1.256   0.923  2.8541 -0.6529  0.9444
 9378TIP3   OH249548   5.469   3.725   1.312  0.2885 -0.5003 -0.0643
 9378TIP3    H149549   5.557   3.717   1.349  0.2428  1.6054  0.6636
 9378TIP3    H249550   5.431   3.801   1.357 -1.5737 -0.8015 -1.0157
 9379TIP3   OH249551   3.547   5.067  17.011 -0.0551  0.4175 -0.0242
 9379TIP3    H149552   3.486   5.009  17.056  0.3502 -0.2337 -0.2900
 9379TIP3    H249553   3.512   5.075  16.922  1.4067 -1.8242 -0.8921
 9380TIP3   OH249554   1.545   4.056   1.226  0.2918 -0.0464 -0.3779
 9380TIP3    H149555   1.617   4.059   1.290  2.1273 -1.6173 -2.2322
 9380TIP3    H249556   1.585   4.084   1.144 -2.0358  2.0071 -0.9184
 9381TIP3   OH249557   1.331   6.551  16.144  0.2723  0.0356  0.2327
 9381TIP3    H149558   1.307   6.469  16.187 -0.5689  0.1242 -0.0375
 9381TIP3    H249559   1.293   6.619  16.200  0.6041  0.2242  0.2317
 9382TIP3   OH249560   6.155   6.220  12.025  0.3899 -0.9456  0.1677
 9382TIP3    H149561   6.189   6.142  11.981 -0.3015 -0.8672 -0.5198
 9382TIP3    H249562   6.061   6.220  12.005  0.5243  0.5292 -0.5745
 9383TIP3   OH249563   4.949   3.740  15.850 -0.3832 -0.2916 -0.1769
 9383TIP3    H149564   4.951   3.723  15.756  1.2399  0.6556 -0.3434
 9383TIP3    H249565   5.041   3.742  15.877 -0.7676  0.6342  1.2101
 9384TIP3   OH249566   5.372   3.585   2.011  0.1036  0.2603  0.0629
 9384TIP3    H149567   5.304   3.643   2.045  0.2273  0.9649 -0.8240
 9384TIP3    H249568   5.397   3.531   2.085  1.2294  2.5399  1.4683
 9385TIP3   OH249569   5.258   3.182   5.518  0.1604 -0.1404 -0.2634
 9385TIP3    H149570   5.181   3.229   5.485 -0.5462 -0.6728  0.5655
 9385TIP3    H249571   5.283   3.229   5.597  0.9497  0.2734 -0.7510
 9386TIP3   OH249572   3.126   6.462  10.374 -0.4725  0.6881 -0.3099
 9386TIP3    H149573   3.044   6.417  10.353 -0.2906  0.9892 -1.7848
 9386TIP3    H249574   3.098   6.542  10.420 -1.0080  0.7181 -0.6720
 9387TIP3   OH249575   1.615   0.779  11.524  0.4254 -0.4103  0.1481
 9387TIP3    H149576   1.704   0.763  11.493  0.2110 -1.6952  0.1094
 9387TIP3    H249577   1.573   0.693  11.519 -1.0887  0.3290 -0.7010
 9388TIP3   OH249578   3.757   3.893  12.125 -0.5273 -0.3654 -0.0688
 9388TIP3    H149579   3.686   3.946  12.161 -0.4514  0.7559 -1.4457
 9388TIP3    H249580   3.721   3.805  12.117 -1.1313 -0.2227  0.9622
 9389TIP3   OH249581   2.879   0.331   4.785  0.0482  0.2029  0.1807
 9389TIP3    H149582   2.896   0.245   4.824  0.5658  0.2562  0.0851
 9389TIP3    H249583   2.839   0.311   4.701 -1.4088  0.0913  0.8683
 9390TIP3   OH249584   0.644   2.186   5.305  0.7090  0.2837  0.4923
 9390TIP3    H149585   0.692   2.156   5.227  1.5199  0.2369  0.9914
 9390TIP3    H249586   0.675   2.275   5.319 -1.0482  1.0968 -0.4743
 9391TIP3   OH249587   5.078   5.917  13.687 -0.1345  0.3824 -0.0158
 9391TIP3    H149588   5.145   5.901  13.620 -1.6417 -4.2129 -0.7291
 9391TIP3    H249589   5.129   5.935  13.766  1.8220  0.8031 -1.2786
 9392TIP3   OH249590   4.223   3.656  11.453 -0.6953 -0.2449  0.7437
 9392TIP3    H149591   4.186   3.744  11.459 -1.8179 -0.5182 -1.2775
 9392TIP3    H249592   4.308   3.663  11.496 -0.8625  1.7586  0.8588
 9393TIP3   OH249593   3.171   0.205   6.499 -0.1795 -0.1039  0.4718
 9393TIP3    H149594   3.233   0.244   6.561  0.1409  1.3676 -0.7271
 9393TIP3    H249595   3.220   0.197   6.418 -1.2874  0.2528 -0.2511
 9394TIP3   OH249596   2.642   3.761   1.747 -0.1461  0.2392  0.2314
 9394TIP3    H149597   2.737   3.764   1.757 -0.0747 -2.3853  0.9590
 9394TIP3    H249598   2.626   3.811   1.667  2.0542 -0.7160 -0.9054
 9395TIP3   OH249599   3.833   1.270  15.922 -0.0995  0.5827 -0.2979
 9395TIP3    H149600   3.770   1.303  15.858  0.3666 -1.0127 -1.6618
 9395TIP3    H249601   3.788   1.197  15.965  0.4896 -0.0128 -0.6736
 9396TIP3   OH249602   3.442   4.690  16.589  0.1874  0.4975 -0.0052
 9396TIP3    H149603   3.466   4.749  16.661  1.8784 -0.2324  0.0648
 9396TIP3    H249604   3.497   4.716  16.516 -0.3219  0.1447 -0.5276
 9397TIP3   OH249605   4.695   2.193  12.904  0.0192 -0.9696  0.2547
 9397TIP3    H149606   4.622   2.255  12.905  0.2436 -0.7097  0.8385
 9397TIP3    H249607   4.654   2.108  12.925 -0.0448 -0.7435  1.0689
 9398TIP3   OH249608   6.704   3.338   0.819 -0.3831  0.3179 -0.0292
 9398TIP3    H149609   6.618   3.299   0.806 -0.0851 -0.3042 -0.1860
 9398TIP3    H249610   6.726   3.376   0.734  0.4318 -1.4580 -0.6751
 9399TIP3   OH249611   1.870   3.795   0.599  0.4982  0.1602  0.4056
 9399TIP3    H149612   1.790   3.820   0.552  0.4498 -1.5561 -0.4977
 9399TIP3    H249613   1.911   3.878   0.622 -1.6515  1.1039  1.1059
 9400TIP3   OH249614   6.199   0.828  10.300  0.3426 -0.0647 -0.0499
 9400TIP3    H149615   6.159   0.742  10.286 -1.8303  0.7572  0.6447
 9400TIP3    H249616   6.266   0.813  10.367  0.9376 -1.4255 -0.9018
 9401TIP3   OH249617   5.504   3.376   3.460 -0.3052  0.2379  0.0179
 9401TIP3    H149618   5.583   3.429   3.470 -0.4134  0.3094  0.5214
 9401TIP3    H249619   5.507   3.346   3.369 -0.0996  0.8782 -0.1930
 9402TIP3   OH249620   4.897   0.559  16.015 -0.4584 -0.5002  0.0784
 9402TIP3    H149621   4.847   0.485  16.047  0.0279 -1.7827 -1.9252
 9402TIP3    H249622   4.844   0.595  15.944 -0.9421  1.4712  1.3479
 9403TIP3   OH249623   0.354   6.714   4.928 -0.4067 -0.4385 -0.1175
 9403TIP3    H149624   0.276   6.733   4.876 -0.9833 -1.4563  0.3388
 9403TIP3    H249625   0.325   6.722   5.019 -0.2297 -1.6403  0.0690
 9404TIP3   OH249626   6.132   2.360  15.899 -0.1548 -0.2466  0.2608
 9404TIP3    H149627   6.081   2.397  15.827 -0.7460  0.2614  0.9138
 9404TIP3    H249628   6.181   2.288  15.860 -2.4297 -1.6924 -0.1497
 9405TIP3   OH249629   3.077   6.142  14.967 -0.2299 -0.4628 -0.2150
 9405TIP3    H149630   3.050   6.050  14.962 -1.0440 -0.2587  0.2212
 9405TIP3    H249631   2.995   6.190  14.980  0.3162  0.2099  0.8552
 9406TIP3   OH249632   5.855   4.971   6.091 -1.4280  0.2235 -0.2785
 9406TIP3    H149633   5.881   5.034   6.158 -1.4567 -1.8372  1.7777
 9406TIP3    H249634   5.867   5.018   6.008  0.5511  2.1987  1.0283
 9407TIP3   OH249635   3.371   4.734   3.998  0.2372  0.0518  0.4899
 9407TIP3    H149636   3.299   4.730   4.061  0.4966  0.5572  0.8192
 9407TIP3    H249637   3.444   4.771   4.047  1.2193 -1.9035  0.6120
 9408TIP3   OH249638   3.110   5.253  15.900 -0.0559  0.1387  0.2680
 9408TIP3    H149639   3.202   5.237  15.881 -0.0543  0.9293 -0.4628
 9408TIP3    H249640   3.063   5.216  15.826 -0.3359 -0.3986  0.7149
 9409TIP3   OH249641   1.893   5.254   5.644 -0.0797 -0.2122  0.3545
 9409TIP3    H149642   1.849   5.310   5.707 -0.4986  1.2657 -1.1830
 9409TIP3    H249643   1.822   5.212   5.595  0.2148  0.0329 -0.2959
 9410TIP3   OH249644   3.225   2.051   6.083  0.3658 -0.3740  0.5351
 9410TIP3    H149645   3.191   2.037   6.171 -2.2242 -1.0729 -0.4662
 9410TIP3    H249646   3.228   2.146   6.073 -2.3865 -0.2075  0.4195
 9411TIP3   OH249647   4.295   4.844   5.390 -0.2830  0.1934  0.1590
 9411TIP3    H149648   4.241   4.799   5.456 -0.4994 -1.2633 -0.9557
 9411TIP3    H249649   4.367   4.881   5.440 -0.6059 -0.6103  1.2746
 9412TIP3   OH249650   5.995   4.533  15.632  1.1442  0.3722  0.1816
 9412TIP3    H149651   5.958   4.620  15.645 -0.0684  0.4163 -2.7577
 9412TIP3    H249652   6.088   4.543  15.653  0.6099  1.7484  2.1135
 9413TIP3   OH249653   0.685   4.205  15.226  0.3337 -0.4550  0.1995
 9413TIP3    H149654   0.757   4.144  15.242 -0.8271 -1.7023  0.8385
 9413TIP3    H249655   0.683   4.217  15.131  2.7445  1.3551  0.2689
 9414TIP3   OH249656   4.291   1.407   1.275 -0.7543 -0.2551  0.5481
 9414TIP3    H149657   4.356   1.459   1.321  0.1394 -0.2982 -0.6071
 9414TIP3    H249658   4.212   1.461   1.274 -1.2600 -0.8144  3.2785
 9415TIP3   OH249659   2.328   0.195   1.402 -0.1564 -0.1426 -0.2151
 9415TIP3    H149660   2.288   0.141   1.471 -0.5351  0.8812  0.3849
 9415TIP3    H249661   2.310   0.285   1.428  1.0017  0.3065 -0.8798
 9416TIP3   OH249662   5.593   0.297  13.924  0.6516  0.4864 -0.3264
 9416TIP3    H149663   5.513   0.272  13.877 -0.5884  0.8747  1.4910
 9416TIP3    H249664   5.562   0.346  14.000  2.8005  4.0312 -1.5426
 9417TIP3   OH249665   0.467   0.745  16.460  0.9456  0.1317  0.1996
 9417TIP3    H149666   0.373   0.745  16.442  0.5015  0.4077  2.2769
 9417TIP3    H249667   0.501   0.820  16.411  0.0457  0.2033 -0.3455
 9418TIP3   OH249668   2.219   2.410   4.284  0.2701  0.5818  0.0826
 9418TIP3    H149669   2.259   2.342   4.338  2.4223  2.2957  0.8047
 9418TIP3    H249670   2.219   2.373   4.196  1.8581 -0.1886  0.3683
 9419TIP3   OH249671   4.303   2.727  11.033  0.4577 -0.4069 -0.6837
 9419TIP3    H149672   4.369   2.760  10.971 -1.0297 -1.0998 -2.7677
 9419TIP3    H249673   4.220   2.754  10.995 -0.5059  0.7963  2.0939
 9420TIP3   OH249674   6.201   0.908  16.805 -0.2658 -0.0309 -0.1990
 9420TIP3    H149675   6.193   0.856  16.885  0.2511  0.0379 -0.1027
 9420TIP3    H249676   6.131   0.973  16.812  0.0200  0.2157  0.3795
 9421TIP3   OH249677   6.306   3.906   3.439  0.3455 -0.2905 -0.0331
 9421TIP3    H149678   6.263   3.942   3.517  0.2699  0.5783 -0.4651
 9421TIP3    H249679   6.311   3.812   3.456 -1.4176 -0.3763  0.1682
 9422TIP3   OH249680   3.621   2.577  14.411  0.2985 -0.4461 -0.9202
 9422TIP3    H149681   3.691   2.632  14.446 -0.2868  0.6815 -1.5075
 9422TIP3    H249682   3.602   2.515  14.482  2.9364 -1.8283 -1.2770
 9423TIP3   OH249683   1.977   2.152  16.707 -0.8235  0.3475  0.5842
 9423TIP3    H149684   1.990   2.127  16.616 -0.4594  0.7139  0.5320
 9423TIP3    H249685   1.944   2.242  16.703 -1.4189  0.1460  0.7923
 9424TIP3   OH249686   1.255   4.428   0.861 -0.2402  0.6314 -0.3327
 9424TIP3    H149687   1.312   4.482   0.805 -0.2624  0.6288 -0.3580
 9424TIP3    H249688   1.308   4.352   0.882  0.2360  1.2322  0.7076
 9425TIP3   OH249689   2.944   5.835   1.653  0.0019 -0.3888  0.3462
 9425TIP3    H149690   2.890   5.900   1.607 -0.5417 -0.9133  0.2259
 9425TIP3    H249691   3.019   5.822   1.596 -0.2934 -0.4637 -0.0330
 9426TIP3   OH249692   0.973   5.969   0.159  0.7014 -0.2538  0.5957
 9426TIP3    H149693   1.016   5.884   0.168  0.2516 -0.2215  4.2566
 9426TIP3    H249694   1.045   6.033   0.164  1.0591 -0.2695 -2.3130
 9427TIP3   OH249695   0.418   0.815   0.768  0.6690 -0.2081  0.6219
 9427TIP3    H149696   0.393   0.879   0.701 -1.8730 -0.6243  1.0727
 9427TIP3    H249697   0.469   0.865   0.831 -1.3058  1.4657  1.0042
 9428TIP3   OH249698   6.513   1.054   4.677  0.5541 -0.0409 -0.2723
 9428TIP3    H149699   6.528   1.048   4.772 -1.8570 -0.2355  0.1522
 9428TIP3    H249700   6.456   0.980   4.658  1.2178 -0.1494 -1.9531
 9429TIP3   OH249701   4.946   2.083  10.905  0.1209 -0.5530 -0.2614
 9429TIP3    H149702   4.925   2.124  10.821  0.4983  1.6611  0.6382
 9429TIP3    H249703   4.949   2.156  10.967 -0.1618 -2.1136  1.7000
 9430TIP3   OH249704   5.601   0.441   3.738 -0.5703  0.1856 -0.3452
 9430TIP3    H149705   5.540   0.477   3.673 -1.4664 -1.7616 -0.6621
 9430TIP3    H249706   5.564   0.466   3.822 -1.0912  0.1405 -0.5562
 9431TIP3   OH249707   0.789   2.117  11.103  0.0216  0.0437  0.3868
 9431TIP3    H149708   0.760   2.046  11.161  3.5052 -0.5424  1.6212
 9431TIP3    H249709   0.880   2.096  11.084  0.2492  2.5952 -1.7846
 9432TIP3   OH249710   3.507   5.073   2.734 -0.9558 -0.5552 -0.2340
 9432TIP3    H149711   3.419   5.090   2.769 -0.1889  0.8777  1.1310
 9432TIP3    H249712   3.519   5.142   2.668 -0.5752 -0.2680  0.1320
 9433TIP3   OH249713   5.354   5.387   5.263 -0.0903 -1.2473 -0.2993
 9433TIP3    H149714   5.271   5.427   5.234 -0.3621  0.6318  2.6661
 9433TIP3    H249715   5.422   5.440   5.220 -0.4729 -0.0722  0.4847
 9434TIP3   OH249716   0.112   3.939   5.255 -0.9449  0.2358  0.2948
 9434TIP3    H149717   0.041   3.892   5.211 -0.2967  0.3215 -0.8820
 9434TIP3    H249718   0.173   3.871   5.282 -2.3071 -0.0380  3.0080
 9435TIP3   OH249719   0.439   0.452  12.905  0.1129  0.3591 -0.5938
 9435TIP3    H149720   0.424   0.540  12.870 -2.4340 -0.6075 -2.1794
 9435TIP3    H249721   0.383   0.395  12.853 -0.3489 -1.8642  2.0822
 9436TIP3   OH249722   1.452   5.636   1.638 -0.3135  0.1911  0.0171
 9436TIP3    H149723   1.441   5.626   1.733  3.5240 -2.4642  0.4195
 9436TIP3    H249724   1.460   5.730   1.625 -0.6177  0.6143  2.3549
 9437TIP3   OH249725   4.708   6.119  11.810 -0.6540  0.0438  0.0533
 9437TIP3    H149726   4.752   6.201  11.788  0.5778 -0.3626  0.9049
 9437TIP3    H249727   4.693   6.076  11.725 -0.0623  0.5253 -0.3025
 9438TIP3   OH249728   3.813   2.745   4.811 -0.4396 -0.2425 -0.1136
 9438TIP3    H149729   3.824   2.731   4.905  0.7600 -0.0866 -0.2214
 9438TIP3    H249730   3.739   2.806   4.804  0.3471  0.8430  0.7950
 9439TIP3   OH249731   2.581   0.742   3.802  0.3336  0.3854 -0.4010
 9439TIP3    H149732   2.641   0.766   3.731  2.2440 -1.0811  0.6139
 9439TIP3    H249733   2.600   0.805   3.872 -0.4430  0.8729 -0.6179
 9440TIP3   OH249734   3.602   3.740   7.587  0.2238 -0.6099 -0.6252
 9440TIP3    H149735   3.534   3.676   7.564 -2.2135  1.0017  1.4679
 9440TIP3    H249736   3.603   3.801   7.513 -1.4395 -0.1079 -0.2980
 9441TIP3   OH249737   6.332   5.871  15.701 -0.1226  0.3546 -0.1710
 9441TIP3    H149738   6.334   5.832  15.788 -1.8733  2.1492  0.7397
 9441TIP3    H249739   6.324   5.796  15.642  0.1805 -0.8455  1.2494
 9442TIP3   OH249740   0.405   4.269   3.982 -0.8622 -0.4326  0.5051
 9442TIP3    H149741   0.454   4.340   3.941 -0.8247  0.1694  1.5375
 9442TIP3    H249742   0.456   4.247   4.060 -0.0998 -2.6234 -0.5439
 9443TIP3   OH249743   2.466   4.447  11.470  0.3139  0.0969 -0.0736
 9443TIP3    H149744   2.396   4.511  11.486  0.5242  0.3254 -0.0538
 9443TIP3    H249745   2.421   4.364  11.458  0.1354 -0.1123  1.7337
 9444TIP3   OH249746   6.105   4.673   4.211 -0.0944  0.2194 -0.0932
 9444TIP3    H149747   6.015   4.670   4.242 -0.5392 -2.1525 -1.3947
 9444TIP3    H249748   6.102   4.637   4.122  1.7993  2.3783 -1.1639
 9445TIP3   OH249749   4.914   3.454   4.544  0.5551 -0.7630  0.0655
 9445TIP3    H149750   4.906   3.455   4.639  0.3159  3.1315  0.1661
 9445TIP3    H249751   4.847   3.393   4.514 -1.2734  0.0323  2.3219
 9446TIP3   OH249752   2.682   2.677   4.610  0.2669 -0.2285 -0.5915
 9446TIP3    H149753   2.638   2.686   4.525  0.5001  0.9258 -0.5944
 9446TIP3    H249754   2.775   2.685   4.590  0.2691  1.3315 -0.0894
 9447TIP3   OH249755   0.982   2.462   4.442  0.3566  0.2623 -0.3844
 9447TIP3    H149756   0.901   2.428   4.479 -0.2044  1.2801 -0.6445
 9447TIP3    H249757   1.005   2.536   4.499  2.0666 -1.0676  0.7430
 9448TIP3   OH249758   2.180   5.511  11.652 -0.1597  0.3330 -0.4951
 9448TIP3    H149759   2.163   5.451  11.580 -1.8160 -1.0116  0.9386
 9448TIP3    H249760   2.099   5.562  11.660  0.0564  0.5564  0.3224
 9449TIP3   OH249761   4.049   2.602   1.841 -0.3511 -0.0839 -0.6775
 9449TIP3    H149762   4.062   2.676   1.782  0.6352  0.3910  0.0840
 9449TIP3    H249763   4.087   2.527   1.795 -0.8601 -0.0139 -1.2231
 9450TIP3   OH249764   5.236   3.953   3.957 -0.3350  0.7779  0.0331
 9450TIP3    H149765   5.248   3.957   3.863  0.6615  1.3058  0.1639
 9450TIP3    H249766   5.182   3.876   3.972 -0.4064  0.6305 -0.9540
 9451TIP3   OH249767   4.261   6.768   4.319 -0.4299 -0.0092  0.8949
 9451TIP3    H149768   4.184   6.826   4.320  0.1727  0.8113  0.4605
 9451TIP3    H249769   4.239   6.700   4.256  0.1484  1.5901 -1.1500
 9452TIP3   OH249770   2.103   4.694   0.753 -0.1534  0.0012 -0.4311
 9452TIP3    H149771   2.021   4.735   0.782  0.5316  0.8523  0.3674
 9452TIP3    H249772   2.143   4.760   0.696 -0.7651 -1.0567 -2.1830
 9453TIP3   OH249773   3.695   1.663  14.359 -0.1112  0.0947 -0.0530
 9453TIP3    H149774   3.670   1.668  14.267  0.5298  0.1449 -0.2267
 9453TIP3    H249775   3.738   1.746  14.378  1.3485 -0.5936 -0.1979
 9454TIP3   OH249776   4.199   3.843  13.334 -0.1125 -0.2410 -0.3345
 9454TIP3    H149777   4.155   3.885  13.407 -0.1345  1.1871 -1.1298
 9454TIP3    H249778   4.290   3.831  13.364 -0.3985 -0.7782  0.3433
 9455TIP3   OH249779   1.361   1.213   4.149 -0.2060  0.5590  0.5894
 9455TIP3    H149780   1.309   1.173   4.079 -1.4415  0.6776  1.4117
 9455TIP3    H249781   1.450   1.180   4.134  0.0021  1.9716 -2.0964
 9456TIP3   OH249782   2.326   6.675  16.538  0.1655 -0.0450 -0.1896
 9456TIP3    H149783   2.266   6.708  16.471  0.4289  0.2017 -0.3079
 9456TIP3    H249784   2.391   6.624  16.489 -0.3962 -0.9762  0.0216
 9457TIP3   OH249785   0.598   3.448  14.140 -0.5799 -0.5479 -0.0959
 9457TIP3    H149786   0.637   3.530  14.111 -0.4088 -0.8428 -0.7160
 9457TIP3    H249787   0.557   3.469  14.224  1.2914 -0.3420  0.8227
 9458TIP3   OH249788   0.446   1.359  14.599  0.2852 -0.4952  0.6545
 9458TIP3    H149789   0.518   1.418  14.621 -0.4099 -0.3478  2.7034
 9458TIP3    H249790   0.477   1.272  14.626 -0.3823 -0.3978  1.7629
 9459TIP3   OH249791   0.494   6.018   0.504  0.3725 -0.5695 -0.2718
 9459TIP3    H149792   0.429   5.990   0.439 -0.5110  0.8988 -0.0779
 9459TIP3    H249793   0.535   6.095   0.465  0.7893 -0.4743  0.3397
 9460TIP3   OH249794   5.054   2.460  15.607  0.0022 -0.3742 -0.2419
 9460TIP3    H149795   4.983   2.517  15.634  0.6913 -0.3902  1.7435
 9460TIP3    H249796   5.059   2.472  15.512  0.8215  3.7587  0.1233
 9461TIP3   OH249797   5.106   4.880  11.660  0.5616  0.1089  0.4690
 9461TIP3    H149798   5.143   4.816  11.598 -0.8928  0.2703 -0.6327
 9461TIP3    H249799   5.087   4.829  11.739  0.0705 -0.6849 -0.1456
 9462TIP3   OH249800   1.880   2.890   4.780  0.5559  0.2588  0.1799
 9462TIP3    H149801   1.788   2.875   4.758  0.6435 -0.4820  0.3247
 9462TIP3    H249802   1.927   2.815   4.744  1.1534  0.7971 -0.1905
 9463TIP3   OH249803   2.905   0.935  12.015 -0.3635  0.1903 -0.0264
 9463TIP3    H149804   2.899   1.007  12.078 -3.3631  0.2877 -0.2752
 9463TIP3    H249805   2.916   0.857  12.070 -1.2367  0.4501  0.5466
 9464TIP3   OH249806   5.191   3.720  11.308  0.5375  0.3338  0.0792
 9464TIP3    H149807   5.211   3.795  11.253  0.1243  1.1020  0.9429
 9464TIP3    H249808   5.216   3.748  11.396 -1.7057  0.3430  0.7842
 9465TIP3   OH249809   2.152   2.741   2.509  0.2835 -0.9994 -0.2579
 9465TIP3    H149810   2.081   2.677   2.512  0.4373 -1.1429  0.5243
 9465TIP3    H249811   2.146   2.779   2.422 -1.2839 -0.4185  0.0694
 9466TIP3   OH249812   1.595   6.231  12.269 -0.3479  0.1290 -0.0934
 9466TIP3    H149813   1.513   6.258  12.309  0.7410  0.9240  1.7513
 9466TIP3    H249814   1.656   6.223  12.343  1.2606 -0.3396 -1.4065
 9467TIP3   OH249815   5.523   4.177   1.222  0.4307  0.4551 -0.7140
 9467TIP3    H149816   5.462   4.222   1.164  1.1064  1.8496 -0.3639
 9467TIP3    H249817   5.594   4.239   1.237  1.5584 -0.8296 -0.4518
 9468TIP3   OH249818   2.852   0.668  13.654 -0.3615  0.2464 -0.3440
 9468TIP3    H149819   2.766   0.693  13.620 -0.1610  1.4009 -0.0267
 9468TIP3    H249820   2.911   0.677  13.580 -0.5876 -1.1988 -0.7507
 9469TIP3   OH249821   0.235   2.426  16.626  0.7663  0.1812  0.0491
 9469TIP3    H149822   0.156   2.451  16.578 -0.5367 -2.5654  0.5435
 9469TIP3    H249823   0.212   2.437  16.718  0.2966 -2.0397  0.2703
 9470TIP3   OH249824   2.322   1.728   1.705  0.1130 -0.4237  0.6489
 9470TIP3    H149825   2.398   1.786   1.712 -0.1236  0.1435 -0.9341
 9470TIP3    H249826   2.266   1.753   1.778  0.8676  0.0350  1.0909
 9471TIP3   OH249827   1.221   6.163   4.813 -0.5779 -0.2926 -0.5184
 9471TIP3    H149828   1.306   6.178   4.772 -0.3117 -0.4687 -0.0369
 9471TIP3    H249829   1.171   6.114   4.748  0.4796 -2.2556  0.0567
 9472TIP3   OH249830   3.214   0.354  14.681  0.4638 -0.2068 -0.1841
 9472TIP3    H149831   3.277   0.377  14.749 -0.1428  0.2363  0.2433
 9472TIP3    H249832   3.129   0.359  14.725  0.0458  0.2729 -1.0145
 9473TIP3   OH249833   6.291   4.115   3.218  0.1407 -0.1939  0.5088
 9473TIP3    H149834   6.239   4.113   3.299  1.3984  0.1447  1.3518
 9473TIP3    H249835   6.370   4.066   3.239  0.4063 -0.2574 -0.5863
 9474TIP3   OH249836   0.520   0.441   4.370 -0.3790 -0.3075 -0.5151
 9474TIP3    H149837   0.530   0.498   4.294  0.6584 -1.1748 -1.0608
 9474TIP3    H249838   0.475   0.364   4.337 -3.0612  0.6866  0.5139
 9475TIP3   OH249839   4.317   3.475  16.057 -0.1013 -0.1431 -0.4601
 9475TIP3    H149840   4.387   3.538  16.074 -0.9913  1.0634 -1.1356
 9475TIP3    H249841   4.267   3.472  16.139 -0.1452  0.1374 -0.4769
 9476TIP3   OH249842   3.690   1.964   3.879  0.5913 -0.4160 -0.1091
 9476TIP3    H149843   3.737   2.042   3.910 -0.6616  0.0786  0.6037
 9476TIP3    H249844   3.710   1.897   3.945  2.1568 -0.9210 -1.0321
 9477TIP3   OH249845   2.174   0.324   4.562 -0.0423  0.1283  0.2084
 9477TIP3    H149846   2.139   0.349   4.648 -0.6036  0.8352 -0.2109
 9477TIP3    H249847   2.113   0.257   4.530  1.7172 -2.2662  1.5294
 9478TIP3   OH249848   1.759   3.132  13.219 -0.3753 -0.5805 -0.1144
 9478TIP3    H149849   1.682   3.176  13.183  0.0025 -0.1091 -0.3639
 9478TIP3    H249850   1.733   3.040  13.226 -0.4171 -0.7218 -1.7596
 9479TIP3   OH249851   3.585   4.375   3.247 -0.4899 -0.3079 -0.1479
 9479TIP3    H149852   3.591   4.280   3.233  1.8574 -0.1756 -0.4360
 9479TIP3    H249853   3.528   4.406   3.177 -0.0911 -1.3361 -0.9466
 9480TIP3   OH249854   1.774   5.722   3.540  0.2618  0.1989  0.2545
 9480TIP3    H149855   1.828   5.790   3.579  0.2902 -1.0177  2.4890
 9480TIP3    H249856   1.837   5.654   3.513  0.2267  0.9342 -1.8529
 9481TIP3   OH249857   4.274   2.566   3.706  0.2227 -0.3785 -0.2481
 9481TIP3    H149858   4.212   2.639   3.719 -1.0722 -1.3147 -0.9120
 9481TIP3    H249859   4.238   2.495   3.760  1.6746 -0.4459  0.6780
 9482TIP3   OH249860   1.894   6.084   1.047 -0.1353  0.2788 -0.0527
 9482TIP3    H149861   1.847   6.028   1.109 -1.0229  0.7120 -0.3083
 9482TIP3    H249862   1.858   6.059   0.962  2.2713 -1.5078 -0.6396
 9483TIP3   OH249863   4.136   2.355   1.713 -0.4524  0.0422  0.6139
 9483TIP3    H149864   4.077   2.281   1.701 -0.3632  0.1963 -0.9057
 9483TIP3    H249865   4.199   2.348   1.641 -1.5549  2.6165 -0.7426
 9484TIP3   OH249866   2.706   5.574  10.325 -0.1610  0.3192  0.1933
 9484TIP3    H149867   2.741   5.529  10.401  0.2367  1.1110  0.4886
 9484TIP3    H249868   2.632   5.625  10.358 -1.4054 -1.0559 -0.3601
 9485TIP3   OH249869   5.356   0.135   1.203 -0.0442 -0.2652 -0.7953
 9485TIP3    H149870   5.387   0.172   1.121  1.3226  0.7737  0.1391
 9485TIP3    H249871   5.427   0.151   1.265 -1.0745 -0.9330  0.6208
 9486TIP3   OH249872   1.637   1.559  14.078 -0.4428  0.3464 -1.0618
 9486TIP3    H149873   1.687   1.567  14.159  0.1763 -0.8447 -1.2973
 9486TIP3    H249874   1.656   1.470  14.047 -1.8778  0.2349 -1.7152
 9487TIP3   OH249875   5.050   5.827   4.501  0.3107  0.1280 -0.1776
 9487TIP3    H149876   5.119   5.856   4.442 -0.4056  0.1857 -1.0005
 9487TIP3    H249877   5.068   5.873   4.583  1.1162  0.3140 -0.4544
 9488TIP3   OH249878   3.684   5.391  12.468  0.5893 -0.3064 -0.5758
 9488TIP3    H149879   3.752   5.335  12.506  0.3310  0.6363  1.4311
 9488TIP3    H249880   3.605   5.337  12.469 -0.2787  0.6705  3.7370
 9489TIP3   OH249881   3.369   2.883   0.195 -0.1244 -0.6368  0.1874
 9489TIP3    H149882   3.391   2.962   0.245 -1.5281 -0.8037  1.1292
 9489TIP3    H249883   3.454   2.850   0.164  0.4928  1.2555 -0.2900
 9490TIP3   OH249884   4.841   2.126  14.051  0.1858  0.3663 -0.1851
 9490TIP3    H149885   4.837   2.089  14.138 -0.5351 -0.0721 -0.4012
 9490TIP3    H249886   4.783   2.202  14.054  0.0384  0.2597 -0.3254
 9491TIP3   OH249887   4.190   0.910  16.616  0.3338 -0.4638  0.1927
 9491TIP3    H149888   4.160   0.998  16.640  0.9846  0.1896 -1.2469
 9491TIP3    H249889   4.280   0.923  16.586 -0.3229 -1.1630 -2.3594
 9492TIP3   OH249890   5.880   5.480  12.044  0.3922  0.3535 -0.6894
 9492TIP3    H149891   5.827   5.479  11.964 -0.3768  0.5709 -0.1904
 9492TIP3    H249892   5.817   5.495  12.115  1.0037 -0.2719  0.0088
 9493TIP3   OH249893   3.653   2.881   3.858  0.6034  0.5145 -0.1408
 9493TIP3    H149894   3.614   2.797   3.833  0.9929  0.6345 -1.1589
 9493TIP3    H249895   3.649   2.880   3.954 -1.3566  0.2641 -0.1682
 9494TIP3   OH249896   5.983   5.938   2.937 -0.0003 -0.2227 -0.1412
 9494TIP3    H149897   6.063   5.983   2.965  0.4203  0.0928 -1.7509
 9494TIP3    H249898   5.941   5.999   2.877  0.2725 -1.6941 -1.9059
 9495TIP3   OH249899   3.537   1.988   2.556 -0.2661  0.0015 -0.0239
 9495TIP3    H149900   3.617   2.028   2.523  0.0430 -0.1828  0.5055
 9495TIP3    H249901   3.556   1.895   2.562  0.8829  0.3158  3.8745
 9496TIP3   OH249902   2.181   5.743   0.956 -0.0306 -0.0409 -0.0556
 9496TIP3    H149903   2.258   5.801   0.954  0.0950 -0.1784  0.5772
 9496TIP3    H249904   2.135   5.768   1.036 -0.8957  0.3537 -0.6674
 9497TIP3   OH249905   1.742   1.754   5.158 -0.2453  0.0857  0.1371
 9497TIP3    H149906   1.795   1.675   5.169  2.7437  1.7862 -0.9980
 9497TIP3    H249907   1.736   1.791   5.246 -0.2867 -0.5596  0.4124
 9498TIP3   OH249908   2.864   5.552   0.681 -0.3324  0.2603 -0.0683
 9498TIP3    H149909   2.855   5.558   0.586 -0.1424  0.3871 -0.0804
 9498TIP3    H249910   2.774   5.552   0.714 -0.3880  1.3258 -0.1851
 9499TIP3   OH249911   0.691   6.419   5.267 -0.2547  0.0794  0.1478
 9499TIP3    H149912   0.692   6.359   5.192  2.5482  0.3214 -0.0917
 9499TIP3    H249913   0.772   6.401   5.314  1.1624  4.0996 -0.3252
 9500TIP3   OH249914   3.970   5.717   1.392 -0.4387  0.4790 -0.1234
 9500TIP3    H149915   3.878   5.744   1.399 -0.1641  1.9084 -1.4535
 9500TIP3    H249916   3.996   5.742   1.303  2.0020  2.7986  1.0838
 9501TIP3   OH249917   4.688   1.806   1.000  0.5234 -0.0014  0.4174
 9501TIP3    H149918   4.728   1.719   0.998  1.0027  0.2122  0.3083
 9501TIP3    H249919   4.763   1.866   1.004  0.2161  0.4278 -0.1891
 9502TIP3   OH249920   3.931   1.337   5.400 -0.3936 -0.5072 -0.2841
 9502TIP3    H149921   3.899   1.394   5.330  0.3777  2.0760  1.3218
 9502TIP3    H249922   3.892   1.374   5.480  2.4133 -0.4121  1.1368
 9503TIP3   OH249923   6.083   0.642  13.398  0.2265 -0.1795 -0.3016
 9503TIP3    H149924   6.063   0.660  13.306 -0.4164  1.3277  0.0968
 9503TIP3    H249925   6.068   0.548  13.408  0.7141 -0.4426 -1.8275
 9504TIP3   OH249926   3.184   3.471  16.006 -0.1547 -0.0017 -0.1474
 9504TIP3    H149927   3.113   3.438  15.952 -0.4446  0.2918  0.0464
 9504TIP3    H249928   3.188   3.564  15.985 -1.2369  0.4459  1.3665
 9505TIP3   OH249929   2.502   6.443  12.827  0.0171  0.5043 -0.7081
 9505TIP3    H149930   2.503   6.348  12.838  0.0860  0.5442 -0.3590
 9505TIP3    H249931   2.572   6.461  12.764  1.2547  0.4870  0.6166
 9506TIP3   OH249932   4.986   5.162   3.437  0.6435  0.0329  0.1363
 9506TIP3    H149933   4.979   5.100   3.510  0.3974 -1.3554 -1.0036
 9506TIP3    H249934   4.931   5.123   3.369  0.1762  1.7369 -0.4935
 9507TIP3   OH249935   6.632   1.408  12.654 -0.2361 -0.0568 -0.1976
 9507TIP3    H149936   6.654   1.410  12.747  0.7014  0.0953 -0.4134
 9507TIP3    H249937   6.597   1.495  12.636 -0.8965 -0.2475  0.1123
 9508TIP3   OH249938   0.493   6.778  15.889  0.5039  0.0548  0.1335
 9508TIP3    H149939   0.494   6.701  15.833  0.7714  0.4489 -0.4200
 9508TIP3    H249940   0.586   6.798  15.904  0.4373  0.1959  0.3757
 9509TIP3   OH249941   3.559   4.746   2.122 -0.1472 -0.3965 -0.0795
 9509TIP3    H149942   3.481   4.799   2.136  0.4209  1.0450 -2.0296
 9509TIP3    H249943   3.603   4.785   2.047  2.1092 -1.5859  0.5041
 9510TIP3   OH249944   2.596   2.883  14.895 -0.3241 -0.2132  0.3008
 9510TIP3    H149945   2.562   2.938  14.966 -0.1419  1.4040 -0.8129
 9510TIP3    H249946   2.683   2.856  14.924  0.3429  1.6243  0.1409
 9511TIP3   OH249947   6.095   3.859  16.656  0.4775 -0.3970 -0.2021
 9511TIP3    H149948   6.043   3.932  16.688 -0.4100 -0.4058 -1.5578
 9511TIP3    H249949   6.156   3.898  16.594  0.1001 -0.7887 -0.8207
 9512TIP3   OH249950   5.381   1.724   5.823  0.4602  0.2626  0.0167
 9512TIP3    H149951   5.384   1.800   5.882 -0.7164  1.2208 -1.1077
 9512TIP3    H249952   5.303   1.738   5.769  0.6552 -1.3610 -0.7561
 9513TIP3   OH249953   1.047   2.893  12.180  0.0464  0.4440  0.0276
 9513TIP3    H149954   1.034   2.959  12.111 -0.6162 -0.4475 -0.7167
 9513TIP3    H249955   1.121   2.927  12.231  0.8942  0.8739 -1.4176
 9514TIP3   OH249956   2.464   3.217  11.855 -0.5689  0.1470 -0.3596
 9514TIP3    H149957   2.552   3.199  11.822 -1.0077  0.6756 -1.9119
 9514TIP3    H249958   2.477   3.274  11.931  0.4395 -0.1638 -0.2908
 9515TIP3   OH249959   0.481   1.196   1.235  0.2930  0.0311  0.0327
 9515TIP3    H149960   0.566   1.192   1.191  0.3673  0.0894  0.1690
 9515TIP3    H249961   0.417   1.174   1.168  0.3877  0.3440 -0.1618
 9516TIP3   OH249962   4.631   3.129  14.342 -0.1699  0.0614 -0.0868
 9516TIP3    H149963   4.565   3.167  14.399  0.1603  0.3719  0.0952
 9516TIP3    H249964   4.691   3.201  14.323  1.3655 -0.7116  1.5531
 9517TIP3   OH249965   3.029   3.136  14.305  0.2378  0.3555  0.3595
 9517TIP3    H149966   3.007   3.055  14.258  0.8413  0.7089 -0.5776
 9517TIP3    H249967   2.982   3.129  14.388 -1.7100  0.1563 -0.6907
 9518TIP3   OH249968   1.757   6.104  10.700  0.2059 -0.1929  0.5044
 9518TIP3    H149969   1.844   6.138  10.679  1.0567 -1.0222  2.4084
 9518TIP3    H249970   1.698   6.178  10.686  1.6024  1.2479  1.8136
 9519TIP3   OH249971   5.500   6.476   5.418  0.2006  0.0080 -0.1300
 9519TIP3    H149972   5.544   6.506   5.497 -1.2454 -0.5295  0.9251
 9519TIP3    H249973   5.406   6.481   5.439 -0.2975  1.2833 -2.3323
 9520TIP3   OH249974   4.413   1.135   4.604 -0.4616 -0.1181 -0.3993
 9520TIP3    H149975   4.447   1.082   4.532  0.8467  0.7827 -0.4783
 9520TIP3    H249976   4.470   1.212   4.606  1.3020 -1.3207  3.2769
 9521TIP3   OH249977   1.591   5.974   3.780  0.0375 -0.1173 -0.5614
 9521TIP3    H149978   1.542   5.939   3.706 -0.1739  0.9710 -0.9519
 9521TIP3    H249979   1.524   6.007   3.840  0.1465 -1.8867  0.6314
 9522TIP3   OH249980   5.130   1.073  10.546 -0.0468  0.1455  0.0218
 9522TIP3    H149981   5.116   1.164  10.573 -1.5301 -0.0842  0.1452
 9522TIP3    H249982   5.047   1.030  10.565  0.4756 -1.1296 -0.4860
 9523TIP3   OH249983   1.131   6.533   3.823 -0.2226  0.0435  0.4658
 9523TIP3    H149984   1.183   6.462   3.860 -0.1945  0.1150  0.5647
 9523TIP3    H249985   1.190   6.608   3.819 -0.6060  0.4292  1.5853
 9524TIP3   OH249986   4.619   3.771  14.890  0.3478 -0.9742  0.0258
 9524TIP3    H149987   4.658   3.855  14.912  2.5171 -1.6837 -0.8424
 9524TIP3    H249988   4.612   3.725  14.974 -0.9627  0.0538  0.5220
 9525TIP3   OH249989   6.078   5.162   3.447 -0.9477 -0.2291  0.1644
 9525TIP3    H149990   6.069   5.232   3.383 -1.6412 -0.2443  0.2444
 9525TIP3    H249991   6.129   5.095   3.400  1.5474  1.1174  0.7509
 9526TIP3   OH249992   2.041   1.553  11.893 -0.1699  0.3779  0.0336
 9526TIP3    H149993   1.988   1.613  11.841  0.4146  0.6785 -0.2244
 9526TIP3    H249994   2.122   1.541  11.843  0.2521  0.3798  0.6888
 9527TIP3   OH249995   1.388   5.679   1.040 -0.3777  0.2102  0.0927
 9527TIP3    H149996   1.464   5.722   1.000 -0.1242  1.2115  1.5700
 9527TIP3    H249997   1.348   5.629   0.968  0.6337  1.1094 -1.1482
 9528TIP3   OH249998   5.769   0.653   2.819 -0.6530 -0.0867 -0.1406
 9528TIP3    H149999   5.831   0.713   2.861 -0.3615  0.0494 -0.7569
 9528TIP3    H250000   5.771   0.678   2.727  0.7163 -2.1072 -0.7176
 9529TIP3   OH250001   5.456   0.695   0.339 -0.7251  0.4093 -0.1009
 9529TIP3    H150002   5.417   0.706   0.426 -0.4376 -1.0869  0.2341
 9529TIP3    H250003   5.512   0.772   0.329 -2.5128  1.8189  0.0435
 9530TIP3   OH250004   6.031   0.082  11.560  0.0282  0.2949 -0.1072
 9530TIP3    H150005   5.975   0.008  11.582  2.2384 -0.8131  2.4432
 9530TIP3    H250006   5.971   0.157  11.554 -1.9260 -1.1427  0.4412
 9531TIP3   OH250007   5.361   1.063  16.129 -0.3747 -0.2548  0.0197
 9531TIP3    H150008   5.348   1.079  16.035  1.0523  0.8785 -0.0137
 9531TIP3    H250009   5.381   1.149  16.166  1.5821 -1.0237  0.9057
 9532TIP3   OH250010   1.773   6.165   5.570  0.2819 -0.0859 -0.4067
 9532TIP3    H150011   1.865   6.152   5.593  0.2538 -1.4100 -0.9172
 9532TIP3    H250012   1.726   6.102   5.624 -0.1846 -0.2719 -1.0137
 9533TIP3   OH250013   2.661   5.149   2.834  0.1617  0.4681 -0.5544
 9533TIP3    H150014   2.609   5.226   2.857 -0.0209  0.7069 -1.7169
 9533TIP3    H250015   2.596   5.079   2.821  0.3914 -0.2835  1.7904
 9534TIP3   OH250016   2.904   0.941  13.113 -0.0193 -0.2571 -0.2588
 9534TIP3    H150017   2.918   0.975  13.024 -1.2460  1.3462  0.1207
 9534TIP3    H250018   2.829   0.990  13.146  0.6303 -0.5647  1.8126
 9535TIP3   OH250019   6.329   3.420  16.762  0.1396 -0.3124  0.1558
 9535TIP3    H150020   6.383   3.414  16.683  0.2685 -0.5806  0.2609
 9535TIP3    H250021   6.317   3.329  16.789 -1.6857 -0.3854 -0.7442
 9536TIP3   OH250022   4.128   0.321  16.578 -0.2793  0.0402 -0.2604
 9536TIP3    H150023   4.130   0.415  16.558 -1.1813 -0.1731 -1.4324
 9536TIP3    H250024   4.161   0.279  16.499 -0.2379 -0.6504  0.1244
 9537TIP3   OH250025   4.275   5.331  14.670  0.5665 -0.1538 -0.1750
 9537TIP3    H150026   4.344   5.284  14.716 -0.8712 -1.4171  0.8126
 9537TIP3    H250027   4.205   5.341  14.735  0.7319  3.4174 -0.3120
 9538TIP3   OH250028   4.537   1.372   3.512 -0.1736  0.1471  0.0269
 9538TIP3    H150029   4.604   1.429   3.475  0.8396 -2.0812 -1.8319
 9538TIP3    H250030   4.538   1.391   3.605  1.8137  1.4269 -0.1979
 9539TIP3   OH250031   6.409   4.374  15.620 -0.6124 -0.0280 -0.6859
 9539TIP3    H150032   6.410   4.344  15.711  0.5390  0.3913 -0.5391
 9539TIP3    H250033   6.325   4.344  15.586 -1.0006 -0.3176  0.4701
 9540TIP3   OH250034   5.137   4.003  16.354  0.3065  0.0472 -0.9285
 9540TIP3    H150035   5.055   3.957  16.335  1.2204 -1.9038 -0.4148
 9540TIP3    H250036   5.113   4.070  16.417 -1.1668  0.6462 -2.0589
 9541TIP3   OH250037   5.493   2.012  12.488 -0.1295 -0.3712  0.1588
 9541TIP3    H150038   5.580   2.032  12.522 -0.5084 -0.0762  0.9936
 9541TIP3    H250039   5.490   2.054  12.402  0.3636  0.0798  0.3541
 9542TIP3   OH250040   5.315   4.093   3.352  0.3643  0.4560 -0.5403
 9542TIP3    H150041   5.289   4.184   3.366  0.1639  0.4614 -0.9262
 9542TIP3    H250042   5.314   4.082   3.257  0.3398  0.0350 -0.4955
 9543TIP3   OH250043   1.716   0.114  16.413  0.1997  0.0032 -0.6226
 9543TIP3    H150044   1.770   0.071  16.347  0.5136 -1.2361  0.4168
 9543TIP3    H250045   1.757   0.092  16.497 -0.9031  0.5032  0.0742
 9544TIP3   OH250046   0.801   1.368  11.458  0.7306  0.2923 -0.2540
 9544TIP3    H150047   0.729   1.309  11.481  0.5418  0.1651 -1.1336
 9544TIP3    H250048   0.876   1.333  11.505  0.0677  0.9027  1.3393
 9545TIP3   OH250049   3.422   5.888   4.643 -0.4689  0.6604  0.0139
 9545TIP3    H150050   3.344   5.905   4.590  0.4345  1.3831 -1.1393
 9545TIP3    H250051   3.496   5.914   4.587  0.5399  1.4647  1.6232
 9546TIP3   OH250052   1.431   4.330   4.578  0.4080 -0.1700 -0.0956
 9546TIP3    H150053   1.388   4.411   4.605  1.8630  0.9285 -0.9252
 9546TIP3    H250054   1.382   4.261   4.623  0.3177  1.2853  2.2051
 9547TIP3   OH250055   2.878   5.363   5.571 -0.2575 -0.2254  0.1355
 9547TIP3    H150056   2.795   5.321   5.593 -0.7768  0.3858 -0.6011
 9547TIP3    H250057   2.884   5.437   5.632 -0.1128 -0.4419  0.3830
 9548TIP3   OH250058   5.422   6.796  12.520  0.0081 -0.3157  0.0970
 9548TIP3    H150059   5.362   6.814  12.592 -1.3111 -0.7865 -0.8461
 9548TIP3    H250060   5.430   6.879  12.473  1.0189  0.0410  0.8643
 9549TIP3   OH250061   0.462   3.296  14.848 -0.2744  0.4075 -0.0380
 9549TIP3    H150062   0.467   3.232  14.918 -0.1939  1.3812  0.8650
 9549TIP3    H250063   0.481   3.247  14.768 -0.6670 -0.7708  0.5819
 9550TIP3   OH250064   0.058   5.931  15.746  0.3300 -0.4975 -0.1353
 9550TIP3    H150065   0.052   6.008  15.803  0.6471  0.0630 -0.8488
 9550TIP3    H250066   0.025   5.860  15.800 -1.8381  0.4540 -0.0923
 9551TIP3   OH250067   5.592   4.977   0.661 -0.6014 -0.6785 -0.2168
 9551TIP3    H150068   5.593   4.882   0.646 -3.0703 -1.1165  1.5772
 9551TIP3    H250069   5.544   5.012   0.586 -1.2306 -1.1247 -0.0424
 9552TIP3   OH250070   6.565   5.645  15.274 -0.1382 -0.4474  0.2133
 9552TIP3    H150071   6.592   5.735  15.255 -0.1823 -0.7245 -1.3359
 9552TIP3    H250072   6.511   5.620  15.199 -1.5497 -1.2133  1.4145
 9553TIP3   OH250073   4.959   5.503  12.902  0.0350 -0.4477  0.1081
 9553TIP3    H150074   4.933   5.493  12.810  0.4562 -2.2345  0.1434
 9553TIP3    H250075   4.879   5.530  12.946 -0.0612  0.9088 -0.8399
 9554TIP3   OH250076   2.683   3.725  12.787  0.3970 -0.1235 -0.0742
 9554TIP3    H150077   2.654   3.814  12.771  0.9460  0.8706  3.5451
 9554TIP3    H250078   2.777   3.732  12.802  0.3647 -1.1889  0.7623
 9555TIP3   OH250079   4.256   6.684   4.989  0.3227  0.5957  0.9366
 9555TIP3    H150080   4.276   6.713   4.900  3.0452 -1.0551  0.9237
 9555TIP3    H250081   4.181   6.625   4.978 -0.4643  1.6997  0.0244
 9556TIP3   OH250082   4.768   2.591  14.478  0.1061 -0.5875  0.3064
 9556TIP3    H150083   4.785   2.651  14.551 -1.6236  1.6562 -1.0344
 9556TIP3    H250084   4.728   2.514  14.519  0.5009 -0.0058  1.8489
 9557TIP3   OH250085   3.345   4.939   3.830  0.0323 -0.5394  0.4435
 9557TIP3    H150086   3.372   4.860   3.878 -1.1105 -0.4696  1.2299
 9557TIP3    H250087   3.339   5.007   3.896 -1.7007 -0.4750  0.2691
 9558TIP3   OH250088   4.717   2.049   2.177 -0.5785  0.5810 -0.0377
 9558TIP3    H150089   4.650   2.012   2.234 -2.8844  0.3784 -2.6767
 9558TIP3    H250090   4.669   2.082   2.102  2.0555  3.0765 -0.8013
 9559TIP3   OH250091   5.462   5.651  11.821 -0.0981 -0.4382  0.1213
 9559TIP3    H150092   5.444   5.558  11.809  3.4438 -1.0758 -1.5886
 9559TIP3    H250093   5.467   5.686  11.732 -0.5856  1.2646  0.7185
 9560TIP3   OH250094   4.334   1.330  13.478 -0.0940  0.2672  0.0181
 9560TIP3    H150095   4.403   1.325  13.544  1.1291  0.6250 -1.1918
 9560TIP3    H250096   4.311   1.239  13.460 -2.7234  0.1390  3.1567
 9561TIP3   OH250097   3.039   4.813   2.024  0.2261 -0.3413  0.0910
 9561TIP3    H150098   3.080   4.898   2.041 -0.6417  0.3620 -1.1923
 9561TIP3    H250099   3.108   4.760   1.983  0.7256 -0.2253  0.7622
 9562TIP3   OH250100   0.832   0.290   4.136  0.4758 -0.0141  1.2764
 9562TIP3    H150101   0.915   0.285   4.089 -0.3295  0.6774 -0.3260
 9562TIP3    H250102   0.822   0.383   4.157 -0.6031  0.1996 -0.0077
 9563TIP3   OH250103   2.786   0.444  14.435 -0.0782  0.3053  0.6109
 9563TIP3    H150104   2.694   0.472  14.434 -0.2024 -0.0880  0.7458
 9563TIP3    H250105   2.834   0.519  14.470 -0.4524  0.2200  1.3269
 9564TIP3   OH250106   2.170   2.308   3.957 -0.4670  0.0484  0.1917
 9564TIP3    H150107   2.101   2.335   3.896  0.7303  0.7755 -0.8748
 9564TIP3    H250108   2.122   2.263   4.027 -2.0368  0.5961 -0.4636
 9565TIP3   OH250109   3.889   5.098   1.373 -0.2914 -0.1247  0.1023
 9565TIP3    H150110   3.862   5.161   1.440  0.5582  0.5099 -0.1313
 9565TIP3    H250111   3.807   5.059   1.342 -0.7889  0.4991  0.6067
 9566TIP3   OH250112   2.259   1.265  13.280  0.1440 -0.5939  0.1035
 9566TIP3    H150113   2.351   1.292  13.276 -0.4717  1.6471 -0.2368
 9566TIP3    H250114   2.216   1.335  13.328 -1.6957 -0.7159 -1.2675
 9567TIP3   OH250115   2.259   3.060  12.447  0.8229 -0.4459 -0.1682
 9567TIP3    H150116   2.195   2.994  12.421  0.6799 -0.3835  0.0220
 9567TIP3    H250117   2.269   3.048  12.542 -0.3730  0.8141  0.1553
 9568TIP3   OH250118   5.628   3.128   2.846 -0.4272 -0.1161  0.7268
 9568TIP3    H150119   5.702   3.072   2.870 -0.9817 -0.4067  1.8114
 9568TIP3    H250120   5.667   3.199   2.795  0.3908 -1.0765 -0.0365
 9569TIP3   OH250121   2.430   5.947  15.541  0.1732  0.3292 -0.0995
 9569TIP3    H150122   2.501   5.968  15.481 -0.2993  2.6667  0.0322
 9569TIP3    H250123   2.444   5.856  15.565  2.1739  0.2577 -1.3095
 9570TIP3   OH250124   4.638   4.593   3.570  0.6448  0.4487  0.0906
 9570TIP3    H150125   4.587   4.515   3.552  1.1673  0.2049 -0.3700
 9570TIP3    H250126   4.592   4.637   3.641  0.8028 -0.7135  0.9335
 9571TIP3   OH250127   0.590   1.589   1.811  0.1863  0.2146 -0.2007
 9571TIP3    H150128   0.622   1.579   1.722  1.9590 -0.7777  0.4858
 9571TIP3    H250129   0.658   1.640   1.855 -0.0119 -0.4390  0.8955
 9572TIP3   OH250130   4.964   5.189  14.749  0.1347 -0.0993 -0.3961
 9572TIP3    H150131   4.957   5.271  14.700 -2.2116 -0.7862 -1.3741
 9572TIP3    H250132   4.945   5.121  14.685 -1.7716 -1.1162  1.1166
 9573TIP3   OH250133   3.781   5.767   4.833  0.0510 -0.0459  0.5742
 9573TIP3    H150134   3.715   5.750   4.899  1.8312  0.8240  2.7194
 9573TIP3    H250135   3.782   5.862   4.823 -0.3804 -0.1729 -0.9680
 9574TIP3   OH250136   4.189   5.033  12.549  0.4046  0.0627 -0.2318
 9574TIP3    H150137   4.232   4.996  12.627  0.4407  1.7231  0.5830
 9574TIP3    H250138   4.166   4.957  12.496  1.9260 -1.0240  0.5927
 9575TIP3   OH250139   2.698   3.700  11.379 -0.0777 -0.1984  0.0984
 9575TIP3    H150140   2.681   3.793  11.365  1.4219  0.0688 -0.0864
 9575TIP3    H250141   2.618   3.668  11.421 -2.2757  0.2856 -3.3140
 9576TIP3   OH250142   0.415   3.905   3.639 -0.3339  0.4211  0.6365
 9576TIP3    H150143   0.338   3.949   3.674 -1.4496 -0.8190 -0.1820
 9576TIP3    H250144   0.433   3.949   3.556  1.8344  2.8301  2.2190
 9577TIP3   OH250145   5.722   2.453   4.882 -0.0593  0.9215  0.2670
 9577TIP3    H150146   5.635   2.415   4.896  0.4673 -0.1930  0.6026
 9577TIP3    H250147   5.704   2.545   4.864 -1.2641  0.8775  1.0565
 9578TIP3   OH250148   5.863   2.490  12.105 -0.3085  0.0613 -0.2797
 9578TIP3    H150149   5.908   2.478  12.022 -2.4800 -0.7706 -1.3924
 9578TIP3    H250150   5.922   2.451  12.170  1.0511  0.0126 -1.5025
 9579TIP3   OH250151   5.011   1.279  12.761  0.2957  0.7691  0.2535
 9579TIP3    H150152   5.078   1.233  12.710 -1.1601  0.0918 -1.1332
 9579TIP3    H250153   4.942   1.214  12.775 -0.5023  1.7076  0.8134
 9580TIP3   OH250154   6.001   3.390  16.794 -0.3502 -0.0433 -0.4652
 9580TIP3    H150155   6.050   3.348  16.723  0.1318  1.3143 -0.9777
 9580TIP3    H250156   6.057   3.463  16.821 -0.8543 -0.1197  0.8316
 9581TIP3   OH250157   4.571   1.522  14.167 -0.6132 -0.3842  0.4437
 9581TIP3    H150158   4.509   1.449  14.170 -1.8347  0.5959  0.0133
 9581TIP3    H250159   4.612   1.522  14.253 -2.2706 -0.2130  1.2826
 9582TIP3   OH250160   0.932   5.422   5.393 -0.1582  0.4721 -0.0143
 9582TIP3    H150161   0.966   5.458   5.474 -2.9764 -0.5162  1.7316
 9582TIP3    H250162   0.907   5.498   5.341 -0.8061  1.1221  1.2167
 9583TIP3   OH250163   1.819   5.100  11.503  0.4975 -0.1397 -0.1181
 9583TIP3    H150164   1.797   5.180  11.456 -1.5075 -0.6625 -0.1750
 9583TIP3    H250165   1.810   5.123  11.596  0.4908 -0.1279 -0.1216
 9584TIP3   OH250166   5.578   3.437  16.671 -0.0788 -0.4829 -0.4297
 9584TIP3    H150167   5.500   3.381  16.661 -1.7542  1.5140  0.6166
 9584TIP3    H250168   5.545   3.526  16.660  1.8365  0.5108  1.2208
 9585TIP3   OH250169   0.419   5.458  12.467  0.0674  0.1034  0.1871
 9585TIP3    H150170   0.459   5.377  12.499 -2.5821 -0.9345  1.1097
 9585TIP3    H250171   0.489   5.523  12.473  1.6521 -1.6135  1.5425
 9586TIP3   OH250172   3.244   2.846   4.513 -0.7913  0.4708 -0.3124
 9586TIP3    H150173   3.286   2.914   4.461  0.0301 -0.1603 -0.5024
 9586TIP3    H250174   3.154   2.876   4.525 -0.3592  1.7486 -0.1006
 9587TIP3   OH250175   4.228   3.354   3.546  0.2142 -0.8928  0.6046
 9587TIP3    H150176   4.167   3.403   3.601  2.0885  0.8059  1.3007
 9587TIP3    H250177   4.314   3.379   3.578  1.3764 -0.8107 -2.2953
 9588TIP3   OH250178   6.798   6.685  12.916 -0.2384  0.4215  0.0421
 9588TIP3    H150179   6.825   6.666  12.826 -0.8982  0.8533 -0.2517
 9588TIP3    H250180   6.878   6.715  12.959 -0.2001  1.6250 -0.8033
 9589TIP3   OH250181   2.372   6.198   0.774 -0.0950 -0.0499 -0.3725
 9589TIP3    H150182   2.441   6.190   0.840 -0.3321  0.0260 -0.1118
 9589TIP3    H250183   2.418   6.223   0.694  0.0524  1.3570  0.1153
 9590TIP3   OH250184   6.327   1.302   2.869 -0.5466 -0.5355 -0.3233
 9590TIP3    H150185   6.241   1.278   2.834 -0.6827  0.2069 -0.5121
 9590TIP3    H250186   6.308   1.350   2.950 -0.5439  2.9297 -2.1962
 9591TIP3   OH250187   6.597   2.559   3.376  0.1745 -0.3679 -0.2037
 9591TIP3    H150188   6.645   2.634   3.413 -0.8008  0.4103 -0.4812
 9591TIP3    H250189   6.633   2.483   3.421  0.1718  0.4084  1.1514
 9592TIP3   OH250190   2.278   1.669   1.157  0.6410  0.1354 -0.1356
 9592TIP3    H150191   2.187   1.693   1.172  0.9464  0.9865  0.4772
 9592TIP3    H250192   2.297   1.701   1.069  0.1892 -0.5738 -0.4984
 9593TIP3   OH250193   3.202   1.280   5.495 -0.3064  0.3654 -0.6747
 9593TIP3    H150194   3.201   1.230   5.577  1.2091  0.4382 -0.5957
 9593TIP3    H250195   3.113   1.317   5.489 -0.8800 -0.7999  0.2011
 9594TIP3   OH250196   2.137   1.732  12.271 -0.3293  0.7451 -0.4900
 9594TIP3    H150197   2.188   1.813  12.282 -0.8863  1.4949 -2.8590
 9594TIP3    H250198   2.057   1.760  12.228 -2.1598 -0.6480  1.7596
 9595TIP3   OH250199   1.634   0.315   2.400  0.5326  0.4197  0.0826
 9595TIP3    H150200   1.588   0.334   2.482  0.6509 -2.4379  0.8918
 9595TIP3    H250201   1.612   0.224   2.380  0.6897  0.9318 -2.9817
 9596TIP3   OH250202   4.838   3.098   4.447  0.3592  0.0036  0.2841
 9596TIP3    H150203   4.926   3.136   4.449  0.3846 -0.0615  2.3004
 9596TIP3    H250204   4.844   3.022   4.504 -0.6095 -1.0102 -0.9071
 9597TIP3   OH250205   1.133   3.124  16.265 -0.3247  0.0132 -0.0821
 9597TIP3    H150206   1.133   3.214  16.297 -0.7544 -0.9521  2.9824
 9597TIP3    H250207   1.220   3.111  16.228 -0.0665  1.4998 -0.0493
 9598TIP3   OH250208   4.482   0.992  14.102 -0.2276  0.3182 -0.0905
 9598TIP3    H150209   4.563   0.971  14.054  0.0098  0.1096  0.3957
 9598TIP3    H250210   4.510   1.002  14.193 -0.8317 -0.2461  0.1595
 9599TIP3   OH250211   4.901   5.390  14.175  0.5815 -0.0833 -0.3815
 9599TIP3    H150212   4.905   5.313  14.118 -0.4903 -1.2761  1.0795
 9599TIP3    H250213   4.990   5.397  14.211  0.5531 -1.0134 -0.0879
 9600TIP3   OH250214   3.718   6.430   0.254 -0.0345  0.3406 -0.6357
 9600TIP3    H150215   3.760   6.463   0.174  0.8328  0.9975  0.0739
 9600TIP3    H250216   3.791   6.409   0.312 -0.4555 -3.4285 -1.2048
 9601TIP3   OH250217   3.819   0.566   4.971 -0.0559 -0.1815  0.3590
 9601TIP3    H150218   3.772   0.485   4.951  1.8717 -1.1235 -0.5688
 9601TIP3    H250219   3.902   0.558   4.924 -0.0397  2.6121 -0.2509
 9602TIP3   OH250220   1.740   1.630  15.320  0.3113  0.0321 -0.3478
 9602TIP3    H150221   1.774   1.559  15.266  0.9074 -0.4210  0.5955
 9602TIP3    H250222   1.702   1.692  15.258  0.7777 -0.5798 -1.2561
 9603TIP3   OH250223   0.486   6.573   6.667  0.1829 -0.2223 -0.4659
 9603TIP3    H150224   0.580   6.563   6.683  0.1336 -0.4958 -0.3443
 9603TIP3    H250225   0.480   6.647   6.606  0.6827 -1.9784 -2.7858
 9604TIP3   OH250226   1.843   4.249   4.279  0.3408 -0.2384 -0.2225
 9604TIP3    H150227   1.833   4.154   4.289 -1.5216 -0.2048 -1.2595
 9604TIP3    H250228   1.856   4.282   4.368 -1.4686 -1.2419  0.4645
 9605TIP3   OH250229   4.902   1.425  13.744 -0.4098 -0.0490 -0.2488
 9605TIP3    H150230   4.881   1.474  13.823 -2.3649  0.3733 -0.9803
 9605TIP3    H250231   4.945   1.346  13.776 -0.6894  0.3517  1.1948
 9606TIP3   OH250232   0.088   5.556  15.150  0.3486 -0.1980 -0.1909
 9606TIP3    H150233   0.175   5.517  15.140  0.7197  0.8943 -1.5337
 9606TIP3    H250234   0.068   5.593  15.064 -2.4133 -2.3298 -0.6444
 9607TIP3   OH250235   6.179   5.990  15.999  0.3701 -0.3067  0.2825
 9607TIP3    H150236   6.154   5.897  15.993 -0.8444 -0.0683  1.3201
 9607TIP3    H250237   6.122   6.034  15.936  0.0533 -0.1074  0.7039
 9608TIP3   OH250238   3.418   3.773  12.539  0.2110 -0.1398 -0.2135
 9608TIP3    H150239   3.347   3.807  12.484  0.4526 -0.8632 -0.9818
 9608TIP3    H250240   3.418   3.679  12.524  1.2253 -0.1700 -0.0807
 9609TIP3   OH250241   5.725   4.873   4.253 -0.2911  0.0367  0.0259
 9609TIP3    H150242   5.688   4.955   4.220 -0.9850 -0.0532  0.5496
 9609TIP3    H250243   5.809   4.897   4.291  0.0493  0.3084 -0.8811
 9610TIP3   OH250244   0.871   4.939  13.327 -1.0139 -0.2018  0.4344
 9610TIP3    H150245   0.784   4.979  13.324 -1.4604 -1.1396  0.5429
 9610TIP3    H250246   0.892   4.920  13.236 -1.4552 -1.0794  0.5087
 9611TIP3   OH250247   5.735   4.085   3.293 -0.4117 -0.2819  0.3469
 9611TIP3    H150248   5.694   4.119   3.213  0.4391 -1.2224 -0.5220
 9611TIP3    H250249   5.705   4.144   3.362 -1.5306  0.2914 -0.5865
 9612TIP3   OH250250   3.736   4.154  14.510  0.0233 -0.4693 -0.0481
 9612TIP3    H150251   3.690   4.077  14.544  0.7213  0.2275  2.7240
 9612TIP3    H250252   3.670   4.198  14.456 -1.3268 -1.5003  0.6767
 9613TIP3   OH250253   2.804   1.363   4.050  0.1071  0.2338  0.0770
 9613TIP3    H150254   2.739   1.300   4.018 -0.1846  0.6296 -0.1209
 9613TIP3    H250255   2.865   1.311   4.102  0.1654 -0.3003 -0.5209
 9614TIP3   OH250256   1.871   2.764   5.615 -0.2028  0.2575 -0.5610
 9614TIP3    H150257   1.944   2.704   5.633  1.2755  2.1596  0.1547
 9614TIP3    H250258   1.847   2.799   5.701 -1.1828  0.5202 -0.9322
 9615TIP3   OH250259   1.262   6.240  12.703  0.2838  0.5871  0.1946
 9615TIP3    H150260   1.337   6.199  12.660 -0.1853  0.8609 -0.9193
 9615TIP3    H250261   1.186   6.200  12.662 -0.1872  0.4153  1.2192
 9616TIP3   OH250262   1.322   5.230  14.173 -0.1826  0.8866 -0.1131
 9616TIP3    H150263   1.231   5.224  14.144 -0.6324  1.6638  1.0563
 9616TIP3    H250264   1.362   5.147  14.147 -1.2585  0.4907 -0.5302
 9617TIP3   OH250265   2.160   1.901   0.663  0.1347  0.1654  0.1913
 9617TIP3    H150266   2.142   1.855   0.745 -1.0663  1.4004  0.6629
 9617TIP3    H250267   2.242   1.948   0.680  0.5908 -0.6120  0.2037
 9618TIP3   OH250268   1.956   4.984  16.254 -0.0578 -0.5179 -0.3413
 9618TIP3    H150269   1.956   5.022  16.166  2.1374 -0.0743 -0.2070
 9618TIP3    H250270   1.866   4.957  16.269 -1.0447  1.8014 -1.6827
 9619TIP3   OH250271   5.566   6.307  11.142 -0.2736 -0.5391  0.5594
 9619TIP3    H150272   5.599   6.271  11.224 -1.5001  0.2138  1.4061
 9619TIP3    H250273   5.636   6.289  11.079  1.2800  0.0291  2.0271
 9620TIP3   OH250274   4.362   0.018  12.831  0.3125  0.0122 -0.1620
 9620TIP3    H150275   4.298   0.016  12.902 -0.0530 -0.5935 -0.5046
 9620TIP3    H250276   4.397   0.107  12.833 -0.4867  0.3281  0.0696
 9621TIP3   OH250277   5.963   6.461  13.812 -0.5085  0.5413  0.7389
 9621TIP3    H150278   6.013   6.453  13.731  0.2238  0.8382  1.1514
 9621TIP3    H250279   5.899   6.529  13.795 -0.1721  0.7995  0.5016
 9622TIP3   OH250280   6.476   6.572  12.355  0.1812 -0.1965  0.1158
 9622TIP3    H150281   6.547   6.630  12.326 -2.0897  2.7250 -0.0040
 9622TIP3    H250282   6.505   6.539  12.440  1.7763  0.7381 -0.0262
 9623TIP3   OH250283   6.272   5.133  15.738 -0.1621  0.0081 -0.4272
 9623TIP3    H150284   6.345   5.191  15.716 -0.1168 -0.0136 -0.3349
 9623TIP3    H250285   6.312   5.062  15.788 -0.3858  0.4784  0.4250
 9624TIP3   OH250286   3.257   1.892  13.257 -0.2402  0.6033  0.1871
 9624TIP3    H150287   3.348   1.913  13.278 -0.0874 -0.1883  0.3378
 9624TIP3    H250288   3.220   1.858  13.338  0.1913 -1.9184 -0.5794
 9625TIP3   OH250289   4.000   6.740  12.678  0.0177  0.0455  0.2003
 9625TIP3    H150290   3.937   6.680  12.638 -0.4186  0.2466  0.5768
 9625TIP3    H250291   4.081   6.724  12.630 -0.4222  0.0899 -0.5884
 9626TIP3   OH250292   4.608   5.119  12.673 -0.2594 -0.8117 -0.0014
 9626TIP3    H150293   4.679   5.077  12.625  0.6201 -0.6555  1.1213
 9626TIP3    H250294   4.564   5.174  12.607  1.5721  0.2329 -0.4163
 9627TIP3   OH250295   0.891   5.364  16.634 -0.1426  0.1002  0.6669
 9627TIP3    H150296   0.940   5.376  16.716  2.6806  1.1756 -1.0181
 9627TIP3    H250297   0.905   5.273  16.612 -0.2246  0.0113  0.9681
 9628TIP3   OH250298   5.593   3.389   0.317 -0.5687 -0.7092  0.4150
 9628TIP3    H150299   5.564   3.423   0.402  1.4803 -2.2517  1.8377
 9628TIP3    H250300   5.512   3.372   0.269 -1.8212 -0.2726  2.2674
 9629TIP3   OH250301   2.587   6.310  16.226  0.0845  0.0875  0.3466
 9629TIP3    H150302   2.520   6.327  16.292  1.1511  2.0771  1.0167
 9629TIP3    H250303   2.660   6.271  16.275 -0.2689 -1.3250 -0.2311
 9630TIP3   OH250304   3.221   1.840   4.144 -0.3477  0.8418 -0.2588
 9630TIP3    H150305   3.131   1.817   4.119 -0.6475  2.7093 -1.0983
 9630TIP3    H250306   3.234   1.927   4.106  1.9894  0.4123 -0.5587
 9631TIP3   OH250307   3.174   3.389   1.390 -0.0333 -0.3542  0.6945
 9631TIP3    H150308   3.142   3.408   1.479  0.9975  2.5342  0.5487
 9631TIP3    H250309   3.097   3.399   1.334  0.1796  2.8815  0.7729
 9632TIP3   OH250310   5.281   6.420   1.219  0.0093 -0.3122  0.2959
 9632TIP3    H150311   5.225   6.381   1.287  1.5465 -0.1342  1.7415
 9632TIP3    H250312   5.233   6.407   1.138 -1.4321 -1.4977  1.2792
 9633TIP3   OH250313   6.391   5.979  12.109  0.6884 -0.0807 -0.3813
 9633TIP3    H150314   6.310   5.978  12.159  0.1508 -0.2119 -1.2302
 9633TIP3    H250315   6.429   6.066  12.126 -0.5633  0.7066 -1.3923
 9634TIP3   OH250316   4.671   1.276   1.222 -0.7503  0.0662 -0.1131
 9634TIP3    H150317   4.658   1.262   1.316  1.1102 -2.3535 -0.1249
 9634TIP3    H250318   4.718   1.198   1.192 -0.5957  1.1198 -2.9276
 9635TIP3   OH250319   0.299   3.447   3.868 -0.4216  0.1375  0.2715
 9635TIP3    H150320   0.230   3.381   3.872  0.8055 -1.2290 -0.0623
 9635TIP3    H250321   0.378   3.397   3.847  0.6880  1.6306  0.7349
 9636TIP3   OH250322   5.068   1.442  11.304  0.4052  0.2903  0.3124
 9636TIP3    H150323   5.097   1.404  11.387  0.2078 -0.0127  0.2415
 9636TIP3    H250324   5.063   1.536  11.321  0.5036  0.2432  0.6013
 9637TIP3   OH250325   6.186   5.013  16.764 -0.0721 -0.1037 -0.1037
 9637TIP3    H150326   6.262   5.025  16.707  0.6761 -0.8335  0.7123
 9637TIP3    H250327   6.160   5.102  16.788  0.9787  0.1316  0.1850
 9638TIP3   OH250328   3.088   1.481  11.730 -0.0365 -0.1203  0.1622
 9638TIP3    H150329   3.162   1.491  11.669 -0.8962 -0.6597 -0.9945
 9638TIP3    H250330   3.042   1.565  11.724 -1.4972 -1.0010 -1.8278
 9639TIP3   OH250331   4.170   3.359   4.556 -0.2208 -0.6223  0.1367
 9639TIP3    H150332   4.257   3.322   4.540  0.0055  0.4337 -1.2511
 9639TIP3    H250333   4.187   3.442   4.601 -0.2588  0.9192 -2.4761
 9640TIP3   OH250334   5.070   0.942   3.540 -0.1516  0.2545  0.0697
 9640TIP3    H150335   5.036   0.869   3.488  0.3738  0.7062 -0.9211
 9640TIP3    H250336   4.992   0.980   3.581 -0.3744 -1.2508  1.1538
 9641TIP3   OH250337   5.120   0.470   1.804  0.3802  0.0583  0.4771
 9641TIP3    H150338   5.103   0.559   1.775  2.2119  0.0191 -0.8596
 9641TIP3    H250339   5.212   0.455   1.786 -0.4617 -3.1262 -2.2771
 9642TIP3   OH250340   0.672   3.763   4.278 -0.1452 -0.0456  0.3149
 9642TIP3    H150341   0.745   3.703   4.269 -0.3233 -0.1506 -0.5052
 9642TIP3    H250342   0.598   3.718   4.235 -1.1065 -0.6235  2.4357
 9643TIP3   OH250343   3.424   4.392  13.748  0.4966 -0.3855 -0.7197
 9643TIP3    H150344   3.332   4.398  13.721 -0.8336 -2.5149  2.6954
 9643TIP3    H250345   3.452   4.483  13.758 -2.3214  0.4117  1.1873
 9644TIP3   OH250346   5.842   3.008   0.228 -0.0573  0.5735 -0.0327
 9644TIP3    H150347   5.933   3.035   0.220 -0.0210  1.1876  1.9348
 9644TIP3    H250348   5.792   3.086   0.205 -0.0641  0.5024 -0.2558
 9645TIP3   OH250349   2.565   2.877  11.995  0.2823 -0.1120 -0.1477
 9645TIP3    H150350   2.476   2.887  11.962  0.3784  1.7010  0.0512
 9645TIP3    H250351   2.554   2.845  12.084 -0.2418  1.2283  0.2881
 9646TIP3   OH250352   6.312   5.374  10.789  0.2161 -0.0358  0.1239
 9646TIP3    H150353   6.254   5.450  10.795 -0.5046 -0.4397 -1.3092
 9646TIP3    H250354   6.367   5.392  10.712  1.3264 -0.1348  0.8635
 9647TIP3   OH250355   4.924   2.419  16.433  0.5781 -0.1226  0.3798
 9647TIP3    H150356   4.990   2.427  16.365 -0.8830  2.4008 -0.8828
 9647TIP3    H250357   4.972   2.436  16.515  1.5411  1.7560 -0.5023
 9648TIP3   OH250358   5.466   0.162   2.419 -0.0988 -0.1345 -0.3462
 9648TIP3    H150359   5.387   0.174   2.366  0.3691  0.8176 -0.8559
 9648TIP3    H250360   5.444   0.200   2.504 -0.7865 -1.4903  0.1017
 9649TIP3   OH250361   2.504   1.187  12.307  0.1940 -0.1433 -0.4813
 9649TIP3    H150362   2.586   1.155  12.343  0.2292 -0.4679 -0.8435
 9649TIP3    H250363   2.440   1.174  12.378  0.2956 -0.6131 -0.4700
 9650TIP3   OH250364   0.422   4.742   4.287  0.3269 -0.5242  0.1053
 9650TIP3    H150365   0.410   4.791   4.206  0.6031 -0.8665 -0.1459
 9650TIP3    H250366   0.481   4.795   4.340  0.5636 -0.5538 -0.1324
 9651TIP3   OH250367   6.154   5.088   6.376 -0.1808  0.2737 -0.0128
 9651TIP3    H150368   6.200   5.162   6.337  0.1190 -0.0138 -0.2085
 9651TIP3    H250369   6.123   5.120   6.461  0.6899  0.3621  0.2828
 9652TIP3   OH250370   0.288   2.402   1.269 -0.1308  0.1404  0.1808
 9652TIP3    H150371   0.323   2.401   1.359  0.3824 -0.7344 -0.0175
 9652TIP3    H250372   0.300   2.492   1.240 -2.3270  1.0396  1.7476
 9653TIP3   OH250373   1.554   0.943   1.488 -0.9012 -0.3000  0.3111
 9653TIP3    H150374   1.611   0.992   1.429  0.5973 -0.0638  1.8688
 9653TIP3    H250375   1.502   1.010   1.533  0.6403 -0.1200  1.9229
 9654TIP3   OH250376   5.458   4.776   4.279 -0.3460 -0.1896  0.4202
 9654TIP3    H150377   5.418   4.853   4.238  0.5517 -0.8957 -1.9395
 9654TIP3    H250378   5.550   4.799   4.287 -0.2339 -0.6906  0.5657
 9655TIP3   OH250379   1.376   6.812  11.430 -0.2439 -0.2134 -0.3263
 9655TIP3    H150380   1.442   6.878  11.408 -0.7544  0.4534  0.0812
 9655TIP3    H250381   1.371   6.755  11.353  1.1801 -0.5941 -0.1556
 9656TIP3   OH250382   5.784   1.625   1.794 -0.4118 -0.6100  0.8490
 9656TIP3    H150383   5.695   1.605   1.763 -0.0379 -0.1473 -0.6046
 9656TIP3    H250384   5.776   1.629   1.889 -2.0630 -0.1028  0.7217
 9657TIP3   OH250385   4.254   3.512   1.882 -0.0570 -0.5330 -0.2681
 9657TIP3    H150386   4.232   3.510   1.789 -0.6814  3.0229 -0.3083
 9657TIP3    H250387   4.179   3.555   1.924  0.3276 -1.8160  1.8981
 9658TIP3   OH250388   5.055   0.174   6.207  0.3920 -0.0269  0.4285
 9658TIP3    H150389   5.109   0.201   6.132 -2.7177 -0.0288 -2.0133
 9658TIP3    H250390   5.027   0.085   6.186  0.5054 -0.5618  2.3210
 9659TIP3   OH250391   5.475   1.443   5.381 -0.0358 -0.4688  0.1031
 9659TIP3    H150392   5.415   1.514   5.358 -1.4432 -1.1354  1.4984
 9659TIP3    H250393   5.426   1.363   5.361  1.5362 -1.0946 -1.4925
 9660TIP3   OH250394   3.631   5.902  11.584  0.2381  0.0565 -0.2582
 9660TIP3    H150395   3.581   5.821  11.597 -0.1062  0.1699 -0.8210
 9660TIP3    H250396   3.574   5.971  11.619 -0.2050  0.2368 -1.3059
 9661TIP3   OH250397   4.598   0.726  15.977  0.1741 -0.6874  0.0499
 9661TIP3    H150398   4.529   0.663  15.953  1.2094 -1.9198  0.2194
 9661TIP3    H250399   4.573   0.755  16.065 -1.9588  1.5135 -1.1801
 9662TIP3   OH250400   4.192   0.087  11.812  0.8945  0.1503  0.4738
 9662TIP3    H150401   4.206   0.181  11.827 -1.3115  0.6554 -0.2528
 9662TIP3    H250402   4.134   0.083  11.736 -0.4367 -1.7144  1.5138
 9663TIP3   OH250403   2.945   6.141  16.218 -0.0521  0.7006 -0.5351
 9663TIP3    H150404   3.019   6.144  16.158  0.9046  0.2491  0.5943
 9663TIP3    H250405   2.984   6.129  16.305 -1.3897  1.3493  0.2012
 9664TIP3   OH250406   1.018   1.509  14.120 -0.1014 -0.3878 -0.1802
 9664TIP3    H150407   1.010   1.422  14.081  1.8484 -0.2220 -1.0980
 9664TIP3    H250408   0.944   1.559  14.085 -0.3580 -1.2447 -0.8840
 9665TIP3   OH250409   2.701   6.289   3.526 -0.1915 -0.1312 -0.7480
 9665TIP3    H150410   2.616   6.269   3.488 -0.7399  0.6220  0.0636
 9665TIP3    H250411   2.719   6.379   3.501  0.3614 -0.2830 -0.9080
 9666TIP3   OH250412   4.360   6.155  16.349 -0.2711  0.4645  0.0947
 9666TIP3    H150413   4.362   6.060  16.349  0.4922  0.4692 -0.0346
 9666TIP3    H250414   4.422   6.180  16.280  0.5712  1.0471  1.0278
 9667TIP3   OH250415   4.494   4.140   1.990 -0.1136 -0.2190 -0.1983
 9667TIP3    H150416   4.428   4.196   2.030  1.1206  1.0425  0.1831
 9667TIP3    H250417   4.497   4.168   1.899  0.0950 -0.0531 -0.1427
 9668TIP3   OH250418   4.541   3.504   1.961  0.2933 -0.1837 -0.7108
 9668TIP3    H150419   4.615   3.463   1.916 -1.1976 -2.6792 -1.0728
 9668TIP3    H250420   4.466   3.491   1.902 -1.0063 -0.3178  0.8977
 9669TIP3   OH250421   1.187   3.297  15.193 -0.3724  0.1152  0.1517
 9669TIP3    H150422   1.121   3.335  15.251 -0.4652 -1.1769  0.9439
 9669TIP3    H250423   1.269   3.309  15.241 -0.1174  1.0804 -0.5063
 9670TIP3   OH250424   4.616   3.433  12.349  0.1196 -0.1172  0.0298
 9670TIP3    H150425   4.541   3.379  12.326 -0.2667  1.0186 -1.5484
 9670TIP3    H250426   4.639   3.478  12.268  0.9750  1.3981  1.0559
 9671TIP3   OH250427   6.271   1.515   5.495  0.0615  0.8528 -0.0838
 9671TIP3    H150428   6.235   1.436   5.454  1.9639 -0.1861  0.1615
 9671TIP3    H250429   6.203   1.582   5.481 -0.5870 -0.1919 -2.3548
 9672TIP3   OH250430   0.682   5.373  12.703  0.2540 -0.4691 -0.2917
 9672TIP3    H150431   0.642   5.459  12.696  0.8370 -0.1672  0.0161
 9672TIP3    H250432   0.609   5.314  12.722 -0.0482  0.0735  0.2589
 9673TIP3   OH250433   5.172   0.164   5.162  0.0457 -0.3290  0.6121
 9673TIP3    H150434   5.087   0.121   5.172 -0.0121 -0.3778 -0.0350
 9673TIP3    H250435   5.153   0.257   5.175 -0.4592 -0.1236 -1.3462
 9674TIP3   OH250436   2.219   1.228  12.996  0.0201 -0.4046 -0.0864
 9674TIP3    H150437   2.134   1.271  12.987 -0.8224 -2.1964 -1.5101
 9674TIP3    H250438   2.227   1.209  13.089 -1.2597 -0.4005  0.0462
 9675TIP3   OH250439   2.259   0.594  13.167  0.0059 -0.6430 -0.0873
 9675TIP3    H150440   2.324   0.537  13.127  2.4998  0.7036  1.8020
 9675TIP3    H250441   2.185   0.536  13.186  0.5801 -2.2319 -2.2697
 9676TIP3   OH250442   3.772   4.245   5.698 -0.4507 -0.0571  0.0734
 9676TIP3    H150443   3.688   4.249   5.745 -0.9652  2.3680 -0.8912
 9676TIP3    H250444   3.752   4.280   5.612  1.3688 -0.4396 -0.5291
 9677TIP3   OH250445   5.117   2.585  12.143 -0.3986  0.5500  0.6762
 9677TIP3    H150446   5.089   2.659  12.197  0.9718  1.2525  0.4730
 9677TIP3    H250447   5.212   2.594  12.137 -0.4540  0.2950 -1.5331
 9678TIP3   OH250448   0.016   2.309   4.006 -0.0734 -0.2131  0.3953
 9678TIP3    H150449  -0.039   2.258   3.947  0.9540  0.7855 -1.5046
 9678TIP3    H250450   0.043   2.247   4.074 -3.0632 -0.8713  1.1577
 9679TIP3   OH250451   4.364   4.161  15.591 -0.2010  0.0909  0.4022
 9679TIP3    H150452   4.402   4.211  15.519  0.0685  2.0074  1.7902
 9679TIP3    H250453   4.439   4.138  15.646 -0.6504  0.8174  1.3393
 9680TIP3   OH250454   1.791   1.529   1.576  0.2122 -0.2256  0.0034
 9680TIP3    H150455   1.786   1.478   1.495 -0.8398  0.9344 -0.6992
 9680TIP3    H250456   1.709   1.577   1.579  0.8218  0.7995  1.0704
 9681TIP3   OH250457   1.779   3.961  11.477  0.4985 -0.0595 -0.2167
 9681TIP3    H150458   1.691   3.935  11.448  0.5037 -1.4497  0.8678
 9681TIP3    H250459   1.830   3.880  11.472  2.1777  1.0285 -2.2958
 9682TIP3   OH250460   5.526   5.447   6.184 -0.2108  0.3122 -0.4242
 9682TIP3    H150461   5.478   5.438   6.266 -0.0326  0.1779 -0.3348
 9682TIP3    H250462   5.514   5.539   6.160 -0.9346  0.1615 -0.6671
 9683TIP3   OH250463   0.127   4.415   1.688 -0.0647  0.5291  0.1889
 9683TIP3    H150464   0.106   4.493   1.739 -0.3852  0.8191 -0.3702
 9683TIP3    H250465   0.200   4.442   1.632 -0.2309  0.4549 -0.0642
 9684TIP3   OH250466   4.261   1.569  13.658 -0.0023  0.2186  0.1910
 9684TIP3    H150467   4.349   1.601  13.675  1.4185 -2.8929 -0.5600
 9684TIP3    H250468   4.239   1.516  13.735 -0.5539 -0.2948 -0.3082
 9685TIP3   OH250469   3.592   1.121   6.031 -0.2795 -0.0133 -0.2418
 9685TIP3    H150470   3.599   1.045   6.089 -1.3968  0.8545  1.1169
 9685TIP3    H250471   3.645   1.189   6.073 -0.1177  0.2680 -0.8856
 9686TIP3   OH250472   4.510   5.938  16.911  0.2871  0.6934  0.3122
 9686TIP3    H150473   4.492   5.958  16.820  1.4954  0.2930 -0.0260
 9686TIP3    H250474   4.580   5.998  16.936  1.6967 -0.8478  0.2214
 9687TIP3   OH250475   3.359   2.157  15.215 -0.3023  0.1308 -0.1948
 9687TIP3    H150476   3.380   2.247  15.189 -0.7278  0.1903 -0.3407
 9687TIP3    H250477   3.368   2.106  15.135 -0.1496  0.0575 -0.1314
 9688TIP3   OH250478   4.373   6.758   0.101  0.0545  0.4249 -0.2906
 9688TIP3    H150479   4.395   6.665   0.094  0.5914  0.3589  1.6702
 9688TIP3    H250480   4.440   6.794   0.160 -0.0488  2.1032 -1.1390
 9689TIP3   OH250481   2.155   3.854  15.336 -0.4059 -0.1411 -0.2702
 9689TIP3    H150482   2.233   3.888  15.294 -0.2334  2.3390  1.7916
 9689TIP3    H250483   2.186   3.783  15.392  0.3337  0.5870  0.2535
 9690TIP3   OH250484   4.289   5.562  11.738  0.5130  0.1997  0.3571
 9690TIP3    H150485   4.372   5.602  11.766  0.5123  0.3080  0.2096
 9690TIP3    H250486   4.262   5.509  11.812 -0.8619  2.5804  1.7004
 9691TIP3   OH250487   5.921   5.103   3.802  0.6473  0.1003 -0.8201
 9691TIP3    H150488   5.968   5.073   3.725  2.1953 -1.0399  0.5077
 9691TIP3    H250489   5.844   5.045   3.807 -0.1595  1.0075 -2.1660
 9692TIP3   OH250490   0.835   6.643   2.107  0.2831 -0.0306  0.3546
 9692TIP3    H150491   0.904   6.590   2.148  0.1538  0.5018  1.2884
 9692TIP3    H250492   0.882   6.713   2.062  0.4747 -1.0679 -1.1499
 9693TIP3   OH250493   0.771   1.004  13.239 -0.2057  0.0130 -0.7364
 9693TIP3    H150494   0.818   1.088  13.242 -0.2230  0.0678 -1.7323
 9693TIP3    H250495   0.795   0.961  13.321  0.0215  0.8727 -0.3335
 9694TIP3   OH250496   5.222   1.706  14.501 -0.3628 -0.0159  0.1715
 9694TIP3    H150497   5.173   1.742  14.427 -1.1369 -0.1234  0.6208
 9694TIP3    H250498   5.246   1.618  14.474 -0.8896 -0.1566  0.1537
 9695TIP3   OH250499   3.928   5.119  13.255  0.6447 -0.0889  0.5945
 9695TIP3    H150500   3.920   5.144  13.163 -0.6275 -2.6653 -0.0694
 9695TIP3    H250501   4.020   5.092  13.264  1.5019  2.5720  0.8360
 9696TIP3   OH250502   5.543   4.771   3.064 -0.4077 -0.0586 -0.3651
 9696TIP3    H150503   5.462   4.721   3.058  0.2684 -1.0316 -2.4286
 9696TIP3    H250504   5.517   4.862   3.050 -1.3384 -0.1312  0.8167
 9697TIP3   OH250505   3.414   3.634   6.810 -0.4779  0.5361  0.1880
 9697TIP3    H150506   3.415   3.687   6.731  0.0159 -0.1862 -0.3063
 9697TIP3    H250507   3.395   3.545   6.779  0.1604  0.1670  0.8267
 9698TIP3   OH250508   4.356   2.660   2.613 -0.1658 -0.5006 -0.0304
 9698TIP3    H150509   4.447   2.661   2.644 -0.5720 -1.5698  1.3049
 9698TIP3    H250510   4.305   2.632   2.690 -1.7417  1.0204 -0.4731
 9699TIP3   OH250511   4.018   1.163   3.498  0.2271  0.3203 -0.4935
 9699TIP3    H150512   4.086   1.181   3.433 -0.7377 -0.3844 -1.7556
 9699TIP3    H250513   4.052   1.090   3.549  0.9488  0.7985 -0.2844
 9700TIP3   OH250514   5.368   0.945  14.580  0.6379  0.3059 -0.6044
 9700TIP3    H150515   5.445   0.997  14.604  0.4256 -0.5624  2.3832
 9700TIP3    H250516   5.323   0.929  14.663 -1.1949 -1.7048 -1.8725
 9701TIP3   OH250517   3.875   6.373  11.487 -0.1393  0.2985 -0.0219
 9701TIP3    H150518   3.837   6.301  11.436 -0.4590  1.3413 -1.3165
 9701TIP3    H250519   3.964   6.382  11.452  0.8340 -1.0640  1.8766
 9702TIP3   OH250520   5.277   4.986  15.809 -0.1204  0.2018 -0.6768
 9702TIP3    H150521   5.188   4.966  15.778  0.5967 -1.8816 -1.5247
 9702TIP3    H250522   5.265   5.009  15.901 -1.6593  1.1462 -1.0726
 9703TIP3   OH250523   4.078   1.000   2.996 -0.3629  0.4783  0.2331
 9703TIP3    H150524   4.007   1.028   3.055  1.0063  0.4710  1.9558
 9703TIP3    H250525   4.120   0.927   3.042  1.1860  0.9202 -0.4249
 9704TIP3   OH250526   1.610   2.514  13.169 -0.2355 -0.2228 -0.2314
 9704TIP3    H150527   1.681   2.454  13.144  0.8288  0.9996 -0.2475
 9704TIP3    H250528   1.655   2.595  13.192 -1.6073  0.3907  0.3565
 9705TIP3   OH250529   6.802   0.916   1.634  0.2479 -0.7284 -0.5931
 9705TIP3    H150530   6.879   0.911   1.577 -0.0184 -0.9921 -0.9379
 9705TIP3    H250531   6.785   1.009   1.643 -0.0795 -0.6865 -1.4745
 9706TIP3   OH250532   4.996   4.948   4.574  0.1757  0.3523  0.2207
 9706TIP3    H150533   5.029   4.987   4.655 -0.1760  0.3396  0.3724
 9706TIP3    H250534   4.914   4.907   4.599  0.9308 -1.2123  0.2333
 9707TIP3   OH250535   6.421   0.606   4.815 -0.1225  0.5151 -0.4044
 9707TIP3    H150536   6.369   0.580   4.890  0.9468  1.1914  0.6001
 9707TIP3    H250537   6.478   0.531   4.797  0.5594  0.8467  0.3252
 9708TIP3   OH250538   6.555   2.915  15.374 -0.2443  0.0234 -0.2355
 9708TIP3    H150539   6.464   2.908  15.403 -0.1819  0.7149  0.1394
 9708TIP3    H250540   6.558   2.865  15.293 -0.6211 -1.2469  0.5049
 9709TIP3   OH250541   5.080   5.142   2.575  0.0886  0.3913  0.5676
 9709TIP3    H150542   5.171   5.120   2.595  0.4698 -0.0369 -1.3896
 9709TIP3    H250543   5.077   5.237   2.575  0.5218  0.4065  0.7175
 9710TIP3   OH250544   5.271   0.596   0.135  0.3342 -0.1103 -0.2885
 9710TIP3    H150545   5.205   0.645   0.185  0.3795 -1.4775  1.2026
 9710TIP3    H250546   5.352   0.607   0.185  0.5502 -0.8999 -0.4494
 9711TIP3   OH250547   6.579   4.312  16.099  0.0879 -0.5436 -0.2890
 9711TIP3    H150548   6.630   4.269  16.167 -0.5339  0.8072  1.1017
 9711TIP3    H250549   6.630   4.390  16.075 -0.4672 -0.1315 -0.1664
 9712TIP3   OH250550   5.034   6.406   2.304 -0.2141 -0.3122 -0.1937
 9712TIP3    H150551   4.996   6.351   2.236 -2.0266 -0.4371  0.8531
 9712TIP3    H250552   5.111   6.358   2.334 -0.3259 -1.0346 -1.0383
 9713TIP3   OH250553   0.962   0.402  15.319 -0.2406  0.2280 -0.0356
 9713TIP3    H150554   0.910   0.362  15.389 -1.1956 -1.6258 -1.6976
 9713TIP3    H250555   0.920   0.372  15.238  2.5992 -0.1725 -1.4600
 9714TIP3   OH250556   2.506   4.095   3.238 -0.4396  0.0298 -0.1070
 9714TIP3    H150557   2.501   4.001   3.220 -1.7069  0.2854 -1.2981
 9714TIP3    H250558   2.549   4.131   3.161 -0.0504  0.4340  0.3006
 9715TIP3   OH250559   1.488   5.361  16.481 -0.3883  0.0917 -0.0323
 9715TIP3    H150560   1.545   5.290  16.510 -1.1119 -0.3824  0.2624
 9715TIP3    H250561   1.517   5.437  16.531  0.8558  0.1866 -0.8608
 9716TIP3   OH250562   1.121   1.181  12.888  0.0459 -0.7398 -1.1069
 9716TIP3    H150563   1.206   1.204  12.853 -0.1031  0.7773 -0.5645
 9716TIP3    H250564   1.140   1.136  12.970  0.3353 -1.1368 -1.3921
 9717TIP3   OH250565   4.621   1.273  11.092  0.5017  0.2124  0.2537
 9717TIP3    H150566   4.649   1.332  11.163  0.3871 -1.1106  1.4354
 9717TIP3    H250567   4.670   1.193  11.107  3.1287  0.9353 -3.2097
 9718TIP3   OH250568   3.514   4.973   3.594 -0.2292  0.2104  0.5481
 9718TIP3    H150569   3.476   4.934   3.673 -1.5973 -1.3241 -0.7863
 9718TIP3    H250570   3.479   5.062   3.592 -2.4706 -0.5996  0.2921
 9719TIP3   OH250571   5.913   4.382   4.445  0.0733  0.4127 -0.2360
 9719TIP3    H150572   5.825   4.365   4.479  0.8076  0.6977  1.9124
 9719TIP3    H250573   5.965   4.307   4.474  0.0521 -1.2243 -3.8660
 9720TIP3   OH250574   1.293   1.745   6.306 -0.4456  0.0726 -0.6407
 9720TIP3    H150575   1.326   1.716   6.391 -1.5700 -1.0667 -0.5593
 9720TIP3    H250576   1.297   1.840   6.310  1.1564  0.0089 -0.0050
 9721TIP3   OH250577   3.990   3.169   3.528 -0.0585 -0.5207  0.0345
 9721TIP3    H150578   3.915   3.118   3.559  0.7727 -1.7745  0.0395
 9721TIP3    H250579   4.030   3.204   3.608  0.5641 -1.5922  0.2108
 9722TIP3   OH250580   3.930   2.466   4.195 -0.1269 -0.0020  0.4639
 9722TIP3    H150581   3.884   2.491   4.275 -2.1500 -0.4166 -0.5067
 9722TIP3    H250582   3.994   2.400   4.223  0.6399  1.3599  2.0167
 9723TIP3   OH250583   3.057   3.856  16.725  0.2166  0.0295 -0.1120
 9723TIP3    H150584   3.020   3.867  16.638 -3.0667 -1.2087  0.9487
 9723TIP3    H250585   3.075   3.944  16.756 -2.1762  0.8117 -0.7218
 9724TIP3   OH250586   4.649   2.378  16.755  0.5817 -0.2903 -0.0076
 9724TIP3    H150587   4.742   2.360  16.766  0.8693  1.4882  0.8890
 9724TIP3    H250588   4.614   2.377  16.845  0.2155  1.2294 -0.1015
 9725TIP3   OH250589   1.096   3.680  10.366  0.0241 -0.3644  0.3156
 9725TIP3    H150590   1.076   3.670  10.459  0.7171 -0.7117  0.4325
 9725TIP3    H250591   1.034   3.746  10.335  1.0324  1.1894  1.4655
 9726TIP3   OH250592   5.116   4.536   0.796 -0.0413  0.1312 -0.4364
 9726TIP3    H150593   5.170   4.569   0.868  0.1473  0.7002 -0.8335
 9726TIP3    H250594   5.168   4.466   0.757  0.3559  0.5744 -0.7209
 9727TIP3   OH250595   1.292   6.578   2.831 -0.4966 -0.0261 -0.2205
 9727TIP3    H150596   1.285   6.573   2.926 -2.4852  0.2360 -0.3067
 9727TIP3    H250597   1.351   6.507   2.808 -0.6627 -0.6530  1.1603
 9728TIP3   OH250598   5.004   3.481   5.759 -0.2706 -0.5361  0.1162
 9728TIP3    H150599   5.010   3.574   5.736  1.0264 -0.8069 -0.7292
 9728TIP3    H250600   4.924   3.451   5.716  1.5570 -0.7975 -3.5148
 9729TIP3   OH250601   5.413   2.461  16.404 -0.1561 -0.0868  0.6173
 9729TIP3    H150602   5.418   2.557  16.412 -0.1977 -0.1275  1.2135
 9729TIP3    H250603   5.420   2.444  16.310 -0.4952  0.5235  0.4738
 9730TIP3   OH250604   1.516   0.182   3.662 -0.1697  0.3762  0.2041
 9730TIP3    H150605   1.516   0.269   3.621 -1.0815  0.0865 -0.4294
 9730TIP3    H250606   1.607   0.169   3.688  0.1222  1.2286 -0.3324
 9731TIP3   OH250607   2.265   6.716  11.194  0.0499  0.0412  0.6300
 9731TIP3    H150608   2.190   6.693  11.249 -0.6139  0.1814 -0.1960
 9731TIP3    H250609   2.285   6.636  11.146 -1.6004  0.7900 -1.4743
 9732TIP3   OH250610   4.748   3.059   1.812 -0.2309  0.4140  0.1052
 9732TIP3    H150611   4.693   2.985   1.840 -0.3900  0.2206 -0.6714
 9732TIP3    H250612   4.835   3.037   1.844 -0.3455  0.0534  0.1795
 9733TIP3   OH250613   5.648   5.896  13.420  0.0434  0.0826 -0.0598
 9733TIP3    H150614   5.640   5.977  13.470  0.3554 -1.0864  1.9687
 9733TIP3    H250615   5.740   5.871  13.429 -0.1396 -0.7199 -0.3271
 9734TIP3   OH250616   5.982   1.182  14.218 -0.0098  0.0425 -0.7115
 9734TIP3    H150617   5.996   1.192  14.124 -1.0533  0.5491 -0.8242
 9734TIP3    H250618   5.980   1.087  14.231 -1.9401 -0.0818 -1.5594
 9735TIP3   OH250619   3.530   4.782  10.686  0.4924  0.8847  0.5178
 9735TIP3    H150620   3.496   4.700  10.648  0.9023 -0.1004  2.1685
 9735TIP3    H250621   3.617   4.792  10.646 -0.0298  1.2005 -0.5990
 9736TIP3   OH250622   0.505   5.182  12.496 -0.1712  0.2714  0.5211
 9736TIP3    H150623   0.413   5.185  12.519 -0.7871  1.5302 -1.8158
 9736TIP3    H250624   0.528   5.089  12.500 -1.8822 -0.2005 -0.0632
 9737TIP3   OH250625   6.715   4.255   3.071 -0.5121 -0.4721 -0.5041
 9737TIP3    H150626   6.806   4.259   3.102 -0.8014 -2.2262  0.7326
 9737TIP3    H250627   6.688   4.347   3.067  1.2500  0.0850 -0.7513
 9738TIP3   OH250628   0.533   0.571   0.816  0.5149 -0.2108  0.1218
 9738TIP3    H150629   0.529   0.559   0.911  0.4428 -2.0963 -0.0785
 9738TIP3    H250630   0.489   0.654   0.801 -0.1808 -0.2522  1.6800
 9739TIP3   OH250631   1.659   1.245   3.604 -0.4948  0.3069 -0.1909
 9739TIP3    H150632   1.627   1.326   3.645  0.6555  1.9181 -2.2793
 9739TIP3    H250633   1.594   1.227   3.535  0.0123  0.2886 -0.6665
 9740TIP3   OH250634   3.679   2.403   1.357  0.2698  0.2940  0.1143
 9740TIP3    H150635   3.694   2.368   1.269  0.5016 -2.2907  1.0939
 9740TIP3    H250636   3.600   2.456   1.349 -0.0511 -0.3752 -1.5207
 9741TIP3   OH250637   1.590   4.477  14.114 -0.1894  0.4504  0.0058
 9741TIP3    H150638   1.652   4.510  14.048  1.3412 -1.6322  0.3092
 9741TIP3    H250639   1.600   4.537  14.188 -0.8905  1.9811 -1.0751
 9742TIP3   OH250640   5.539   4.031  15.526  0.1156  0.1296  0.6981
 9742TIP3    H150641   5.529   4.113  15.477  3.0283 -0.0190 -0.3349
 9742TIP3    H250642   5.496   3.966  15.472 -1.0845  0.7472  0.8804
 9743TIP3   OH250643   1.099   1.527  14.640  0.0791 -0.1497 -0.3062
 9743TIP3    H150644   1.123   1.484  14.558  1.5259  1.2979 -0.6778
 9743TIP3    H250645   1.135   1.469  14.708 -2.5634 -2.2420 -0.5381
 9744TIP3   OH250646   2.355   2.206   4.827 -0.0641  0.2996  0.1012
 9744TIP3    H150647   2.384   2.169   4.743 -1.9972 -0.6667 -0.2098
 9744TIP3    H250648   2.312   2.133   4.872 -0.5106  1.2125  1.2056
 9745TIP3   OH250649   4.211   1.948  16.604 -0.1209  0.5146 -0.2971
 9745TIP3    H150650   4.241   2.039  16.599 -1.2608  0.9967  0.8746
 9745TIP3    H250651   4.134   1.952  16.661 -0.7590 -1.0543 -0.9924
 9746TIP3   OH250652   3.631   2.954   0.353 -0.2917  0.6251 -0.2297
 9746TIP3    H150653   3.602   2.994   0.435 -1.2891  0.0232 -0.2651
 9746TIP3    H250654   3.695   2.888   0.379 -0.1984  0.8156  0.0205
 9747TIP3   OH250655   3.512   2.407  16.879  0.0842  0.0577  0.2853
 9747TIP3    H150656   3.433   2.431  16.830  0.6113  2.2513  0.4030
 9747TIP3    H250657   3.516   2.312  16.873 -2.6113 -0.1342  0.3611
 9748TIP3   OH250658   2.362   5.364  12.835  0.7242 -0.1027  0.0262
 9748TIP3    H150659   2.431   5.380  12.900 -0.1002  1.1894  0.6356
 9748TIP3    H250660   2.377   5.431  12.768 -1.2680  1.7950  1.3326
 9749TIP3   OH250661   3.102   2.015  11.496  0.5507 -0.1842  0.3902
 9749TIP3    H150662   3.085   2.066  11.576 -0.8468  0.0121 -0.0056
 9749TIP3    H250663   3.075   1.926  11.518 -0.7738  0.0624 -0.1395
 9750TIP3   OH250664   2.298   1.252   1.485 -0.4622  0.1360  1.0226
 9750TIP3    H150665   2.222   1.240   1.427  0.2954 -2.7804  0.4555
 9750TIP3    H250666   2.283   1.191   1.557  1.7812 -1.3484  0.3372
 9751TIP3   OH250667   0.577   1.588   5.333  0.3195 -0.4864  0.0030
 9751TIP3    H150668   0.668   1.563   5.318  0.1774 -2.9526  2.4825
 9751TIP3    H250669   0.529   1.541   5.264  0.7730 -0.4947 -0.3160
 9752TIP3   OH250670   3.721   4.556   2.241  0.6183 -0.1654  0.4182
 9752TIP3    H150671   3.802   4.584   2.285  0.8198 -1.4075  0.8821
 9752TIP3    H250672   3.692   4.634   2.193  2.2685  0.2111 -0.0366
 9753TIP3   OH250673   6.284   1.883  15.283  0.2537  0.4372  0.6082
 9753TIP3    H150674   6.216   1.937  15.243 -0.1260  1.3245  2.3368
 9753TIP3    H250675   6.250   1.793  15.278  0.6853  0.3606 -1.8887
 9754TIP3   OH250676   5.614   1.697  10.776 -0.0372 -0.6064  0.7662
 9754TIP3    H150677   5.683   1.646  10.734 -1.2926 -0.4272 -1.6769
 9754TIP3    H250678   5.587   1.761  10.710 -1.6541  0.1759  2.0990
 9755TIP3   OH250679   0.327   4.220  13.923 -0.0962  0.0620 -0.4350
 9755TIP3    H150680   0.244   4.195  13.882  0.0249 -1.2911  0.0942
 9755TIP3    H250681   0.303   4.246  14.012  0.0684 -0.5148 -0.2212
 9756TIP3   OH250682   3.835   0.410  14.910  0.3098  0.0600  0.1105
 9756TIP3    H150683   3.863   0.384  14.998 -0.8969 -0.5366  0.3262
 9756TIP3    H250684   3.864   0.339  14.853  2.0144  0.9145 -0.1751
 9757TIP3   OH250685   2.230   5.274   1.881 -0.1110  0.6261  0.2834
 9757TIP3    H150686   2.275   5.358   1.879 -0.6644  0.9195 -0.3304
 9757TIP3    H250687   2.213   5.257   1.974  0.1386  1.1187  0.4173
 9758TIP3   OH250688   3.343   4.300  16.219 -0.3553 -0.4635 -0.3872
 9758TIP3    H150689   3.434   4.279  16.197 -0.2947  1.0136 -1.7144
 9758TIP3    H250690   3.291   4.243  16.162 -0.1922  1.6130 -2.8225
 9759TIP3   OH250691   5.833   1.054  10.066  0.0540 -0.6326 -0.6945
 9759TIP3    H150692   5.912   1.020  10.109  0.8442  0.5514 -1.1761
 9759TIP3    H250693   5.761   1.021  10.120  0.7768 -2.7079 -0.9012
 9760TIP3   OH250694   0.110   5.323   6.602 -0.0844 -0.2855  0.0783
 9760TIP3    H150695   0.124   5.240   6.649 -0.7442  0.3492  1.4562
 9760TIP3    H250696   0.164   5.315   6.523  1.8415 -1.0315  1.3794
 9761TIP3   OH250697   6.215   4.339   0.708 -0.1077 -0.0391  0.3162
 9761TIP3    H150698   6.250   4.371   0.791  0.0486 -0.4467  0.4079
 9761TIP3    H250699   6.210   4.244   0.718  0.4330 -0.1525 -0.3251
 9762TIP3   OH250700   6.327   0.804  13.423 -0.2778  0.1115 -0.4008
 9762TIP3    H150701   6.289   0.864  13.358 -2.0635  0.0572  0.5165
 9762TIP3    H250702   6.255   0.745  13.445 -0.1199  0.8378  2.4490
 9763TIP3   OH250703   3.793   4.385   0.498  0.2531 -0.1477  0.4591
 9763TIP3    H150704   3.746   4.450   0.444  0.0528  0.6213  1.5184
 9763TIP3    H250705   3.815   4.433   0.578  1.7909 -0.8648  0.4815
 9764TIP3   OH250706   1.019   5.730  11.052 -0.4211  0.3716 -0.2475
 9764TIP3    H150707   0.964   5.657  11.023 -1.3377  0.9413  0.0470
 9764TIP3    H250708   1.104   5.713  11.010 -0.9623 -0.2359 -1.1279
 9765TIP3   OH250709   2.933   0.244   2.706 -0.4020  0.3249  0.8727
 9765TIP3    H150710   2.991   0.180   2.666  1.4484  1.5632  1.3872
 9765TIP3    H250711   2.899   0.201   2.785  0.5620 -0.1498  1.0419
 9766TIP3   OH250712   0.432   0.254   3.220 -0.2418 -0.6428  1.0427
 9766TIP3    H150713   0.467   0.336   3.185  1.0402 -0.1947  3.2022
 9766TIP3    H250714   0.430   0.267   3.315 -1.8728 -2.4250  1.3106
 9767TIP3   OH250715   0.308   5.102  16.321 -0.2170  0.4956 -0.5445
 9767TIP3    H150716   0.306   5.198  16.318 -0.3324  0.4704 -1.5638
 9767TIP3    H250717   0.383   5.078  16.266 -0.1430 -0.0056 -0.2328
 9768TIP3   OH250718   4.061   6.484  16.049  0.8360  0.0708  0.5988
 9768TIP3    H150719   4.013   6.435  15.983 -2.6523  3.4727  0.2463
 9768TIP3    H250720   4.041   6.440  16.132 -1.7788  0.4649  0.2521
 9769TIP3   OH250721   2.072   4.761  15.346  0.1947  0.9020 -0.5256
 9769TIP3    H150722   2.007   4.791  15.410  0.3190 -1.7120  0.9558
 9769TIP3    H250723   2.023   4.707  15.285  0.6629  0.5253 -0.5721
 9770TIP3   OH250724   4.544   5.561  11.551 -0.8231  0.2523 -0.7987
 9770TIP3    H150725   4.455   5.596  11.545 -0.9798  0.1082  0.5041
 9770TIP3    H250726   4.537   5.488  11.613  0.2562  0.4229 -0.4519
 9771TIP3   OH250727   4.734   5.754   2.487  0.1227 -0.1958 -0.1012
 9771TIP3    H150728   4.704   5.674   2.443 -2.4432 -0.0831  1.2769
 9771TIP3    H250729   4.717   5.738   2.580  1.7245  1.1081  0.4731
 9772TIP3   OH250730   4.547   2.684  15.638 -0.2632  0.1660 -0.1108
 9772TIP3    H150731   4.545   2.599  15.593  3.4903 -0.0436 -0.1805
 9772TIP3    H250732   4.488   2.673  15.712  0.0532 -2.5106 -0.1459
 9773TIP3   OH250733   6.681   2.207  15.817 -0.0213 -0.1675  0.4752
 9773TIP3    H150734   6.619   2.269  15.779 -0.7878  0.1291  2.1312
 9773TIP3    H250735   6.725   2.167  15.741  0.0674  1.9378 -0.6498
 9774TIP3   OH250736   5.171   2.250   2.606 -0.2388  0.1035 -0.1500
 9774TIP3    H150737   5.093   2.206   2.639 -0.9784  0.9344 -0.7493
 9774TIP3    H250738   5.217   2.280   2.684 -1.3107  0.9334  0.1802
 9775TIP3   OH250739   5.681   3.702  13.769  0.5429  0.5101 -0.8652
 9775TIP3    H150740   5.754   3.686  13.829  1.3952  0.9398 -1.7600
 9775TIP3    H250741   5.607   3.719  13.826  0.9846 -0.5556  0.0693
 9776TIP3   OH250742   5.526   6.253  15.141 -0.6756 -0.2490  0.9294
 9776TIP3    H150743   5.477   6.292  15.069  1.7353  0.7882 -0.2741
 9776TIP3    H250744   5.563   6.172  15.105  0.3034  0.1188  1.0749
 9777TIP3   OH250745   2.689   1.471  14.401 -0.7322  0.1979 -1.2090
 9777TIP3    H150746   2.768   1.523  14.410 -1.0139  0.2035  3.9814
 9777TIP3    H250747   2.621   1.534  14.379 -0.2822  1.3471  0.5105
 9778TIP3   OH250748   1.426   3.317  16.377 -0.5850 -0.2836 -0.3417
 9778TIP3    H150749   1.373   3.364  16.441 -0.0912  0.1961 -0.2837
 9778TIP3    H250750   1.477   3.254  16.428  2.3831  2.3648  0.2465
 9779TIP3   OH250751   2.350   2.890  13.583 -0.2702 -0.0656  0.3222
 9779TIP3    H150752   2.295   2.966  13.602  0.2727  0.1598  1.0613
 9779TIP3    H250753   2.415   2.921  13.520 -0.0323  0.1014  0.6443
 9780TIP3   OH250754   6.732   4.719  16.914 -0.4921  0.4507  0.2651
 9780TIP3    H150755   6.723   4.625  16.898 -0.9110 -0.2014  3.6253
 9780TIP3    H250756   6.712   4.759  16.829 -2.9636 -2.3690 -0.6984
 9781TIP3   OH250757   1.981   0.710   3.992 -0.6548 -0.4728  0.3990
 9781TIP3    H150758   1.968   0.676   4.081  0.2135  1.6646  1.4038
 9781TIP3    H250759   2.076   0.711   3.980 -0.7594 -0.7550 -0.6027
 9782TIP3   OH250760   3.134   5.916   2.746 -0.0798 -0.2670 -0.6224
 9782TIP3    H150761   3.214   5.965   2.732  1.1038 -2.2156 -1.1074
 9782TIP3    H250762   3.164   5.829   2.774 -1.9357 -1.5576 -2.3954
 9783TIP3   OH250763   0.329   3.593   3.580  0.1297 -0.6751 -0.3265
 9783TIP3    H150764   0.360   3.681   3.598 -0.2902 -0.6212  0.1575
 9783TIP3    H250765   0.310   3.556   3.666 -1.8404 -0.4367 -0.6167
 9784TIP3   OH250766   5.751   3.058   3.227 -0.4922 -0.5337 -0.2755
 9784TIP3    H150767   5.758   3.024   3.316  1.8980  0.6879  0.0707
 9784TIP3    H250768   5.658   3.079   3.217 -0.7063 -0.0584  2.1720
 9785TIP3   OH250769   4.045   4.753   1.411 -0.0841  0.0148  0.1891
 9785TIP3    H150770   4.024   4.666   1.376  1.4026 -0.9843  1.6266
 9785TIP3    H250771   3.968   4.777   1.463 -0.1505 -0.8691  0.5120
 9786TIP3   OH250772   4.664   5.135   4.684 -0.2167  0.1552 -0.0262
 9786TIP3    H150773   4.579   5.108   4.718  0.0440 -1.0259 -0.2714
 9786TIP3    H250774   4.706   5.180   4.756 -1.2198  1.1388 -0.0390
 9787TIP3   OH250775   6.081   2.841  14.383  0.2130 -0.1023 -0.4515
 9787TIP3    H150776   6.142   2.897  14.431  2.0249 -0.2595 -2.3998
 9787TIP3    H250777   6.137   2.772  14.345 -1.3424 -0.8831 -1.4480
 9788TIP3   OH250778   5.624   0.689   6.051  0.0581 -0.2551  0.3782
 9788TIP3    H150779   5.535   0.695   6.016  0.6276 -0.4595 -1.2005
 9788TIP3    H250780   5.615   0.707   6.144 -1.3986  1.5198 -0.0606
 9789TIP3   OH250781   3.848   6.519  14.366 -0.3266  0.3298  0.1363
 9789TIP3    H150782   3.835   6.447  14.305  2.0234  0.0877 -0.1809
 9789TIP3    H250783   3.765   6.566  14.368 -0.8371 -0.3788 -2.3095
 9790TIP3   OH250784   1.569   3.154  16.860 -0.1630  0.4588 -0.3496
 9790TIP3    H150785   1.547   3.144  16.952  0.1597 -1.4271 -0.4323
 9790TIP3    H250786   1.646   3.098  16.848  0.1702  1.1520 -1.6377
 9791TIP3   OH250787   0.877   4.831  15.997 -0.0883 -0.3793 -0.7359
 9791TIP3    H150788   0.847   4.921  16.009  0.9068 -0.1287  0.0062
 9791TIP3    H250789   0.813   4.792  15.938 -0.4871  0.8392 -1.1352
 9792TIP3   OH250790   1.213   1.009   3.301  0.3388 -0.5310  0.4816
 9792TIP3    H150791   1.249   1.065   3.232  1.8576 -1.2244  0.6817
 9792TIP3    H250792   1.249   0.923   3.284 -0.8810 -1.1739  0.9902
 9793TIP3   OH250793   6.615   2.291  13.330 -0.3369 -0.1361  0.1370
 9793TIP3    H150794   6.608   2.374  13.379  0.3208  0.3941 -0.6316
 9793TIP3    H250795   6.704   2.261  13.348  0.5927  1.0037 -2.1109
 9794TIP3   OH250796   4.846   3.086  13.713 -0.7465 -0.2937 -0.4026
 9794TIP3    H150797   4.919   3.048  13.666 -0.2312  2.1911 -1.7598
 9794TIP3    H250798   4.863   3.180  13.713 -3.7106  0.3373 -0.3881
 9795TIP3   OH250799   5.761   6.057   2.071 -0.0317 -0.7981 -0.0275
 9795TIP3    H150800   5.801   5.970   2.068 -1.3495 -1.5137  1.3670
 9795TIP3    H250801   5.668   6.040   2.091 -0.6122  0.8729 -1.1060
 9796TIP3   OH250802   5.285   4.176   2.206 -0.5094 -0.2932  0.2266
 9796TIP3    H150803   5.363   4.229   2.191  0.7332 -2.0974  0.0078
 9796TIP3    H250804   5.260   4.145   2.119 -0.7178 -0.7382  0.4398
 9797TIP3   OH250805   5.476   6.119  14.443 -0.9698  0.3741 -0.1554
 9797TIP3    H150806   5.397   6.070  14.422 -0.2755 -0.9116  0.0922
 9797TIP3    H250807   5.533   6.104  14.367 -0.2352 -0.3726  0.5216
 9798TIP3   OH250808   2.014   5.075  12.577 -0.1504  0.2503  0.2508
 9798TIP3    H150809   1.983   5.008  12.516  0.1785 -1.1172  1.5379
 9798TIP3    H250810   2.087   5.117  12.531 -1.6996  1.2128 -1.4308
 9799TIP3   OH250811   1.732   2.332   5.661 -0.2128  0.3327  0.7850
 9799TIP3    H150812   1.817   2.332   5.615 -0.1801  0.5253  0.8457
 9799TIP3    H250813   1.755   2.319   5.753 -0.1402  1.8916  1.0039
 9800TIP3   OH250814   1.667   5.702  12.806  0.3565  0.2121 -0.1488
 9800TIP3    H150815   1.711   5.703  12.891 -2.2548 -1.4242  1.3193
 9800TIP3    H250816   1.614   5.782  12.806  0.7013  0.4465 -0.4731
 9801TIP3   OH250817   0.649   5.093  15.364 -0.9601 -0.0112  0.5534
 9801TIP3    H150818   0.716   5.035  15.327 -2.2247 -1.9404  1.1278
 9801TIP3    H250819   0.592   5.114  15.290 -0.4501  0.5863  0.3248
 9802TIP3   OH250820   2.875   1.968   5.321 -0.7169  0.2739  0.2280
 9802TIP3    H150821   2.800   1.916   5.351 -0.3369  0.1092  0.9083
 9802TIP3    H250822   2.839   2.055   5.305 -1.0498  0.2015  0.5735
 9803TIP3   OH250823   5.164   6.223  15.172  0.0158  0.1140 -0.0001
 9803TIP3    H150824   5.135   6.180  15.091 -2.8364  2.2586 -0.2713
 9803TIP3    H250825   5.224   6.291  15.142 -1.1809  1.0313 -0.4199
 9804TIP3   OH250826   6.415   4.811  15.410 -0.6229  0.4599 -0.4894
 9804TIP3    H150827   6.475   4.753  15.456 -2.1563 -0.5244  0.3393
 9804TIP3    H250828   6.472   4.878  15.371  0.7891  1.2437  2.6257
 9805TIP3   OH250829   5.045   3.785  11.686  0.5316  0.3292  0.3912
 9805TIP3    H150830   5.072   3.872  11.717  4.0912 -0.2254 -0.6945
 9805TIP3    H250831   5.007   3.800  11.600  0.3887  0.8629  0.5432
 9806TIP3   OH250832   2.166   0.076  12.003  0.3383  0.1152  0.2875
 9806TIP3    H150833   2.140  -0.005  11.959  0.8279  0.4308 -0.5995
 9806TIP3    H250834   2.199   0.132  11.933  1.1419  0.6277  1.0577
 9807TIP3   OH250835   3.979   4.688  11.813 -0.3577 -0.0881  0.0382
 9807TIP3    H150836   3.957   4.781  11.813 -0.0396 -0.0121 -0.0295
 9807TIP3    H250837   3.984   4.665  11.720  1.2620  0.2362  0.0249
 9808TIP3   OH250838   3.158   0.461  12.117 -0.0413 -0.1646 -0.2850
 9808TIP3    H150839   3.210   0.469  12.038 -0.6546  0.4527 -0.6419
 9808TIP3    H250840   3.203   0.516  12.182  1.0261 -1.4718  0.1226
 9809TIP3   OH250841   5.135   6.278  10.504  0.1213  0.1699  0.7803
 9809TIP3    H150842   5.191   6.269  10.581 -0.3546  1.9475  1.3749
 9809TIP3    H250843   5.196   6.295  10.432  0.4556  0.4034  1.1142
 9810TIP3   OH250844   4.605   5.079  13.122 -0.4450  0.0766 -0.1912
 9810TIP3    H150845   4.566   5.142  13.182  0.7606  0.1626  0.5257
 9810TIP3    H250846   4.657   5.132  13.061  0.0740 -0.1725  0.0301
 9811TIP3   OH250847   4.676   5.848   4.294 -0.0835 -0.1889  0.0411
 9811TIP3    H150848   4.693   5.907   4.221 -1.3609  0.8656  0.5676
 9811TIP3    H250849   4.635   5.902   4.361  0.5610 -1.2417  1.3608
 9812TIP3   OH250850   5.302   4.585  15.433 -0.0825  0.5479  0.5076
 9812TIP3    H150851   5.209   4.565  15.423  0.0462  0.0934  0.2080
 9812TIP3    H250852   5.340   4.565  15.347  0.7124 -1.6065  1.2941
 9813TIP3   OH250853   0.363   4.896   4.019 -0.0092 -0.4540  0.5239
 9813TIP3    H150854   0.339   4.863   3.932  3.0563 -0.4115 -0.4681
 9813TIP3    H250855   0.281   4.928   4.056 -1.0762  2.4052 -3.6244
 9814TIP3   OH250856   5.332   1.313   4.032 -0.4262  0.4234  0.4295
 9814TIP3    H150857   5.404   1.304   3.970 -0.0785 -0.6490  0.9648
 9814TIP3    H250858   5.301   1.403   4.021  0.6851  0.7457 -0.1340
 9815TIP3   OH250859   0.961   5.670   1.984  0.1297  0.1964  0.7498
 9815TIP3    H150860   0.973   5.625   1.900 -0.1535  0.3055  0.6471
 9815TIP3    H250861   1.046   5.663   2.028  0.5340  0.8690  0.0983
 9816TIP3   OH250862   1.745   4.943  13.363 -0.0149  0.1768 -0.0746
 9816TIP3    H150863   1.779   4.995  13.290 -2.0139 -1.2932 -2.1872
 9816TIP3    H250864   1.734   5.007  13.434  0.9016  1.9118 -1.3951
 9817TIP3   OH250865   6.394   6.444  12.042 -0.5819  0.6963 -0.1193
 9817TIP3    H150866   6.470   6.461  12.099 -0.3586  0.1333 -0.2425
 9817TIP3    H250867   6.367   6.355  12.064  0.4736 -0.1456 -1.9698
 9818TIP3   OH250868   1.667   6.222   0.643 -0.5071  0.1852  0.2953
 9818TIP3    H150869   1.628   6.137   0.662  0.0366 -0.0968  0.1754
 9818TIP3    H250870   1.744   6.202   0.591 -0.6952  0.7958 -0.2260
 9819TIP3   OH250871   4.783   2.231   3.494 -0.4114  0.1119  0.0040
 9819TIP3    H150872   4.758   2.149   3.452  1.0452 -0.0764 -0.5537
 9819TIP3    H250873   4.784   2.211   3.587  2.3235 -1.2942 -0.2133
 9820TIP3   OH250874   5.469   3.740  13.941 -0.1971 -0.3785 -0.4821
 9820TIP3    H150875   5.381   3.712  13.965 -0.7011  1.8426  0.5731
 9820TIP3    H250876   5.515   3.751  14.024 -0.2952  2.4073 -0.6734
 9821TIP3   OH250877   5.701   0.560  10.351 -0.0911  0.1276 -0.3216
 9821TIP3    H150878   5.733   0.642  10.390 -1.3791  0.7144 -0.4689
 9821TIP3    H250879   5.748   0.492  10.399  0.4810  0.9231  0.2883
 9822TIP3   OH250880   0.312   6.312   3.526  0.3870 -0.1695 -0.3762
 9822TIP3    H150881   0.265   6.315   3.609 -0.0166 -2.6651 -0.4381
 9822TIP3    H250882   0.387   6.370   3.540 -0.9418  1.3663  0.8411
 9823TIP3   OH250883   3.153   1.010  16.651  0.2089  0.4104 -0.4836
 9823TIP3    H150884   3.145   1.105  16.647  0.3279  0.4219 -0.4769
 9823TIP3    H250885   3.147   0.989  16.745  2.6203  0.6566 -0.1991
 9824TIP3   OH250886   0.635   6.024  13.851  0.5864 -0.2052 -0.2764
 9824TIP3    H150887   0.625   6.011  13.756  0.0055  0.7249 -0.3625
 9824TIP3    H250888   0.725   6.000  13.869  0.7127 -0.3728 -1.0751
 9825TIP3   OH250889   4.754   3.957   5.727  0.0809  0.4981  0.1704
 9825TIP3    H150890   4.680   3.991   5.677  0.5561 -0.0985 -0.9820
 9825TIP3    H250891   4.809   4.033   5.744 -0.1481  0.7328 -0.1206
 9826TIP3   OH250892   2.695   0.629  15.235  0.0442  0.4596  0.4727
 9826TIP3    H150893   2.677   0.685  15.161 -0.6521 -0.4997 -0.1164
 9826TIP3    H250894   2.609   0.595  15.261  0.6732 -2.8457 -1.2520
 9827TIP3   OH250895   0.706   3.763  16.143 -0.0246  0.0864  0.3440
 9827TIP3    H150896   0.661   3.738  16.063  0.1023  2.4420 -0.5228
 9827TIP3    H250897   0.794   3.726  16.133 -0.3836 -0.6838 -0.0212
 9828TIP3   OH250898   4.791   6.734  11.581 -0.2076 -0.0734  0.2384
 9828TIP3    H150899   4.715   6.714  11.636 -0.1829  0.0363  0.3127
 9828TIP3    H250900   4.786   6.670  11.509 -0.3344 -0.1076  0.2775
 9829TIP3   OH250901   3.676   6.390   2.495 -0.0464 -0.0134  0.5190
 9829TIP3    H150902   3.740   6.320   2.504  0.0538  0.0490  0.3028
 9829TIP3    H250903   3.670   6.405   2.400  0.6114  0.8898  0.6013
 9830TIP3   OH250904   2.817   0.237  11.248  0.0838 -0.2765 -0.4337
 9830TIP3    H150905   2.902   0.253  11.206  0.3687 -1.5425 -0.3973
 9830TIP3    H250906   2.762   0.310  11.220  0.8239 -0.1016 -1.4898
 9831TIP3   OH250907   3.491   0.349  16.230  0.0134 -0.3655  0.0790
 9831TIP3    H150908   3.430   0.296  16.282  1.6185 -0.4340  1.9670
 9831TIP3    H250909   3.448   0.434  16.222 -1.8064 -1.3528 -1.5089
 9832TIP3   OH250910   1.677   3.135   1.723 -0.1166  0.1934  0.0670
 9832TIP3    H150911   1.763   3.095   1.711 -0.3994 -0.0695 -1.1611
 9832TIP3    H250912   1.638   3.087   1.796  0.8707  0.4840  0.8041
 9833TIP3   OH250913   6.041   6.377   3.400 -0.0149 -0.1487 -0.2092
 9833TIP3    H150914   6.016   6.325   3.323  0.9574 -0.3859 -0.3763
 9833TIP3    H250915   6.131   6.351   3.418  0.8010  2.0289 -0.7681
 9834TIP3   OH250916   4.826   1.755   4.075  0.1686  0.1442 -0.2528
 9834TIP3    H150917   4.913   1.783   4.104  0.5028 -2.9651  2.2594
 9834TIP3    H250918   4.841   1.670   4.034 -1.5686  0.2950 -1.2901
 9835TIP3   OH250919   5.842   3.744   0.209  0.7536 -0.8774  0.1228
 9835TIP3    H150920   5.789   3.694   0.147  2.3453 -0.8494 -1.3155
 9835TIP3    H250921   5.921   3.692   0.222  3.2586  1.7851 -2.7198
 9836TIP3   OH250922   5.350   2.910   4.638 -0.0787  0.1407  0.4914
 9836TIP3    H150923   5.366   3.003   4.619  0.2988 -0.1480 -0.7333
 9836TIP3    H250924   5.363   2.867   4.554  2.4605 -1.3753  1.5351
 9837TIP3   OH250925   0.805   1.140   0.815 -0.5142  0.3197  0.2930
 9837TIP3    H150926   0.898   1.156   0.833 -0.3184  2.1615 -1.8810
 9837TIP3    H250927   0.796   1.044   0.817  1.6504  0.0504 -0.3704
 9838TIP3   OH250928   4.097   0.502  12.314 -0.4558 -0.1514 -0.0667
 9838TIP3    H150929   4.066   0.552  12.237 -1.0944 -1.9509 -1.0418
 9838TIP3    H250930   4.018   0.490  12.367 -0.3961 -0.4382 -0.0401
 9839TIP3   OH250931   5.555   0.797  11.652 -0.4036 -0.0148  0.2297
 9839TIP3    H150932   5.507   0.716  11.634 -0.7252 -0.0880  1.3742
 9839TIP3    H250933   5.507   0.839  11.723 -0.7693  1.6547 -0.9329
 9840TIP3   OH250934   1.779   6.749  11.774 -0.0796  0.1634  0.2167
 9840TIP3    H150935   1.775   6.666  11.726  0.1792 -0.2411  0.8791
 9840TIP3    H250936   1.836   6.805  11.722 -0.3880 -0.0161 -0.3162
 9841TIP3   OH250937   5.127   4.058   0.672 -0.4848 -0.0762  0.0378
 9841TIP3    H150938   5.095   3.984   0.723 -1.4110 -0.3238 -0.8816
 9841TIP3    H250939   5.195   4.020   0.617 -2.4589 -0.7903 -2.0583
 9842TIP3   OH250940   4.407   2.231   5.023  1.0069 -0.0325 -0.0490
 9842TIP3    H150941   4.367   2.313   5.052  1.9031 -0.1949  1.7997
 9842TIP3    H250942   4.499   2.239   5.048  1.5405 -0.8287 -1.6364
 9843TIP3   OH250943   4.397   1.818   5.178 -0.4152  0.5161 -0.1689
 9843TIP3    H150944   4.450   1.771   5.114  0.0730  0.8895 -0.0399
 9843TIP3    H250945   4.340   1.874   5.126 -0.7078  0.0986 -0.3068
 9844TIP3   OH250946   5.238   3.282   5.764  0.2752 -0.0008 -0.0427
 9844TIP3    H150947   5.320   3.291   5.814 -0.1550  1.5919  0.4435
 9844TIP3    H250948   5.221   3.369   5.730 -1.0008 -0.4102 -0.5161
 9845TIP3   OH250949   2.789   0.802   4.543  0.7904 -0.5622 -0.2973
 9845TIP3    H150950   2.793   0.746   4.621  1.1911 -0.2797 -0.1180
 9845TIP3    H250951   2.839   0.880   4.566  0.0903 -0.0430 -0.4862
 9846TIP3   OH250952   4.306   4.518   5.807 -0.4276 -0.0378  0.4293
 9846TIP3    H150953   4.227   4.567   5.832  0.5046  1.2474  0.9733
 9846TIP3    H250954   4.315   4.452   5.876 -0.3111  0.6744  1.1173
 9847TIP3   OH250955   3.243   4.449  13.317  0.2813 -0.1204 -0.3348
 9847TIP3    H150956   3.263   4.536  13.283  1.3365 -0.5941 -0.9773
 9847TIP3    H250957   3.211   4.400  13.241 -1.5705  0.0424  0.2772
 9848TIP3   OH250958   0.843   1.906  12.210 -0.4896 -0.1054 -0.4368
 9848TIP3    H150959   0.814   1.931  12.297 -1.0766 -1.0284 -0.3542
 9848TIP3    H250960   0.868   1.814  12.219  1.9863  0.4898 -0.6317
 9849TIP3   OH250961   4.798   1.711   2.352  0.2291  0.1562 -0.3207
 9849TIP3    H150962   4.721   1.748   2.394 -0.1398 -1.1039  0.1779
 9849TIP3    H250963   4.846   1.667   2.422  0.3779 -0.7172 -0.9417
 9850TIP3   OH250964   0.244   5.448  13.779 -0.1309  0.1404  0.9024
 9850TIP3    H150965   0.295   5.430  13.858 -1.1644  0.8653  1.7675
 9850TIP3    H250966   0.273   5.535  13.751 -0.4092  0.2677  1.0080
 9851TIP3   OH250967   5.534   2.908  16.845 -0.3248 -0.3554  0.4553
 9851TIP3    H150968   5.522   2.819  16.812 -0.1057 -0.3895  0.4663
 9851TIP3    H250969   5.621   2.906  16.886 -0.5789 -0.2991  0.9900
 9852TIP3   OH250970   3.239   3.890   1.796  0.1717  0.1672 -0.0457
 9852TIP3    H150971   3.235   3.975   1.752 -1.0742  0.7470  1.1062
 9852TIP3    H250972   3.297   3.904   1.871  0.8991 -0.3397 -0.4979
 9853TIP3   OH250973   1.292   3.627   4.111  0.0088 -0.0500  0.8237
 9853TIP3    H150974   1.227   3.560   4.092 -1.5042  1.8481 -1.1557
 9853TIP3    H250975   1.242   3.704   4.137  1.5863  0.8692  1.3182
 9854TIP3   OH250976   4.978   4.514  15.717  0.4888 -0.1763  0.2803
 9854TIP3    H150977   4.953   4.469  15.798  0.2674  0.2245  0.4341
 9854TIP3    H250978   5.070   4.490  15.704  0.4742 -0.3855  0.5520
 9855TIP3   OH250979   3.383   6.121  16.187  0.2481  0.1858 -0.2065
 9855TIP3    H150980   3.409   6.041  16.234  2.5458  0.5661 -0.6800
 9855TIP3    H250981   3.462   6.175  16.188  0.1854  0.5492 -3.7749
 9856TIP3   OH250982   5.615   2.302  12.678  0.3457  0.3891 -0.0965
 9856TIP3    H150983   5.650   2.247  12.749  1.6554  2.1163  0.6807
 9856TIP3    H250984   5.552   2.359  12.722  0.5991  0.9489 -0.4498
 9857TIP3   OH250985   6.140   5.472   4.655 -0.3039 -0.1622  0.3661
 9857TIP3    H150986   6.234   5.465   4.638 -0.6070 -0.8050 -1.1370
 9857TIP3    H250987   6.122   5.566   4.650  0.5565  0.1825  2.5501
 9858TIP3   OH250988   0.136   2.042   5.010  0.3788  0.5183 -0.3433
 9858TIP3    H150989   0.045   2.026   4.984  0.6607 -0.7494 -0.6159
 9858TIP3    H250990   0.132   2.059   5.104 -0.0326 -0.6296 -0.1397
 9859TIP3   OH250991   4.493   3.979   0.425  0.5749  0.3416 -0.4143
 9859TIP3    H150992   4.541   3.952   0.503  2.2199  2.2068 -0.7168
 9859TIP3    H250993   4.558   3.981   0.355 -0.5253  0.3034 -1.4833
 9860TIP3   OH250994   6.103   0.526  14.044 -0.0417  0.1755  0.1062
 9860TIP3    H150995   6.152   0.600  14.078  1.0978 -0.0671 -0.9384
 9860TIP3    H250996   6.092   0.468  14.119 -0.2573  1.0271  0.7439
 9861TIP3   OH250997   0.402   6.444  10.727  0.1131  0.2690  0.7498
 9861TIP3    H150998   0.449   6.526  10.745 -0.2810  0.3351  1.5187
 9861TIP3    H250999   0.335   6.469  10.664  0.6347  0.3286  0.2117
 9862TIP3   OH251000   5.447   1.088  12.581  0.0996 -0.4997 -0.2232
 9862TIP3    H151001   5.486   1.163  12.625  0.2748  0.5482 -2.0691
 9862TIP3    H251002   5.517   1.023  12.578  1.3858  0.8676 -2.3344
 9863TIP3   OH251003   1.106   5.934   2.480 -0.0306  0.0266  0.1211
 9863TIP3    H151004   1.025   5.894   2.513  1.2683 -2.2158  0.7816
 9863TIP3    H251005   1.077   6.017   2.441 -2.5089 -0.2638  1.1396
 9864TIP3   OH251006   5.738   6.715  13.839  0.7580  0.1532 -0.0963
 9864TIP3    H151007   5.743   6.790  13.779  0.2292  1.2765  1.1980
 9864TIP3    H251008   5.794   6.740  13.912  1.4635 -1.2330 -0.1319
 9865TIP3   OH251009   2.514   5.577  10.517 -0.0471 -0.5958 -0.0475
 9865TIP3    H151010   2.512   5.493  10.562 -0.4370 -1.6836 -2.0270
 9865TIP3    H251011   2.531   5.641  10.587  0.0877 -2.2720  1.5126
 9866TIP3   OH251012   1.165   4.860  15.320 -0.1421  0.2704  0.7430
 9866TIP3    H151013   1.110   4.845  15.243  0.0368 -0.1057  0.6882
 9866TIP3    H251014   1.237   4.914  15.288 -0.2242  0.3608  0.7108
 9867TIP3   OH251015   0.484   3.321   0.442 -0.3139 -0.1126 -0.1970
 9867TIP3    H151016   0.470   3.415   0.435  1.3783  0.1396 -0.7760
 9867TIP3    H251017   0.541   3.311   0.518 -2.2900 -0.9177  1.2386
 9868TIP3   OH251018   6.222   1.903  12.296  0.4184  0.2570 -0.8203
 9868TIP3    H151019   6.170   1.965  12.245  0.4479  0.5707 -0.4782
 9868TIP3    H251020   6.286   1.869  12.233  0.4037  0.5777 -1.0169
 9869TIP3   OH251021   3.047   6.467  15.720 -0.4021 -0.7859  0.0185
 9869TIP3    H151022   3.033   6.391  15.664 -0.5352 -1.2099  0.6106
 9869TIP3    H251023   2.995   6.537  15.680  0.0074 -0.8995 -0.7294
 9870TIP3   OH251024   5.108   0.519  16.380  0.0139 -0.2517  0.0792
 9870TIP3    H151025   5.121   0.537  16.473 -1.1597 -0.2676  0.2601
 9870TIP3    H251026   5.037   0.578  16.354  0.0900 -0.5001 -0.7218
 9871TIP3   OH251027   4.064   3.509   3.729  0.2605 -0.1241 -0.2974
 9871TIP3    H151028   4.071   3.586   3.785  0.9098  0.1469 -0.7429
 9871TIP3    H251029   4.041   3.438   3.789  0.3303  0.2820  0.2161
 9872TIP3   OH251030   0.434   4.315   2.594  0.2728  0.1620 -0.2601
 9872TIP3    H151031   0.522   4.329   2.559  0.0565  1.7733 -0.2152
 9872TIP3    H251032   0.427   4.219   2.603  2.1565  0.0273  0.1278
 9873TIP3   OH251033   2.931   1.317  11.434 -0.0063  0.2368  0.5420
 9873TIP3    H151034   3.020   1.291  11.458 -0.5394 -1.6966  0.5847
 9873TIP3    H251035   2.900   1.368  11.509  0.4283 -0.6784  1.3691
 9874TIP3   OH251036   5.834   3.726  12.933 -0.4833  0.1898  0.7331
 9874TIP3    H151037   5.922   3.756  12.958 -0.1177  0.2216 -0.5331
 9874TIP3    H251038   5.845   3.632  12.917 -0.6842  0.1960  0.5601
 9875TIP3   OH251039   2.412   4.110   1.505 -0.5009 -1.2055 -0.0364
 9875TIP3    H151040   2.390   4.150   1.421 -2.1378 -0.2792  0.7857
 9875TIP3    H251041   2.483   4.049   1.484  1.2355  1.1847 -1.5563
 9876TIP3   OH251042   2.795   4.447   4.905 -0.0757  0.0540 -0.4490
 9876TIP3    H151043   2.710   4.415   4.935 -0.2709  0.1891 -0.8609
 9876TIP3    H251044   2.831   4.494   4.981 -0.5847  0.4278 -0.4414
 9877TIP3   OH251045   1.897   2.670  14.654  0.2843 -0.1144 -0.2488
 9877TIP3    H151046   1.921   2.706  14.740 -0.4265  0.1729 -0.1647
 9877TIP3    H251047   1.921   2.578  14.660  2.2081  0.3233 -0.4891
 9878TIP3   OH251048   1.905   4.698  13.450 -0.1673  0.1182 -0.0163
 9878TIP3    H151049   1.855   4.650  13.516  1.0761  2.0870  2.5114
 9878TIP3    H251050   1.841   4.757  13.410 -0.6689 -0.1739  0.3391
 9879TIP3   OH251051   1.957   6.643  11.094  0.3644  0.2490 -0.0808
 9879TIP3    H151052   1.921   6.698  11.024  1.9585  3.1637  1.1827
 9879TIP3    H251053   1.960   6.700  11.170  3.5686 -1.0547  0.9674
 9880TIP3   OH251054   3.027   4.365  14.096  0.2225 -0.1808  1.0209
 9880TIP3    H151055   2.968   4.432  14.130 -1.4849 -1.3909  0.6223
 9880TIP3    H251056   3.114   4.395  14.119 -0.4693  2.1188  0.9196
 9881TIP3   OH251057   5.791   5.932  11.316  0.3565  0.6000 -0.6669
 9881TIP3    H151058   5.804   5.869  11.245  1.3286  1.0249 -0.8849
 9881TIP3    H251059   5.847   6.006  11.293 -0.0302  1.1436  0.0784
 9882TIP3   OH251060   0.257   5.391   4.500  0.1631 -0.4502  0.2496
 9882TIP3    H151061   0.335   5.356   4.456 -0.9009 -4.4584  1.2303
 9882TIP3    H251062   0.293   5.452   4.565  2.2165 -0.0535 -1.1338
 9883TIP3   OH251063   3.952   2.017   2.641 -0.2513 -0.6237 -0.4129
 9883TIP3    H151064   4.028   1.975   2.600  1.5764  1.1654  0.9554
 9883TIP3    H251065   3.902   2.053   2.568  1.7804  0.6651 -1.2500
 9884TIP3   OH251066   0.119   5.419  15.619 -0.2382  0.4419  0.3786
 9884TIP3    H151067   0.061   5.460  15.555 -0.3270 -1.5182 -0.8743
 9884TIP3    H251068   0.135   5.487  15.684  0.5031  2.8261 -2.1077
 9885TIP3   OH251069   1.564   5.405   2.936 -0.3166  0.2047 -0.2463
 9885TIP3    H151070   1.617   5.339   2.981 -1.5626 -0.1686  0.7340
 9885TIP3    H251071   1.623   5.442   2.870  1.4245  0.3919  1.3280
 9886TIP3   OH251072   0.271   1.940   5.894  0.1201  0.0735  0.0635
 9886TIP3    H151073   0.258   2.035   5.889 -2.0738 -0.0620  1.7872
 9886TIP3    H251074   0.345   1.929   5.954  1.4556  0.6621 -1.3846
 9887TIP3   OH251075   4.560   4.288  14.138  0.1412  0.4200  0.1699
 9887TIP3    H151076   4.479   4.308  14.091 -1.2769 -0.2770  2.1505
 9887TIP3    H251077   4.554   4.194  14.157  1.7774  0.2026 -0.2362
 9888TIP3   OH251078   3.686   2.620  14.957  1.1504  0.1256 -0.1340
 9888TIP3    H151079   3.741   2.632  15.034  1.1816 -1.0055  0.0428
 9888TIP3    H251080   3.602   2.590  14.991  1.7080 -2.1177 -0.5872
 9889TIP3   OH251081   3.749   0.293   4.970  0.0262 -0.4122  0.2126
 9889TIP3    H151082   3.777   0.203   4.954  0.9809 -0.3188  1.2162
 9889TIP3    H251083   3.667   0.284   5.019 -0.2438 -0.7158 -0.2849
 9890TIP3   OH251084   0.728   4.661   2.048 -0.1919  0.0769  0.2431
 9890TIP3    H151085   0.697   4.677   1.958 -0.4471  0.1542  0.3429
 9890TIP3    H251086   0.663   4.600   2.084 -1.1626  1.5131  1.0010
 9891TIP3   OH251087   5.208   5.160  13.869 -0.4810 -1.1550  0.3325
 9891TIP3    H151088   5.191   5.073  13.903  0.4109 -1.0476  1.0999
 9891TIP3    H251089   5.298   5.157  13.838 -0.7770 -0.7937 -0.6193
 9892TIP3   OH251090   0.214   6.359   2.533 -0.2708 -0.2196 -0.1560
 9892TIP3    H151091   0.136   6.337   2.482  0.0637  0.2081 -0.8629
 9892TIP3    H251092   0.235   6.449   2.508  1.3397 -0.8160 -1.1727
 9893TIP3   OH251093   3.558   4.276  13.200  0.0662 -0.1713 -0.5373
 9893TIP3    H151094   3.650   4.255  13.187  0.1057 -0.4591  0.1501
 9893TIP3    H251095   3.559   4.349  13.263 -0.1836 -0.4664 -0.1842
 9894TIP3   OH251096   0.138   4.359   4.203 -0.2360 -0.4959 -0.6377
 9894TIP3    H151097   0.184   4.321   4.278 -0.5203  1.2736  0.4772
 9894TIP3    H251098   0.193   4.431   4.174 -2.4776  2.1162  1.1567
 9895TIP3   OH251099   6.495   1.960  12.877 -0.1792  0.2555  0.1746
 9895TIP3    H151100   6.536   2.047  12.878 -2.3009  1.3557 -1.6077
 9895TIP3    H251101   6.552   1.907  12.933  0.6310  3.0229  2.2089
 9896TIP3   OH251102   4.364   2.346  16.124 -0.2797  0.0785  0.2239
 9896TIP3    H151103   4.305   2.421  16.132  0.0637  0.4575 -0.5991
 9896TIP3    H251104   4.391   2.326  16.213  0.0625  1.3009  0.4121
 9897TIP3   OH251105   4.927   0.902  15.456  0.2680  0.1364 -0.6331
 9897TIP3    H151106   4.883   0.961  15.518  0.1422 -0.3133 -0.2851
 9897TIP3    H251107   4.894   0.815  15.479 -0.1778  0.0236 -1.6878
 9898TIP3   OH251108   2.830   0.208   0.266 -0.2116  0.1866  0.4071
 9898TIP3    H151109   2.900   0.252   0.314  0.2967 -0.4369  0.2498
 9898TIP3    H251110   2.775   0.168   0.333 -1.1224  1.6696  0.6002
 9899TIP3   OH251111   6.099   1.108  16.346  0.2337 -0.0638 -0.0028
 9899TIP3    H151112   6.113   1.115  16.441 -1.7011 -0.0541  0.3306
 9899TIP3    H251113   6.158   1.173  16.308  1.6855 -0.6749  1.1136
 9900TIP3   OH251114   5.791   4.554  13.759 -0.0064 -1.2652  0.4331
 9900TIP3    H151115   5.868   4.507  13.726  0.6825 -1.1631  1.8313
 9900TIP3    H251116   5.815   4.580  13.848 -0.1666  2.1354 -0.3615
 9901TIP3   OH251117   3.017   4.650  13.110  0.1788 -0.1327 -0.2793
 9901TIP3    H151118   2.989   4.584  13.173  0.6013 -0.7936 -0.7631
 9901TIP3    H251119   2.978   4.622  13.027  2.3698 -1.2303 -1.0313
 9902TIP3   OH251120   5.120   2.633  10.570  0.0736  0.1521 -0.6415
 9902TIP3    H151121   5.075   2.627  10.654  1.8601 -1.4852  0.2786
 9902TIP3    H251122   5.178   2.709  10.580 -0.4282  0.5633 -0.7914
 9903TIP3   OH251123   6.682   2.412   4.943  0.0428 -0.4343 -0.1638
 9903TIP3    H151124   6.702   2.350   4.872 -1.9997 -1.2355 -0.1050
 9903TIP3    H251125   6.679   2.357   5.022  3.0761  0.5616  0.7777
 9904TIP3   OH251126   5.395   2.400  13.144  0.0452  0.4333 -0.0785
 9904TIP3    H151127   5.331   2.336  13.114  0.0966  1.3288 -2.3158
 9904TIP3    H251128   5.343   2.480  13.158  0.5099  0.9462 -1.1519
 9905TIP3   OH251129   1.795   4.022  10.926 -0.1088  0.2820  1.1130
 9905TIP3    H151130   1.814   3.940  10.972 -0.9496  0.2499  1.4270
 9905TIP3    H251131   1.828   4.090  10.984 -0.6010  0.2143  1.4807
 9906TIP3   OH251132   3.268   2.644   1.134 -0.1413 -0.0068  1.0060
 9906TIP3    H151133   3.215   2.637   1.214  0.8951 -0.1260  1.7003
 9906TIP3    H251134   3.276   2.553   1.104 -1.0265  0.0943  0.4117
 9907TIP3   OH251135   1.205   6.090  11.553 -0.0762 -0.4230  0.0352
 9907TIP3    H151136   1.185   6.057  11.465 -0.6067  0.0731 -0.0402
 9907TIP3    H251137   1.182   6.183  11.549 -0.9094 -0.5725  0.9365
 9908TIP3   OH251138   1.788   3.572   1.391 -0.7092  0.4179  0.2564
 9908TIP3    H151139   1.838   3.492   1.409 -0.8963  0.2916  0.2273
 9908TIP3    H251140   1.821   3.603   1.307 -2.9820 -1.5401 -1.4996
 9909TIP3   OH251141   4.911   5.831   1.318  0.2216 -0.0204  0.3678
 9909TIP3    H151142   4.947   5.795   1.400 -1.7436  0.7164  1.6217
 9909TIP3    H251143   4.931   5.924   1.322 -0.2172  0.0842  0.2072
 9910TIP3   OH251144   2.237   2.383  10.592 -0.0041  0.2390  0.3071
 9910TIP3    H151145   2.296   2.382  10.668  1.6538  1.8388 -0.8673
 9910TIP3    H251146   2.155   2.347  10.625  1.0056 -0.1782  2.5583
 9911TIP3   OH251147   3.570   4.448  16.785  0.1395  0.1476 -0.2973
 9911TIP3    H151148   3.502   4.507  16.752  0.6152  0.5374 -0.5899
 9911TIP3    H251149   3.652   4.484  16.751  0.5800  0.1903  0.7941
 9912TIP3   OH251150   0.841   4.093   1.565 -0.2264  0.5438 -0.3806
 9912TIP3    H151151   0.904   4.154   1.603  1.2762 -1.1231 -0.0910
 9912TIP3    H251152   0.873   4.079   1.476 -0.0148 -0.5216 -0.1469
 9913TIP3   OH251153   4.277   1.973  12.970  0.5781 -0.5798 -0.6694
 9913TIP3    H151154   4.266   1.902  12.907  2.1685 -0.0890 -1.5502
 9913TIP3    H251155   4.224   2.044  12.936  1.5361 -0.2707 -1.5678
 9914TIP3   OH251156   5.745   4.638   1.651 -0.1065  0.3485  0.0692
 9914TIP3    H151157   5.676   4.591   1.697 -0.5182 -0.1715 -1.0471
 9914TIP3    H251158   5.715   4.729   1.648  0.9431  0.8890  2.7191
 9915TIP3   OH251159   6.271   5.269   1.394  0.4592 -0.2517  0.7077
 9915TIP3    H151160   6.313   5.338   1.343 -1.6441  0.4057 -0.2401
 9915TIP3    H251161   6.213   5.315   1.455 -0.6469 -1.1265  0.3662
 9916TIP3   OH251162   0.673   0.335  12.304  0.3427 -0.5870 -0.5597
 9916TIP3    H151163   0.644   0.392  12.233 -0.6561  0.6476  0.7813
 9916TIP3    H251164   0.755   0.374  12.334 -0.2322  0.0582  0.2183
 9917TIP3   OH251165   6.431   6.341   1.638  0.2322  0.1039  0.3258
 9917TIP3    H151166   6.467   6.421   1.601  0.7453  0.5552  1.7363
 9917TIP3    H251167   6.361   6.316   1.578  0.0882  1.5863 -0.1688
 9918TIP3   OH251168   5.668   6.698   5.893 -0.5951 -0.0541  0.4598
 9918TIP3    H151169   5.587   6.743   5.915  0.4431  1.8617  0.5802
 9918TIP3    H251170   5.698   6.661   5.977 -0.6935  0.3538  0.6782
 9919TIP3   OH251171   6.269   0.130  14.753 -0.1095  0.0160  0.1600
 9919TIP3    H151172   6.181   0.167  14.747 -1.7314 -3.4642 -0.5144
 9919TIP3    H251173   6.264   0.071  14.829  1.3841 -0.7689 -0.3106
 9920TIP3   OH251174   2.395   2.344  11.251 -0.2637 -0.0020  0.5496
 9920TIP3    H151175   2.477   2.325  11.206 -0.1254  0.4460  0.6033
 9920TIP3    H251176   2.343   2.393  11.187 -0.0733  0.6221  0.8653
 9921TIP3   OH251177   4.971   4.931   2.036 -0.4318  0.1630 -0.2434
 9921TIP3    H151178   4.884   4.904   2.066 -0.7342  1.5632  0.2139
 9921TIP3    H251179   4.963   5.026   2.024  1.0297  0.2970 -0.2298
 9922TIP3   OH251180   2.256   4.483   1.195 -0.0419  0.0929  0.5649
 9922TIP3    H151181   2.167   4.482   1.161  0.3334  1.6847 -0.5841
 9922TIP3    H251182   2.260   4.560   1.251  0.6820  0.1839  0.4026
 9923TIP3   OH251183   2.332   6.407  13.890 -0.1755 -0.2912  0.1491
 9923TIP3    H151184   2.238   6.389  13.892 -0.1407 -0.4333  0.5266
 9923TIP3    H251185   2.344   6.466  13.815 -0.3834 -1.2884 -0.6958
 9924TIP3   OH251186   1.787   6.131  12.101 -0.4981 -0.0941 -0.4613
 9924TIP3    H151187   1.877   6.146  12.132 -0.1978  0.2606 -1.4678
 9924TIP3    H251188   1.732   6.164  12.172  0.1462 -1.1735  0.5848
 9925TIP3   OH251189   6.687   0.966  16.658 -0.3163  0.1391 -0.1305
 9925TIP3    H151190   6.709   0.878  16.627 -1.3378 -0.0574 -0.3357
 9925TIP3    H251191   6.715   1.025  16.588 -3.5573 -0.3731 -2.0585
 9926TIP3   OH251192   6.685   2.770   2.615 -0.2225  0.3762  0.3748
 9926TIP3    H151193   6.762   2.745   2.564 -1.5990 -0.6057 -1.3612
 9926TIP3    H251194   6.614   2.719   2.576 -2.1201  2.6705  0.6451
 9927TIP3   OH251195   2.013   3.082   4.629  0.2239  0.0992 -0.1003
 9927TIP3    H151196   1.956   3.010   4.656  1.2825 -1.6534 -2.1741
 9927TIP3    H251197   1.988   3.155   4.685 -0.8968 -1.8692  2.1677
 9928TIP3   OH251198   1.827   3.848   4.790  0.3529  0.3139 -0.3833
 9928TIP3    H151199   1.754   3.907   4.771 -0.7479 -1.4125 -1.8382
 9928TIP3    H251200   1.903   3.890   4.751 -0.3286  0.9464 -1.0619
 9929TIP3   OH251201   0.128   3.592  15.077 -0.3480 -0.5479 -0.2475
 9929TIP3    H151202   0.041   3.558  15.101  0.0170 -0.4274  1.3789
 9929TIP3    H251203   0.171   3.519  15.033 -0.4404 -1.4113  1.0434
 9930TIP3   OH251204   0.027   5.283   5.324 -0.5797  0.3940  0.3715
 9930TIP3    H151205  -0.061   5.319   5.340 -0.8188 -0.4378  1.0168
 9930TIP3    H251206   0.048   5.236   5.405  0.0624 -0.2223 -0.1446
 9931TIP3   OH251207   6.371   2.340   4.996 -0.4670 -0.2498 -0.2193
 9931TIP3    H151208   6.361   2.409   5.061  1.2088  0.2478 -0.4424
 9931TIP3    H251209   6.402   2.264   5.046 -2.8975 -1.1281  0.1322
 9932TIP3   OH251210   4.884   5.770  14.394 -0.6236  0.0780  0.0486
 9932TIP3    H151211   4.802   5.816  14.376 -0.2878  0.7223  0.1290
 9932TIP3    H251212   4.922   5.755  14.308 -0.4035  0.5748  0.0563
 9933TIP3   OH251213   6.112   0.691   2.457  0.0693 -0.0588 -0.0311
 9933TIP3    H151214   6.079   0.738   2.380 -0.4844  0.0112  0.2469
 9933TIP3    H251215   6.195   0.732   2.476  0.0429  0.1629 -0.3792
 9934TIP3   OH251216   1.419   5.452  11.194  0.1014  0.3283 -0.8024
 9934TIP3    H151217   1.510   5.451  11.164  0.1804  0.1408 -0.5601
 9934TIP3    H251218   1.400   5.361  11.216 -0.6161  0.0872 -2.2704
 9935TIP3   OH251219   2.112   2.003   3.471  0.0980  0.5677  0.1095
 9935TIP3    H151220   2.143   2.013   3.382  0.5900  0.5735  0.2822
 9935TIP3    H251221   2.090   2.093   3.498 -0.6031  0.4972 -0.1998
 9936TIP3   OH251222   3.730   5.328  13.360  0.5039 -0.4484  0.2029
 9936TIP3    H151223   3.727   5.247  13.309  2.6706  0.2563 -1.1488
 9936TIP3    H251224   3.681   5.391  13.308  1.9555  0.0341 -0.6337
 9937TIP3   OH251225   0.952   0.625  14.366  0.1648 -0.3713 -0.2922
 9937TIP3    H151226   1.047   0.624  14.361  0.2075  0.4325  0.2348
 9937TIP3    H251227   0.926   0.708  14.326 -0.3014 -0.4753 -0.2188
 9938TIP3   OH251228   6.584   4.593  16.370  0.7180 -0.4421 -0.2366
 9938TIP3    H151229   6.590   4.671  16.426 -4.1281 -1.0957  1.7221
 9938TIP3    H251230   6.634   4.526  16.416  1.1374  0.3484  0.4902
 9939TIP3   OH251231   2.101   0.090  15.287 -0.0695 -0.2350  0.2566
 9939TIP3    H151232   2.022   0.048  15.252  0.5844 -1.5829  0.3520
 9939TIP3    H251233   2.168   0.076  15.221  0.4447 -0.3046  0.7822
 9940TIP3   OH251234   2.717   0.646   0.839  0.1614 -0.3267  0.0435
 9940TIP3    H151235   2.678   0.660   0.753 -0.9942  0.2837  0.6384
 9940TIP3    H251236   2.812   0.649   0.824 -0.0006 -1.1609 -1.3397
 9941TIP3   OH251237   3.959   6.357  15.813  0.6368 -0.0458 -0.5747
 9941TIP3    H151238   3.915   6.440  15.797  0.5548 -0.1492 -0.8946
 9941TIP3    H251239   3.941   6.304  15.735  1.3313 -0.0868 -0.7173
 9942TIP3   OH251240   6.414   2.833   6.284  0.1016  0.3035  0.2647
 9942TIP3    H151241   6.352   2.803   6.350  3.4333 -1.5565  2.8705
 9942TIP3    H251242   6.475   2.889   6.332  2.0994 -0.3002 -1.4213
 9943TIP3   OH251243   3.462   0.932   5.853  0.1656 -0.1051 -0.3764
 9943TIP3    H151244   3.501   0.973   5.931 -3.4728  1.4479  0.8476
 9943TIP3    H251245   3.434   0.846   5.883  1.2009 -0.6221 -0.8329
 9944TIP3   OH251246   2.198   3.654  13.805  0.5940 -0.7405 -0.5237
 9944TIP3    H151247   2.273   3.702  13.840  1.0046 -1.5563 -0.2588
 9944TIP3    H251248   2.157   3.715  13.744  1.0605 -0.0305 -0.1379
 9945TIP3   OH251249   4.005   5.781   5.420 -0.1482  0.2193  0.1506
 9945TIP3    H151250   3.928   5.812   5.371 -1.4485 -1.3378  1.1011
 9945TIP3    H251251   4.015   5.690   5.392  0.9296  0.2037  0.5679
 9946TIP3   OH251252   4.273   2.720  11.337 -0.1650  1.1315 -0.2760
 9946TIP3    H151253   4.283   2.715  11.242 -2.5687  3.0976 -0.7375
 9946TIP3    H251254   4.178   2.713  11.352  0.2512 -0.7928  2.1590
 9947TIP3   OH251255   4.512   6.186  14.636 -0.2552 -0.1199  0.4225
 9947TIP3    H151256   4.519   6.097  14.669 -2.2185 -1.5828 -2.6750
 9947TIP3    H251257   4.427   6.217  14.668  0.0774  0.3700  0.8495
 9948TIP3   OH251258   1.638   1.955   2.846  0.4768 -0.2658 -0.3965
 9948TIP3    H151259   1.704   1.998   2.791 -0.1683 -0.2723 -1.1769
 9948TIP3    H251260   1.689   1.912   2.915  1.1491  2.4545  0.9656
 9949TIP3   OH251261   4.931   6.795  13.555  0.4602  0.1206 -0.1541
 9949TIP3    H151262   4.994   6.867  13.562  1.8271 -1.1592  1.5535
 9949TIP3    H251263   4.851   6.836  13.522  1.5444  2.1945 -0.3372
 9950TIP3   OH251264   0.077   3.859   2.827 -0.1732  0.2240 -0.1248
 9950TIP3    H151265   0.129   3.932   2.860  0.0506 -0.6841  1.6234
 9950TIP3    H251266   0.115   3.781   2.868 -1.1001 -0.7789 -1.0786
 9951TIP3   OH251267   2.184   5.123   3.003 -0.2070  0.3671 -0.4790
 9951TIP3    H151268   2.115   5.065   2.971  0.9319  0.7275 -4.0328
 9951TIP3    H251269   2.140   5.206   3.022 -1.0171  0.0367 -0.8747
 9952TIP3   OH251270   3.803   4.237   3.930 -0.2782 -0.5502 -0.1159
 9952TIP3    H151271   3.829   4.329   3.936  0.2177 -0.6358 -0.8062
 9952TIP3    H251272   3.871   4.197   3.876 -0.7058 -1.2407 -0.1512
 9953TIP3   OH251273   5.641   5.792  14.327  0.4830 -0.0084  0.2269
 9953TIP3    H151274   5.735   5.797  14.344  0.6071 -0.5689 -0.2619
 9953TIP3    H251275   5.601   5.804  14.413  0.9249  2.0304  0.2029
 9954TIP3   OH251276   0.376   3.455  10.883  0.5808  0.0749  0.6268
 9954TIP3    H151277   0.404   3.364  10.869  0.8492  0.4162 -1.1661
 9954TIP3    H251278   0.327   3.451  10.965 -0.3647 -1.9108  0.0416
 9955TIP3   OH251279   4.179   4.382  11.839  0.1319 -0.5917  0.3190
 9955TIP3    H151280   4.147   4.466  11.806  0.4062  0.1702  1.9117
 9955TIP3    H251281   4.103   4.325  11.835 -0.5930  0.2877  1.0329
 9956TIP3   OH251282   6.635   2.576   1.481  0.1401 -0.3541 -0.3034
 9956TIP3    H151283   6.692   2.502   1.504  1.2373  0.5886  0.1458
 9956TIP3    H251284   6.557   2.564   1.536  1.8408  0.7420  2.5857
 9957TIP3   OH251285   1.934   5.250  15.105 -0.3256  0.2656 -0.2264
 9957TIP3    H151286   1.967   5.160  15.106  0.4112  0.5091  1.6155
 9957TIP3    H251287   2.010   5.304  15.126 -1.2890  1.0720  1.3941
 9958TIP3   OH251288   5.638   3.879   6.440 -0.3414 -0.0391 -0.2382
 9958TIP3    H151289   5.702   3.852   6.506 -0.4513  0.6020  0.1302
 9958TIP3    H251290   5.645   3.811   6.372 -0.5333 -0.9440  0.6150
 9959TIP3   OH251291   5.207   1.881  11.295 -0.0564  0.2137 -0.2986
 9959TIP3    H151292   5.258   1.810  11.257  0.1008 -0.1013  0.4866
 9959TIP3    H251293   5.242   1.961  11.254 -1.0632 -0.2276 -2.1219
 9960TIP3   OH251294   6.617   1.310  12.164 -0.5660  0.7356  0.0890
 9960TIP3    H151295   6.595   1.275  12.077  2.8751 -2.3572  0.1751
 9960TIP3    H251296   6.576   1.249  12.225  1.2061 -0.2004  0.4061
 9961TIP3   OH251297   2.922   3.035   0.917 -0.0521  0.2981  0.1625
 9961TIP3    H151298   2.975   2.955   0.913 -1.2885 -0.6828  1.9008
 9961TIP3    H251299   2.985   3.106   0.921  1.1578 -0.7891  1.3718
 9962TIP3   OH251300   4.859   0.565  14.949  0.6087 -0.1540  0.4307
 9962TIP3    H151301   4.798   0.516  15.005  2.9577 -1.7077  1.8278
 9962TIP3    H251302   4.930   0.590  15.008  1.5847  1.1637 -1.2193
 9963TIP3   OH251303   0.380   6.158  16.400  0.2251  0.2233 -0.0081
 9963TIP3    H151304   0.332   6.241  16.404  2.6589  1.9211 -2.3044
 9963TIP3    H251305   0.446   6.165  16.470 -0.1639 -0.2224  0.4092
 9964TIP3   OH251306   4.417   3.789   3.704  0.3458  0.1524  0.2720
 9964TIP3    H151307   4.390   3.762   3.616  0.7265 -0.3252  0.2991
 9964TIP3    H251308   4.469   3.716   3.737  2.0530  1.2233  0.0553
 9965TIP3   OH251309   5.727   2.900   4.478  0.9123  0.7184 -0.0219
 9965TIP3    H151310   5.753   2.913   4.569  0.2581 -0.0131  0.2779
 9965TIP3    H251311   5.650   2.843   4.482  1.4141 -0.0738 -1.0779
 9966TIP3   OH251312   5.307   0.789  16.574 -0.1151  0.4354  0.2843
 9966TIP3    H151313   5.227   0.736  16.565  0.0170  0.3006 -0.0898
 9966TIP3    H251314   5.281   0.876  16.544 -0.1052  0.3760  0.1016
 9967TIP3   OH251315   2.399   6.446   0.008 -0.1467 -0.0213 -0.2833
 9967TIP3    H151316   2.487   6.474   0.033  0.0699 -1.1786  0.3402
 9967TIP3    H251317   2.346   6.466   0.085 -0.0683 -0.8853  0.0131
 9968TIP3   OH251318   1.986   4.226   1.054 -0.7854  0.2450 -0.1092
 9968TIP3    H151319   1.955   4.139   1.082  0.6479 -0.5092 -0.7408
 9968TIP3    H251320   1.918   4.286   1.083 -1.6722 -1.0571  0.6278
 9969TIP3   OH251321   4.645   2.954   2.846 -0.7125  0.2611  0.7996
 9969TIP3    H151322   4.656   3.049   2.842 -0.4567  0.1937 -0.1765
 9969TIP3    H251323   4.562   2.937   2.803 -0.4679 -0.0108  0.4312
 9970TIP3   OH251324   5.275   3.475  11.225 -0.3228 -0.3674 -0.0954
 9970TIP3    H151325   5.219   3.550  11.245  0.9526  0.5318  0.2629
 9970TIP3    H251326   5.269   3.465  11.130 -0.4999  0.1934 -0.1480
 9971TIP3   OH251327   4.015   5.398   1.139  0.9151 -0.0029  0.6711
 9971TIP3    H151328   4.041   5.315   1.180  0.2813  0.2353  1.5962
 9971TIP3    H251329   3.955   5.437   1.202  0.3016  0.6225 -0.2834
 9972TIP3   OH251330   2.752   4.083  14.921  0.1078 -0.3915 -0.4146
 9972TIP3    H151331   2.672   4.082  14.869 -0.5131  0.7861  0.4709
 9972TIP3    H251332   2.724   4.109  15.008  1.4433 -0.0891 -0.0480
 9973TIP3   OH251333   0.476   5.462  14.856 -0.3674 -0.8862  0.1651
 9973TIP3    H151334   0.551   5.412  14.888  1.2513  0.9186 -0.5726
 9973TIP3    H251335   0.456   5.423  14.771 -0.2451 -1.3931  0.3703
 9974TIP3   OH251336   4.950   4.633   4.654  0.7985  0.0538 -1.3887
 9974TIP3    H151337   4.872   4.689   4.653 -0.9597 -2.0341  1.6973
 9974TIP3    H251338   5.018   4.686   4.696 -0.5255  0.2815  0.5654
 9975TIP3   OH251339   1.435   1.201  11.904 -0.3472  0.4773  0.2802
 9975TIP3    H151340   1.525   1.169  11.898 -1.2617 -2.3336 -0.0087
 9975TIP3    H251341   1.414   1.194  11.997 -0.9394 -1.1848  0.0702
 9976TIP3   OH251342   1.582   0.202  10.369  0.0508  0.3779 -0.1468
 9976TIP3    H151343   1.566   0.147  10.446 -1.8558  1.5318  0.3298
 9976TIP3    H251344   1.496   0.235  10.345  0.6597  0.3447 -2.5937
 9977TIP3   OH251345   0.522   1.253  12.150 -0.1142  0.3911  0.6771
 9977TIP3    H151346   0.470   1.186  12.195 -0.1786 -0.0822 -0.0842
 9977TIP3    H251347   0.515   1.230  12.057 -0.2305  1.5231  0.3944
 9978TIP3   OH251348   6.523   6.537  10.361  0.2419 -0.4160  0.9731
 9978TIP3    H151349   6.541   6.449  10.330 -2.2567 -0.7541  0.2251
 9978TIP3    H251350   6.448   6.527  10.420  1.0117  1.0146  2.2672
 9979TIP3   OH251351   3.035   2.266   2.627  0.1588  0.1481  0.2150
 9979TIP3    H151352   3.042   2.346   2.575  2.8916 -0.1629 -0.0462
 9979TIP3    H251353   3.120   2.223   2.616 -0.4454 -1.6955  2.1145
 9980TIP3   OH251354   1.477   0.446  15.124  0.0816 -0.0787  0.5195
 9980TIP3    H151355   1.528   0.505  15.069 -0.9221 -1.4468 -2.1201
 9980TIP3    H251356   1.406   0.500  15.159 -0.1026  0.5717 -0.7996
 9981TIP3   OH251357   6.783   6.326   0.601 -0.2480  0.4487 -0.1298
 9981TIP3    H151358   6.733   6.394   0.647  0.8012  1.5239 -0.5253
 9981TIP3    H251359   6.854   6.373   0.558  0.8881 -0.9801  0.0885
 9982TIP3   OH251360   4.371   2.607   1.512  0.5235  0.8343 -0.1474
 9982TIP3    H151361   4.342   2.640   1.597  1.8721  1.3136  0.1570
 9982TIP3    H251362   4.309   2.642   1.449  0.1078  1.3261  0.5271
 9983TIP3   OH251363   6.144   2.534   4.753 -0.2345  0.4127  0.4388
 9983TIP3    H151364   6.205   2.594   4.796  0.1961  0.3839 -0.1128
 9983TIP3    H251365   6.191   2.504   4.675 -1.0500  0.5776 -0.1327
 9984TIP3   OH251366   3.491   4.479   2.384 -0.3930 -0.0810 -0.0383
 9984TIP3    H151367   3.551   4.512   2.316  1.3072 -2.1384  0.3609
 9984TIP3    H251368   3.488   4.550   2.449 -0.7854  1.2636 -1.4634
 9985TIP3   OH251369   4.243   6.628   3.686  0.0313  0.2241  0.0669
 9985TIP3    H151370   4.324   6.646   3.734 -0.9198  2.0242  1.1183
 9985TIP3    H251371   4.247   6.686   3.609 -0.1182  0.1015 -0.0349
 9986TIP3   OH251372   4.957   2.990  10.894  0.0741 -0.0756  0.1344
 9986TIP3    H151373   4.867   3.011  10.920 -0.5007  0.0551 -1.8009
 9986TIP3    H251374   4.969   2.898  10.921 -1.3053 -0.6812 -1.1789
 9987TIP3   OH251375   4.104   4.157   6.177 -0.0013 -0.1947 -0.1930
 9987TIP3    H151376   4.031   4.107   6.140 -0.4419  0.7554 -0.6570
 9987TIP3    H251377   4.062   4.229   6.224  0.6377  0.2989 -0.3682
 9988TIP3   OH251378   0.588   4.439  10.364  0.4026  0.7665  0.2795
 9988TIP3    H151379   0.671   4.426  10.411  0.5362  1.1745  0.1637
 9988TIP3    H251380   0.521   4.436  10.433  0.4320 -0.3118  0.2831
 9989TIP3   OH251381   0.631   2.808   5.393  0.2453 -0.2881  0.0199
 9989TIP3    H151382   0.631   2.825   5.487 -1.0741 -1.0295  0.1866
 9989TIP3    H251383   0.699   2.742   5.380  0.3304 -0.2932  0.4782
 9990TIP3   OH251384   2.044   6.012  14.751  0.2681 -0.4502 -0.1199
 9990TIP3    H151385   2.002   6.037  14.668 -0.5037 -1.9571 -0.2288
 9990TIP3    H251386   2.009   6.074  14.815 -0.5995 -0.4268 -0.5929
 9991TIP3   OH251387   0.471   4.897  16.191  0.1828 -0.2820  0.0411
 9991TIP3    H151388   0.417   4.824  16.162  0.3044 -1.0759  1.6858
 9991TIP3    H251389   0.458   4.964  16.124 -2.2075 -0.7237 -0.0271
 9992TIP3   OH251390   0.374   0.642  14.128  0.3767 -0.3461 -0.1584
 9992TIP3    H151391   0.447   0.700  14.146  0.4435 -0.1786 -0.9377
 9992TIP3    H251392   0.305   0.670  14.188 -0.5791  2.3801 -2.3643
 9993TIP3   OH251393   4.457   2.985  16.879 -0.0759  0.2392 -0.3899
 9993TIP3    H151394   4.505   2.905  16.901 -0.7000 -0.3618 -1.1713
 9993TIP3    H251395   4.501   3.020  16.802 -1.6928 -1.0830 -1.9924
 9994TIP3   OH251396   1.930   3.044   0.261  0.1489 -0.1404  0.3133
 9994TIP3    H151397   1.888   3.082   0.338  1.4329  2.1501 -0.0404
 9994TIP3    H251398   2.023   3.060   0.273  0.5858 -1.6424 -0.7481
 9995TIP3   OH251399   0.172   3.304   4.948  0.8330  0.5816  0.5254
 9995TIP3    H151400   0.088   3.351   4.946  0.9691  0.7977 -0.6282
 9995TIP3    H251401   0.164   3.245   5.023  0.0371  1.2992  1.0302
 9996TIP3   OH251402   4.485   5.610   5.128  0.0394  0.0010 -0.1610
 9996TIP3    H151403   4.499   5.591   5.221  1.1155  0.5372 -0.1961
 9996TIP3    H251404   4.475   5.525   5.087 -0.9604 -0.2246  0.5092
 9997TIP3   OH251405   2.017   1.739  11.651 -0.3941 -0.0147 -0.3072
 9997TIP3    H151406   2.074   1.811  11.676 -0.9946  0.8983 -1.4671
 9997TIP3    H251407   1.937   1.781  11.619 -1.9322 -1.2483  1.6389
 9998TIP3   OH251408   2.566   1.274  14.559 -0.5851 -0.7106 -0.2473
 9998TIP3    H151409   2.602   1.329  14.489 -1.1879 -0.5136 -0.4141
 9998TIP3    H251410   2.609   1.305  14.639  0.9742 -1.6968 -0.6573
 9999TIP3   OH251411   1.871   5.233   1.811 -0.0894  0.4850 -0.2187
 9999TIP3    H151412   1.848   5.174   1.882 -2.4722  1.1110 -0.3943
 9999TIP3    H251413   1.859   5.182   1.731 -1.6168  0.9925 -0.3425
10000TIP3   OH251414   0.753   3.693   5.642 -0.1311  0.4159  0.0690
10000TIP3    H151415   0.841   3.670   5.673  0.2222 -0.6130 -1.5816
10000TIP3    H251416   0.768   3.756   5.572 -0.8265  1.4211  0.7938
10001TIP3   OH251417   0.832   1.750   1.728  0.4399  0.8354 -0.0945
10001TIP3    H151418   0.912   1.770   1.776 -0.0460  1.2913  0.5411
10001TIP3    H251419   0.849   1.665   1.688  1.1649  0.8355  0.1989
10002TIP3   OH251420   3.946   4.515  12.018  0.0609  0.1292  0.0174
10002TIP3    H151421   3.932   4.576  11.946  0.3210 -0.6389 -0.7019
10002TIP3    H251422   4.039   4.523  12.039  0.0074  0.2782  0.1970
10003TIP3   OH251423   0.478   4.185  15.809 -0.2414  0.1654 -0.1966
10003TIP3    H151424   0.397   4.161  15.763  0.3814 -1.5569 -0.4583
10003TIP3    H251425   0.451   4.198  15.900 -0.6204 -1.8691  0.0238
10004TIP3   OH251426   2.176   3.330   5.132  0.1682 -0.7972  0.0518
10004TIP3    H151427   2.225   3.410   5.117  0.1304 -0.6347  0.7491
10004TIP3    H251428   2.167   3.290   5.045 -1.5324  0.9204 -0.6233
10005TIP3   OH251429   5.523   5.179  13.520 -0.3145  0.2401 -0.2834
10005TIP3    H151430   5.469   5.225  13.456  1.1210  0.7889 -1.1491
10005TIP3    H251431   5.526   5.089  13.489 -0.5048  0.2699 -0.3886
10006TIP3   OH251432   5.959   6.814  11.989 -0.4444 -0.0267  0.5011
10006TIP3    H151433   5.899   6.842  11.920 -0.2797 -0.3155  0.2347
10006TIP3    H251434   6.014   6.748  11.947 -0.2315 -0.0841  0.8645
10007TIP3   OH251435   1.578   0.466  12.008 -0.0128  0.0114  0.0234
10007TIP3    H151436   1.508   0.532  12.005  1.1449  1.2622 -0.7673
10007TIP3    H251437   1.584   0.433  11.919  0.3674 -0.1245  0.0978
10008TIP3   OH251438   1.203   0.979  10.772  0.2403 -0.1930 -0.3600
10008TIP3    H151439   1.276   1.022  10.817  0.7190 -1.0438 -0.2912
10008TIP3    H251440   1.246   0.914  10.715 -0.4775 -0.9797 -0.0287
10009TIP3   OH251441   4.242   6.367  12.740  0.1253  0.5368 -0.3554
10009TIP3    H151442   4.217   6.370  12.648  0.2771  0.8035 -0.3896
10009TIP3    H251443   4.296   6.445  12.753 -0.4158  0.8491  0.1108
10010TIP3   OH251444   1.508   5.772   5.431 -0.4938  0.2167 -0.3117
10010TIP3    H151445   1.554   5.855   5.423 -1.2439  0.7060  0.2489
10010TIP3    H251446   1.429   5.783   5.378 -1.1043  0.2520  0.5792
10011TIP3   OH251447   2.617   1.802   0.203  0.6002 -0.1058  0.0405
10011TIP3    H151448   2.651   1.716   0.177  0.7659 -0.0146 -0.0487
10011TIP3    H251449   2.562   1.829   0.129 -0.5018 -0.7071  0.6231
10012TIP3   OH251450   3.875   1.667  15.440  0.1406 -0.0110 -0.4327
10012TIP3    H151451   3.963   1.634  15.419  0.4823  0.0568  0.8022
10012TIP3    H251452   3.831   1.593  15.480 -0.4435 -0.0919 -1.1985
10013TIP3   OH251453   0.939   2.101  13.812  0.0099  0.3353  0.1206
10013TIP3    H151454   0.891   2.041  13.869 -0.9847  1.0393  0.0590
10013TIP3    H251455   1.031   2.086  13.833 -0.0950 -2.2900 -0.9927
10014TIP3   OH251456   5.431   6.203  12.474 -0.1952  0.7166 -1.1273
10014TIP3    H151457   5.511   6.185  12.524  0.0833  1.5893 -1.2465
10014TIP3    H251458   5.448   6.164  12.388 -0.3613 -0.0966 -0.8006
10015TIP3   OH251459   2.581   4.699  12.649 -0.5907  0.4564 -0.3127
10015TIP3    H151460   2.652   4.759  12.626 -0.8673  0.7731 -0.3376
10015TIP3    H251461   2.571   4.643  12.572 -0.4391  0.4786 -0.3494
10016TIP3   OH251462   1.487   2.605  16.764 -0.2106 -0.0945  0.1438
10016TIP3    H151463   1.545   2.599  16.688  0.9201  2.6713  0.6513
10016TIP3    H251464   1.399   2.611  16.727  0.3271  1.2368 -0.9987
10017TIP3   OH251465   6.015   2.294   4.172  0.2652  0.0299 -0.0363
10017TIP3    H151466   6.043   2.366   4.229  0.0861 -0.8339  1.1843
10017TIP3    H251467   6.005   2.219   4.231 -0.9779 -0.6351 -1.0405
10018TIP3   OH251468   0.626   3.487   4.411 -0.0629 -0.3919  0.0511
10018TIP3    H151469   0.534   3.460   4.402 -0.1437 -0.2642  0.4847
10018TIP3    H251470   0.639   3.495   4.505  0.5958 -1.0894  0.0265
10019TIP3   OH251471   5.012   1.552  16.578  0.4642  0.1291 -0.0778
10019TIP3    H151472   5.073   1.585  16.644  0.1353  0.0584  0.2611
10019TIP3    H251473   4.926   1.557  16.619  0.3900 -1.0686 -0.0404
10020TIP3   OH251474   2.508   6.730   6.142  0.0405 -0.1578  0.2781
10020TIP3    H151475   2.414   6.724   6.156 -0.0756 -0.0764 -0.4557
10020TIP3    H251476   2.531   6.818   6.171 -0.3330  0.3001 -0.7750
10021TIP3   OH251477   2.792   1.655  12.470  0.4342  0.1354 -0.1451
10021TIP3    H151478   2.796   1.660  12.374  1.9521  0.0014 -0.1060
10021TIP3    H251479   2.700   1.638  12.488 -0.4158  2.6704 -1.4594
10022TIP3   OH251480   3.129   4.585  14.572  0.3054  0.0612 -0.0128
10022TIP3    H151481   3.200   4.570  14.634 -1.4297  0.7244  2.2753
10022TIP3    H251482   3.155   4.663  14.524  1.4667 -0.1740  0.2079
10023TIP3   OH251483   4.710   4.013  14.977  1.2761  0.0377 -0.2912
10023TIP3    H151484   4.734   4.031  15.067  2.6351  1.1956 -0.8530
10023TIP3    H251485   4.776   4.057  14.924  0.5705 -0.6798 -1.8688
10024TIP3   OH251486   6.113   1.189  12.565 -0.5689  0.2858 -0.4696
10024TIP3    H151487   6.131   1.181  12.659  1.1963 -0.9687 -0.8781
10024TIP3    H251488   6.186   1.145  12.522 -2.1034 -0.5331 -2.4125
10025TIP3   OH251489   2.699   5.208   0.742 -0.7950  0.0860 -0.4127
10025TIP3    H151490   2.687   5.299   0.717 -0.7790  0.3542  0.5167
10025TIP3    H251491   2.645   5.197   0.821 -0.6733 -0.6646 -0.4217
10026TIP3   OH251492   1.941   3.357   3.571 -0.5698 -0.0613  0.8390
10026TIP3    H151493   1.979   3.422   3.630  0.3060  1.7503 -1.5516
10026TIP3    H251494   1.985   3.275   3.594  1.2112  0.9914  1.3767
10027TIP3   OH251495   2.679   3.975  11.789  0.8386  0.4847  0.1134
10027TIP3    H151496   2.635   3.896  11.758 -0.5311  0.7462  1.2506
10027TIP3    H251497   2.641   3.990  11.876  1.4524  2.1015  0.1308
10028TIP3   OH251498   5.824   0.445   4.609  0.2751  0.5436  0.1358
10028TIP3    H151499   5.905   0.496   4.608  0.6825 -0.1021 -0.0424
10028TIP3    H251500   5.836   0.381   4.679 -0.9623  1.8213  1.6206
10029TIP3   OH251501   2.161   3.979  11.843 -0.8599 -0.6111  0.6554
10029TIP3    H151502   2.236   3.921  11.859  0.9259  0.5221 -2.6313
10029TIP3    H251503   2.159   4.036  11.919  1.0833 -1.2475  1.2482
10030TIP3   OH251504   6.209   6.124   5.134 -0.2210  0.2315 -0.0720
10030TIP3    H151505   6.192   6.218   5.127 -0.4596  0.2008  0.0505
10030TIP3    H251506   6.132   6.090   5.180 -0.2039 -0.0449 -0.2458
10031TIP3   OH251507   1.956   5.466   1.464  0.4407  0.0911  0.2463
10031TIP3    H151508   1.871   5.422   1.461  1.1044 -1.3853  1.4761
10031TIP3    H251509   1.971   5.481   1.558  0.4095  2.7251 -0.0869
10032TIP3   OH251510   2.871   0.943   1.489 -0.0773 -0.1106  0.0529
10032TIP3    H151511   2.780   0.928   1.464  0.3005 -0.5640 -1.1043
10032TIP3    H251512   2.873   1.035   1.519 -0.7598  0.1299 -0.6108
10033TIP3   OH251513   0.411   0.262   1.363 -0.3289 -0.4558  0.2858
10033TIP3    H151514   0.376   0.268   1.452 -0.6587 -1.0485  0.1992
10033TIP3    H251515   0.344   0.215   1.314 -0.5765  0.6980 -0.5157
10034TIP3   OH251516   5.217   2.735   3.066 -0.4230 -0.5108 -0.1457
10034TIP3    H151517   5.264   2.765   2.988  0.1705 -0.3116  0.2738
10034TIP3    H251518   5.240   2.800   3.133 -0.1049 -1.2381  0.4603
10035TIP3   OH251519   1.460   5.712   5.991  0.7372 -0.2547 -0.0499
10035TIP3    H151520   1.454   5.803   5.961  1.0869 -1.0242 -2.7306
10035TIP3    H251521   1.545   5.682   5.960  0.2491 -1.7540 -0.0118
10036TIP3   OH251522   1.452   2.970  15.395 -0.8315 -0.2722 -0.5000
10036TIP3    H151523   1.517   2.899  15.393 -0.1192  0.3245  0.4620
10036TIP3    H251524   1.441   2.995  15.303  1.4493  0.6069 -0.5957
10037TIP3   OH251525   1.705   1.746  15.582 -0.0925  0.3519 -0.2495
10037TIP3    H151526   1.738   1.715  15.498 -0.2697  0.4039 -0.3372
10037TIP3    H251527   1.715   1.841  15.579  2.1318  0.1970  0.7192
10038TIP3   OH251528   5.688   5.451  14.254  0.2432  0.0667 -0.1419
10038TIP3    H151529   5.780   5.430  14.236  0.4104  0.4045  0.3101
10038TIP3    H251530   5.640   5.409  14.182  0.8241  0.6273 -0.8747
10039TIP3   OH251531   6.467   5.483   0.203  0.3469 -0.3975 -0.2795
10039TIP3    H151532   6.556   5.451   0.213  0.4003 -0.1668 -0.0064
10039TIP3    H251533   6.430   5.431   0.131 -0.3527 -2.8164  1.6783
10040TIP3   OH251534   2.791   3.250  12.141  0.3049 -0.4120  0.1925
10040TIP3    H151535   2.710   3.222  12.099 -0.5561 -2.3233  2.8353
10040TIP3    H251536   2.784   3.345  12.148 -0.7182 -0.3320 -1.4130
10041TIP3   OH251537   1.852   6.522  16.746  0.1425  0.4272 -0.0008
10041TIP3    H151538   1.826   6.588  16.810 -2.4668 -1.5828  1.1427
10041TIP3    H251539   1.770   6.487  16.712  1.3752 -2.6533 -0.1095
10042TIP3   OH251540   3.650   1.706  11.530  0.1852 -0.5458  0.2950
10042TIP3    H151541   3.709   1.733  11.601 -1.5512 -0.8798  1.9382
10042TIP3    H251542   3.574   1.668  11.575 -1.6136  0.5023 -1.7089
10043TIP3   OH251543   0.412   2.027   4.946 -0.1185  0.4441  0.4241
10043TIP3    H151544   0.317   2.030   4.957 -0.2438  0.1107 -0.5140
10043TIP3    H251545   0.439   2.118   4.937 -0.2823  0.5736  1.1666
10044TIP3   OH251546   4.901   1.638   1.777  0.0168  0.3708  0.6215
10044TIP3    H151547   4.822   1.592   1.805  0.3465 -0.4123  0.3160
10044TIP3    H251548   4.925   1.595   1.694  0.0183  1.4839  0.0357
10045TIP3   OH251549   5.538   6.336   0.700 -0.3538  0.4081 -0.2125
10045TIP3    H151550   5.601   6.402   0.729 -0.0868  0.2257 -0.3815
10045TIP3    H251551   5.530   6.350   0.606 -1.7863  1.4917  0.0355
10046TIP3   OH251552   5.205   5.291  12.056 -0.0203  0.5167 -0.4406
10046TIP3    H151553   5.243   5.222  12.111  1.8888  2.7327  1.2419
10046TIP3    H251554   5.274   5.311  11.993 -0.9169  0.2679 -1.5128
10047TIP3   OH251555   3.136   5.067   2.048  0.5300  0.6508  0.1200
10047TIP3    H151556   3.199   5.135   2.023  0.2669  0.7223 -0.3520
10047TIP3    H251557   3.052   5.112   2.054  0.1264  0.1613 -1.3819
10048TIP3   OH251558   2.764   3.023   0.536  0.0216 -0.2161  0.2579
10048TIP3    H151559   2.792   3.052   0.623 -0.0757  0.0848  0.1877
10048TIP3    H251560   2.788   3.094   0.477 -1.8102  0.5448  0.3425
10049TIP3   OH251561   6.185   1.393   3.514  0.8098  0.0317 -0.5571
10049TIP3    H151562   6.269   1.388   3.559  0.6786 -2.3351 -0.4667
10049TIP3    H251563   6.120   1.402   3.584  0.7918 -1.1859 -0.3974
10050TIP3   OH251564   1.316   0.369   2.103  0.6194 -0.3095 -0.0697
10050TIP3    H151565   1.382   0.419   2.055  1.0497  1.1756  1.9173
10050TIP3    H251566   1.242   0.363   2.044  2.5853 -2.4202 -2.5921
10051TIP3   OH251567   0.327   0.648  11.000  0.2669  0.1916 -0.0563
10051TIP3    H151568   0.284   0.567  11.030 -0.1268  0.1782 -0.6498
10051TIP3    H251569   0.358   0.627  10.912 -0.5225  0.9325 -0.5203
10052TIP3   OH251570   6.052   4.673  13.443  0.2599  0.1382 -1.0424
10052TIP3    H151571   6.012   4.708  13.363 -0.6718  1.1269 -0.1741
10052TIP3    H251572   6.041   4.578  13.435  1.4528  0.0807 -2.7214
10053TIP3   OH251573   1.058   5.174  11.624 -0.0640 -0.0997  0.2021
10053TIP3    H151574   1.153   5.183  11.632  0.0440 -0.3893 -0.6079
10053TIP3    H251575   1.047   5.104  11.560 -0.8248  0.1260  0.0825
10054TIP3   OH251576   3.708   1.847   4.396 -0.3672 -0.3750  0.1465
10054TIP3    H151577   3.759   1.787   4.342 -0.6423 -0.8505  0.4071
10054TIP3    H251578   3.658   1.790   4.454 -0.5086  0.1139  0.5104
10055TIP3   OH251579   4.151   5.950   0.987  0.2315  0.2061 -0.4277
10055TIP3    H151580   4.162   5.873   1.043  0.5053  0.4307 -0.1651
10055TIP3    H251581   4.187   6.022   1.039 -0.4749  0.5969 -0.4730
10056TIP3   OH251582   1.832   2.363  15.214 -0.0874  0.5516 -0.1797
10056TIP3    H151583   1.882   2.395  15.290  0.5346 -0.9494  0.0653
10056TIP3    H251584   1.884   2.291  15.179 -1.2976 -0.0032 -0.8989
10057TIP3   OH251585   3.677   5.557  11.643 -0.1650  0.4444  0.7057
10057TIP3    H151586   3.743   5.488  11.645  1.7757  2.2438  1.4495
10057TIP3    H251587   3.659   5.571  11.550 -1.7421 -2.0331  0.5503
10058TIP3   OH251588   1.436   2.482  10.964 -0.3213  0.2763 -0.4315
10058TIP3    H151589   1.394   2.432  10.894 -0.3050  0.3098 -0.4657
10058TIP3    H251590   1.369   2.489  11.032 -0.0623 -0.4641 -0.0916
10059TIP3   OH251591   5.473   4.510  14.931  0.1375 -0.0882  0.1569
10059TIP3    H151592   5.472   4.606  14.936  1.0188  0.0025 -0.9258
10059TIP3    H251593   5.566   4.488  14.929 -0.0606 -0.8876 -0.7146
10060TIP3   OH251594   5.256   0.168  11.682 -0.3899 -0.3189 -0.5030
10060TIP3    H151595   5.231   0.211  11.764  1.8197  0.4288 -0.1381
10060TIP3    H251596   5.180   0.115  11.659 -0.8382 -1.1948  2.4635
10061TIP3   OH251597   4.541   1.841   0.720  1.0910 -0.1684  0.2256
10061TIP3    H151598   4.530   1.771   0.784 -1.0979 -0.8910 -0.8247
10061TIP3    H251599   4.452   1.875   0.706  2.1472  3.5710  1.4347
10062TIP3   OH251600   2.698   1.785  14.440  0.2340  0.3794  0.6903
10062TIP3    H151601   2.763   1.718  14.462 -1.9723 -2.1236  0.0374
10062TIP3    H251602   2.691   1.839  14.519  2.1677 -0.0221  1.1928
10063TIP3   OH251603   1.667   3.669  16.013  0.1677  0.5899 -0.1579
10063TIP3    H151604   1.615   3.735  15.967 -1.5946 -1.5785 -1.4946
10063TIP3    H251605   1.740   3.651  15.954  0.5539  1.1901  0.1290
10064TIP3   OH251606   1.504   0.645   1.432  0.4972  0.0404  0.3663
10064TIP3    H151607   1.550   0.678   1.355  0.8281 -1.4512 -0.1104
10064TIP3    H251608   1.440   0.713   1.452  2.3373  1.8056  0.5609
10065TIP3   OH251609   3.600   5.343  15.503 -0.3681 -0.0185 -0.5635
10065TIP3    H151610   3.689   5.377  15.514  0.3261 -1.1891 -2.0782
10065TIP3    H251611   3.595   5.270  15.564 -0.5718  0.5058  0.0593
10066TIP3   OH251612   4.801   6.018  15.415  0.0515 -0.2463 -0.7357
10066TIP3    H151613   4.798   6.106  15.452  2.0002 -0.3924 -0.1076
10066TIP3    H251614   4.714   5.982  15.431  0.6964 -0.3756  4.0250
10067TIP3   OH251615   6.210   6.728   0.021  0.1388 -0.0995  0.1650
10067TIP3    H151616   6.245   6.639   0.024 -0.5527 -0.3640  0.5858
10067TIP3    H251617   6.201   6.753   0.112 -0.6724  0.0003  0.0636
10068TIP3   OH251618   6.087   1.819   6.352 -0.5845 -0.4206 -0.2979
10068TIP3    H151619   6.171   1.776   6.334 -0.1012 -0.2784  1.3717
10068TIP3    H251620   6.070   1.873   6.275  1.4821  0.4869 -0.1895
10069TIP3   OH251621   5.964   4.468  11.047  0.2683  0.5692  0.5295
10069TIP3    H151622   5.948   4.499  11.136  0.3183 -2.5194  1.7239
10069TIP3    H251623   6.059   4.459  11.042  0.1461 -1.2042  0.9322
10070TIP3   OH251624   3.847   5.793  16.456 -0.0811 -0.5402 -0.7144
10070TIP3    H151625   3.916   5.837  16.407  0.2168  0.3874  0.4994
10070TIP3    H251626   3.884   5.779  16.543 -1.0511 -0.9850 -0.3523
10071TIP3   OH251627   6.149   4.663  14.074  0.0712  0.4939  0.2740
10071TIP3    H151628   6.054   4.667  14.063 -0.0114 -0.9078  0.3693
10071TIP3    H251629   6.176   4.755  14.079 -1.3375  0.9106  0.7718
10072TIP3   OH251630   3.194   0.489   2.107 -0.2625  0.1672 -0.0077
10072TIP3    H151631   3.115   0.456   2.149  1.3913 -2.8647  1.0157
10072TIP3    H251632   3.185   0.462   2.015 -0.2843 -0.4728  0.1774
10073TIP3   OH251633   5.734   1.178  15.876 -0.2093  0.5050  0.4585
10073TIP3    H151634   5.753   1.092  15.912  0.7080  0.1633 -0.7955
10073TIP3    H251635   5.730   1.235  15.953 -2.3561 -0.8712  1.4590
10074TIP3   OH251636   1.712   5.257  13.872  0.2261  0.1542 -0.2393
10074TIP3    H151637   1.687   5.256  13.964  2.0249 -1.0547  0.2977
10074TIP3    H251638   1.725   5.349  13.851 -1.2329  0.5172  0.3962
10075TIP3   OH251639   5.242   5.696   2.917  0.0906 -0.8441 -0.1040
10075TIP3    H151640   5.260   5.620   2.862  0.0558 -1.9772  1.3872
10075TIP3    H251641   5.214   5.764   2.856 -1.0160 -2.3751 -1.3805
10076TIP3   OH251642   0.929   6.156   2.458  0.6496  0.0821  0.1420
10076TIP3    H151643   0.877   6.084   2.422 -1.0159  1.1488  0.2476
10076TIP3    H251644   0.863   6.221   2.485  1.9541  0.5046  2.5856
10077TIP3   OH251645   0.555   4.131  14.271  0.5946  0.8520  0.7298
10077TIP3    H151646   0.527   4.051  14.317  0.4040  1.1224  1.0964
10077TIP3    H251647   0.647   4.141  14.294  0.1746  1.7401  2.2319
10078TIP3   OH251648   2.273   5.899   4.377  0.1024  0.2752  0.1617
10078TIP3    H151649   2.185   5.913   4.412  0.2067 -1.2443  1.1377
10078TIP3    H251650   2.271   5.936   4.289 -1.1197  1.4169  0.6489
10079TIP3   OH251651   3.472   3.432  16.293  0.5933  0.1930  0.0549
10079TIP3    H151652   3.467   3.524  16.266 -1.4815  0.3395  0.7356
10079TIP3    H251653   3.493   3.435  16.386 -3.4128  0.2770  1.1291
10080TIP3   OH251654   0.667   6.238  10.250  0.2917 -0.0281  0.1212
10080TIP3    H151655   0.707   6.321  10.222  0.0776 -0.3293 -1.1176
10080TIP3    H251656   0.731   6.172  10.224  1.3184 -0.1730  2.7234
10081TIP3   OH251657   4.995   3.777  11.043 -0.3766  0.4198 -0.1109
10081TIP3    H151658   4.911   3.820  11.063 -0.6730 -0.8623  1.6976
10081TIP3    H251659   5.060   3.830  11.089 -0.4671  0.2194  0.2539
10082TIP3   OH251660   5.092   4.952   2.779  0.3403 -0.6606  0.7015
10082TIP3    H151661   5.155   4.950   2.707  0.5223 -1.0536  0.8665
10082TIP3    H251662   5.061   5.042   2.782  1.2450 -0.3489  0.9203
10083TIP3   OH251663   2.230   5.961   4.115  0.2390 -0.1880  0.3830
10083TIP3    H151664   2.134   5.952   4.117  0.1646  0.5561  0.2719
10083TIP3    H251665   2.251   5.977   4.023  0.5935 -1.5315  0.2088
10084TIP3   OH251666   2.907   3.798   5.684  0.0250 -0.3102 -0.3208
10084TIP3    H151667   2.999   3.776   5.690 -0.1134 -0.5543  1.2999
10084TIP3    H251668   2.864   3.740   5.747 -1.6031 -2.0091 -2.8140
10085TIP3   OH251669   3.069   4.424  10.807  0.1279  0.1078 -0.3241
10085TIP3    H151670   3.013   4.485  10.853 -0.6307 -1.4290  0.8810
10085TIP3    H251671   3.071   4.456  10.716 -2.0359  0.6526 -0.2190
10086TIP3   OH251672   4.744   0.963   2.568 -0.2904  0.0145 -0.2039
10086TIP3    H151673   4.729   1.057   2.577  0.5280  0.0322  1.5684
10086TIP3    H251674   4.830   0.956   2.527  0.1159  0.0773  0.6116
10087TIP3   OH251675   5.926   6.183  12.672 -0.2492 -0.5887  0.0392
10087TIP3    H151676   5.998   6.246  12.681 -2.0924  1.4888  1.1277
10087TIP3    H251677   5.934   6.151  12.582  1.6909 -0.0275 -0.0352
10088TIP3   OH251678   2.643   5.155  12.184 -0.8569 -0.7033 -0.0525
10088TIP3    H151679   2.603   5.134  12.268 -2.0936 -2.2849 -0.9737
10088TIP3    H251680   2.638   5.250  12.178 -3.4065 -0.7312  0.4625
10089TIP3   OH251681   2.458   2.720   2.946 -0.2022 -0.4271  0.1987
10089TIP3    H151682   2.472   2.712   2.852 -0.7898  1.4860 -0.1077
10089TIP3    H251683   2.535   2.767   2.978 -1.3355  1.5970  0.1167
10090TIP3   OH251684   2.233   1.751   3.147 -0.0248 -0.0910  0.2916
10090TIP3    H151685   2.319   1.780   3.116 -0.9392  0.5203 -1.8884
10090TIP3    H251686   2.234   1.656   3.135  0.3607 -0.0906  0.3041
10091TIP3   OH251687   2.578   0.234  15.455 -0.0220 -0.2525  0.1824
10091TIP3    H151688   2.545   0.228  15.366  2.4543  0.8062 -0.9326
10091TIP3    H251689   2.560   0.324  15.481  3.2239  0.9455 -1.1476
10092TIP3   OH251690   6.771   2.868  15.571  0.0737  0.1032 -0.3842
10092TIP3    H151691   6.715   2.895  15.643  1.7431  2.7900  0.0297
10092TIP3    H251692   6.712   2.862  15.496 -1.2746 -0.3341  0.6801
10093TIP3   OH251693   4.840   6.143  10.895  0.0623 -0.4226 -0.4971
10093TIP3    H151694   4.839   6.110  10.805  1.8088  0.6013 -0.9333
10093TIP3    H251695   4.933   6.149  10.917 -0.2857  1.2811  0.6534
10094TIP3   OH251696   2.856   1.412   0.889  0.3559 -0.3668  0.0388
10094TIP3    H151697   2.792   1.344   0.910  0.5746 -0.8892 -0.9530
10094TIP3    H251698   2.933   1.364   0.858  0.1782  0.3548 -1.6051
10095TIP3   OH251699   1.985   1.249   4.587 -0.4150 -0.3616 -0.2511
10095TIP3    H151700   1.942   1.321   4.634 -1.1161  0.6458 -2.2941
10095TIP3    H251701   1.959   1.171   4.635 -3.0088  0.3993 -0.2370
10096TIP3   OH251702   5.643   1.547  16.637 -0.0118  0.3513  0.0886
10096TIP3    H151703   5.548   1.549  16.651  0.3500 -0.7603  3.7216
10096TIP3    H251704   5.680   1.596  16.710  2.2807  0.4265 -1.0184
10097TIP3   OH251705   0.201   1.592  11.805 -0.4370 -0.9206 -0.6496
10097TIP3    H151706   0.165   1.628  11.886 -0.2750 -2.3939  0.1070
10097TIP3    H251707   0.241   1.667  11.761  0.1279 -0.2099  0.9881
10098TIP3   OH251708   2.510   2.054   2.671  0.0377 -0.4086  0.0166
10098TIP3    H151709   2.504   2.149   2.677  0.5123 -0.4408  1.2055
10098TIP3    H251710   2.454   2.031   2.596 -0.5302  0.7464  0.0681
10099TIP3   OH251711   4.871   1.401   4.580  0.3951  0.6595 -0.0902
10099TIP3    H151712   4.924   1.477   4.556  1.1162  0.1097 -0.2395
10099TIP3    H251713   4.875   1.344   4.503 -3.0885  2.0037 -1.5028
10100TIP3   OH251714   0.864   5.655  11.504  1.0487 -0.8684  0.1644
10100TIP3    H151715   0.805   5.633  11.432 -0.5483 -0.7247  1.3630
10100TIP3    H251716   0.863   5.751  11.506 -0.6778 -0.8641  1.6873
10101TIP3   OH251717   0.521   2.263  12.894 -0.4233 -0.5898 -0.7443
10101TIP3    H151718   0.598   2.295  12.940 -0.1701  0.2933 -1.7339
10101TIP3    H251719   0.449   2.275  12.956 -0.3343  1.9145 -1.0216
10102TIP3   OH251720   2.701   0.785   4.265  0.3559 -0.0370  0.5412
10102TIP3    H151721   2.750   0.864   4.288  1.5637 -1.0470  1.5752
10102TIP3    H251722   2.643   0.769   4.340 -0.0241 -0.0353  0.2522
10103TIP3   OH251723   3.547   1.578  15.308 -0.1101 -0.5249 -0.0680
10103TIP3    H151724   3.519   1.638  15.377 -1.5146 -0.5130 -0.6063
10103TIP3    H251725   3.642   1.587  15.305 -0.1910  0.8020  0.6418
10104TIP3   OH251726   5.801   3.459  13.210 -0.2186 -0.1624  0.7603
10104TIP3    H151727   5.860   3.388  13.239 -0.5688 -0.8446 -0.1423
10104TIP3    H251728   5.840   3.538  13.246  4.0547  0.1536 -3.5278
10105TIP3   OH251729   1.954   0.391   2.532  0.3939 -0.7291  0.5416
10105TIP3    H151730   2.025   0.408   2.470 -1.3152  1.4319 -0.9911
10105TIP3    H251731   1.915   0.309   2.503  1.0376 -0.9201  0.1939
10106TIP3   OH251732   2.438   3.390  12.531 -0.0966  0.5361 -0.3987
10106TIP3    H151733   2.437   3.340  12.450  0.0491  0.6168 -0.4505
10106TIP3    H251734   2.429   3.324  12.600  1.1668  0.3276 -0.4133
10107TIP3   OH251735   6.497   5.969   1.991  0.3016 -0.1914  0.7087
10107TIP3    H151736   6.429   5.906   1.967  1.4312 -1.8221  1.5835
10107TIP3    H251737   6.501   6.029   1.916 -0.8819 -1.0892 -0.1213
10108TIP3   OH251738   5.014   5.971  12.458 -0.3855  0.2892  0.6699
10108TIP3    H151739   5.051   6.024  12.529 -0.5549  1.7696 -0.3106
10108TIP3    H251740   5.049   5.883  12.474  0.2343  0.7593  2.1127
10109TIP3   OH251741   5.055   4.762   4.343 -0.4100 -1.1350  0.3785
10109TIP3    H151742   5.026   4.834   4.288 -1.2710 -0.7412  1.3236
10109TIP3    H251743   5.061   4.800   4.431  3.1713 -1.1020  0.2909
10110TIP3   OH251744   3.013   4.443   3.572  0.1958 -0.0490 -0.3935
10110TIP3    H151745   2.989   4.444   3.665 -0.4488  0.2616 -0.5560
10110TIP3    H251746   3.105   4.468   3.571 -0.2091  1.6175  0.0628
10111TIP3   OH251747   2.199   5.532  13.745  0.1728 -1.0558  0.2129
10111TIP3    H151748   2.267   5.585  13.786 -1.1852  1.1860 -0.2206
10111TIP3    H251749   2.198   5.562  13.654 -0.4792 -2.0587 -0.1302
10112TIP3   OH251750   6.221   1.012   0.065 -0.0792  0.0910  0.3358
10112TIP3    H151751   6.163   1.022   0.141  0.9792 -1.2308  1.3923
10112TIP3    H251752   6.301   1.059   0.090  0.0674  0.1371 -0.2121
10113TIP3   OH251753   2.431   5.837   0.910 -0.2088 -0.2477  0.4676
10113TIP3    H151754   2.477   5.810   0.831 -1.2802 -0.6387 -0.0432
10113TIP3    H251755   2.499   5.877   0.966  0.2354  1.8953 -1.4529
10114TIP3   OH251756   3.205   1.197  11.536 -0.2024 -0.1854 -0.1813
10114TIP3    H151757   3.283   1.253  11.525  0.0264 -0.6655 -1.0296
10114TIP3    H251758   3.196   1.189  11.631  0.8396 -0.1977 -0.0694
10115TIP3   OH251759   2.748   5.399   2.198 -0.1426  0.2259  0.2049
10115TIP3    H151760   2.796   5.452   2.135  0.3196 -1.2923 -0.7796
10115TIP3    H251761   2.688   5.347   2.144  1.3845 -2.3037  0.7840
10116TIP3   OH251762   4.739   3.549  12.033  1.0063 -0.2068 -0.3459
10116TIP3    H151763   4.819   3.497  12.021  1.6831  0.5805  0.6516
10116TIP3    H251764   4.769   3.635  12.061 -0.2249 -0.3168  1.5029
10117TIP3   OH251765   1.504   5.018   1.587 -0.2143 -0.7258  0.0549
10117TIP3    H151766   1.414   5.038   1.559  0.0863 -1.2313 -1.3290
10117TIP3    H251767   1.555   5.093   1.557 -0.0220 -0.8762  0.0084
10118TIP3   OH251768   2.756   3.603   6.270 -0.2885  0.5035  0.3960
10118TIP3    H151769   2.763   3.642   6.357  1.1967  2.1147 -0.3943
10118TIP3    H251770   2.846   3.579   6.247 -0.6107  0.4088 -0.8463
10119TIP3   OH251771   2.142   1.050   0.039 -0.8048 -0.3298  0.3401
10119TIP3    H151772   2.129   1.095  -0.044 -0.4763 -2.6149 -1.0524
10119TIP3    H251773   2.112   1.112   0.105  1.8693  2.8752 -1.1614
10120TIP3   OH251774   1.130   4.102   1.982 -0.2324 -0.9192 -0.2663
10120TIP3    H151775   1.120   4.050   1.902 -1.7011 -0.4400 -0.4099
10120TIP3    H251776   1.206   4.157   1.964 -1.6597  0.5472 -2.1313
10121TIP3   OH251777   2.504   2.651   2.656 -1.3257  0.4082 -0.4094
10121TIP3    H151778   2.575   2.629   2.595 -1.1006 -0.5444  0.1849
10121TIP3    H251779   2.487   2.744   2.639 -0.5922  0.4136 -1.2273
10122TIP3   OH251780   0.202   4.227  11.571  0.1300  0.2329 -0.1129
10122TIP3    H151781   0.134   4.160  11.581  0.6740 -0.0265  2.4859
10122TIP3    H251782   0.280   4.178  11.543  0.4361 -0.2448  1.4550
10123TIP3   OH251783   2.238   6.230   1.773 -0.1032  0.1314 -0.3533
10123TIP3    H151784   2.219   6.323   1.768 -0.4756  0.0520 -0.4322
10123TIP3    H251785   2.156   6.190   1.803 -0.2513 -0.2786 -1.2699
10124TIP3   OH251786   0.963   2.414   3.159  0.9032  0.2487  0.3080
10124TIP3    H151787   0.984   2.363   3.237  3.9381 -1.7743 -1.6253
10124TIP3    H251788   1.040   2.470   3.145  1.1817 -0.5679 -1.9812
10125TIP3   OH251789   4.909   6.720  13.034 -0.0144  0.3373  0.1664
10125TIP3    H151790   4.836   6.674  13.076 -0.6284  0.7116 -0.4770
10125TIP3    H251791   4.880   6.811  13.026  0.0045  0.2445 -1.2324
10126TIP3   OH251792   0.194   0.243  13.091 -0.5102  0.6526 -0.4896
10126TIP3    H151793   0.147   0.210  13.015  2.2148  1.8058 -2.8792
10126TIP3    H251794   0.274   0.190  13.094 -0.4224  0.8364  1.4108
10127TIP3   OH251795   6.791   0.096   3.743  0.2261 -0.1708 -0.7135
10127TIP3    H151796   6.706   0.140   3.757  0.0283 -0.7131 -0.1799
10127TIP3    H251797   6.851   0.142   3.802  0.1469 -0.2503 -0.5711
10128TIP3   OH251798   1.973   3.114  11.447  0.3572  0.4113 -0.7262
10128TIP3    H151799   2.043   3.086  11.507 -0.0159  1.8626  0.4384
10128TIP3    H251800   2.014   3.115  11.361  1.6932  0.9138 -0.1145
10129TIP3   OH251801   4.367   0.045   2.249 -0.2175 -0.1510 -0.5625
10129TIP3    H151802   4.357   0.113   2.182 -0.1414 -0.3366 -0.7610
10129TIP3    H251803   4.319   0.080   2.325 -0.2029  0.1118 -0.6718
10130TIP3   OH251804   2.849   0.166   1.188 -0.3019 -0.1069 -0.3500
10130TIP3    H151805   2.801   0.203   1.262 -0.0050  1.3151 -0.8332
10130TIP3    H251806   2.890   0.087   1.223 -0.6240  0.2355  0.8509
10131TIP3   OH251807   1.075   4.419  12.571 -0.6091  0.5892 -0.5081
10131TIP3    H151808   1.125   4.417  12.489 -0.2139  0.2310 -0.2652
10131TIP3    H251809   1.043   4.329  12.581  0.0631  0.4108  0.1584
10132TIP3   OH251810   0.151   1.208   2.533 -0.6801 -0.8092 -0.3862
10132TIP3    H151811   0.102   1.222   2.451 -2.2400  1.7208  0.8625
10132TIP3    H251812   0.243   1.213   2.507 -1.1288  1.0665 -1.8622
10133TIP3   OH251813   0.852   5.918   0.672  0.7662  0.0215 -1.2369
10133TIP3    H151814   0.839   5.980   0.600 -0.1086  0.5810 -0.6147
10133TIP3    H251815   0.899   5.845   0.632  1.5742  0.9551 -2.0466
10134TIP3   OH251816   0.581   5.619   2.779  0.0328 -0.0344  0.2777
10134TIP3    H151817   0.616   5.635   2.692  1.8404 -0.9222  0.7909
10134TIP3    H251818   0.630   5.543   2.811 -2.7314 -1.6756  0.9070
10135TIP3   OH251819   5.754   3.670   0.650 -0.0530 -0.0156  0.1811
10135TIP3    H151820   5.718   3.741   0.703 -0.1703  0.7757 -0.9225
10135TIP3    H251821   5.680   3.612   0.634 -0.5626  0.9047 -0.9514
10136TIP3   OH251822   5.584   2.481  14.993 -0.2267  0.4478 -0.2270
10136TIP3    H151823   5.659   2.514  14.943 -0.1064  1.1323  0.3777
10136TIP3    H251824   5.591   2.526  15.078  1.3913 -2.9732  1.6592
10137TIP3   OH251825   5.800   1.123   6.432 -0.0377 -0.7694 -0.3486
10137TIP3    H151826   5.733   1.078   6.381  1.1764 -1.8487 -1.0436
10137TIP3    H251827   5.847   1.176   6.368  0.8733 -1.3825 -0.2092
10138TIP3   OH251828   3.231   3.933   5.201  0.0518 -0.3038 -0.1671
10138TIP3    H151829   3.149   3.893   5.231 -0.8465  2.1795  1.0190
10138TIP3    H251830   3.204   3.994   5.133  1.0721 -0.1801 -0.4749
10139TIP3   OH251831   2.854   0.686  13.199 -0.4002  0.2096  0.3684
10139TIP3    H151832   2.891   0.772  13.181 -0.9045  0.5013  0.6758
10139TIP3    H251833   2.759   0.700  13.195 -0.5055 -0.7841 -1.6567
10140TIP3   OH251834   4.272   3.832   0.361  0.0230 -0.6786 -0.1997
10140TIP3    H151835   4.352   3.878   0.384 -0.8902  0.3376  1.1032
10140TIP3    H251836   4.225   3.891   0.303 -1.0710  0.0384  1.3376
10141TIP3   OH251837   2.082   1.345  16.348 -0.2022 -0.4776  0.3098
10141TIP3    H151838   2.013   1.293  16.308  0.1308 -0.1906 -0.6585
10141TIP3    H251839   2.150   1.351  16.281  0.7283 -0.6707  1.2036
10142TIP3   OH251840   3.391   0.139   3.638 -0.3314 -0.7649 -0.3453
10142TIP3    H151841   3.325   0.200   3.673 -1.3971 -0.8793 -2.0208
10142TIP3    H251842   3.471   0.160   3.686 -1.4432 -0.2474  1.3927
10143TIP3   OH251843   5.817   3.404  12.669 -0.0444  0.1147  0.0921
10143TIP3    H151844   5.877   3.435  12.601  0.8407  0.6515  1.0875
10143TIP3    H251845   5.817   3.474  12.734 -1.5594  0.0034  0.2376
10144TIP3   OH251846   1.449   4.100  12.932  0.0398  0.4117 -0.3813
10144TIP3    H151847   1.398   4.052  12.997  1.3489  0.3224  0.6344
10144TIP3    H251848   1.385   4.152  12.884 -1.2957 -1.6075 -0.8644
10145TIP3   OH251849   2.461   4.865  11.064 -0.0611 -0.0064  0.3829
10145TIP3    H151850   2.469   4.773  11.038  0.3433 -0.8976  3.2632
10145TIP3    H251851   2.511   4.912  10.998 -0.8947 -1.7307 -1.6062
10146TIP3   OH251852   3.936   6.374  10.990 -0.7010 -0.3919 -0.0885
10146TIP3    H151853   3.954   6.468  10.985 -2.6219  0.2745  3.2024
10146TIP3    H251854   3.854   6.362  10.943 -1.0081 -0.2268  0.4037
10147TIP3   OH251855   4.398   0.362   6.030  0.0802 -0.4763  0.0655
10147TIP3    H151856   4.414   0.450   5.996 -0.3959 -1.2116 -2.1977
10147TIP3    H251857   4.313   0.368   6.074  1.1188  0.7053  2.0831
10148TIP3   OH251858   2.529   1.896   1.230 -0.6019 -0.4547 -0.0961
10148TIP3    H151859   2.613   1.875   1.189  1.0411 -0.3993  2.9534
10148TIP3    H251860   2.483   1.812   1.236  0.4292 -0.9718  0.6580
10149TIP3   OH251861   0.949   4.515  16.689 -0.4430 -0.0484  0.0989
10149TIP3    H151862   1.007   4.566  16.745  1.7029 -0.5253 -1.5713
10149TIP3    H251863   0.976   4.424  16.701  0.5740 -0.0992 -2.1830
10150TIP3   OH251864   2.717   2.441   0.038 -0.2564  0.4220 -0.2710
10150TIP3    H151865   2.807   2.433   0.007 -0.6640  0.1409 -1.4624
10150TIP3    H251866   2.725   2.461   0.131  1.0756  2.9997 -0.8661
10151TIP3   OH251867   1.860   3.577   5.470 -0.2526 -0.3762 -0.2939
10151TIP3    H151868   1.927   3.606   5.408 -0.2447 -1.9973 -1.0821
10151TIP3    H251869   1.777   3.605   5.429 -0.1739 -0.1543 -0.3050
10152TIP3   OH251870   0.402   6.417  12.056 -0.3004 -0.2530  0.4018
10152TIP3    H151871   0.337   6.474  12.017 -1.1550 -0.3750  1.5835
10152TIP3    H251872   0.482   6.434  12.007 -0.7498  1.3223  0.1745
10153TIP3   OH251873   0.931   0.154   1.114 -0.6406 -0.0243  0.0405
10153TIP3    H151874   0.874   0.215   1.067 -0.3181 -0.6726 -1.2530
10153TIP3    H251875   1.020   0.185   1.095 -0.5114  0.9241  1.9680
10154TIP3   OH251876   5.825   3.423   6.212 -0.0693 -0.1986 -0.1446
10154TIP3    H151877   5.762   3.351   6.205  0.3206 -0.5672  0.0918
10154TIP3    H251878   5.834   3.455   6.123 -1.6554  0.7805  0.0113
10155TIP3   OH251879   5.905   1.490   5.463  0.1260  0.2777 -0.0716
10155TIP3    H151880   5.978   1.440   5.426 -0.6378  0.5893 -2.1612
10155TIP3    H251881   5.905   1.468   5.556  2.0852 -0.7033 -0.2546
10156TIP3   OH251882   1.049   3.119  10.901 -0.2586  0.5461 -0.1930
10156TIP3    H151883   0.964   3.155  10.926 -0.9719 -0.2054 -1.4170
10156TIP3    H251884   1.054   3.132  10.806 -0.1604 -1.6690 -0.5601
10157TIP3   OH251885   6.304   6.021  14.290  0.5863 -0.5646  0.3246
10157TIP3    H151886   6.389   6.063  14.287  0.6238 -0.6709 -0.3248
10157TIP3    H251887   6.254   6.063  14.220 -0.6671  1.1135  2.1514
10158TIP3   OH251888   0.716   2.831   5.641  0.2465  0.3408  0.5812
10158TIP3    H151889   0.718   2.864   5.731 -0.2343 -0.4268  0.8851
10158TIP3    H251890   0.808   2.825   5.615  0.3582  2.6064  0.2384
10159TIP3   OH251891   3.487   3.621  13.513  0.2208 -0.1791 -0.0789
10159TIP3    H151892   3.444   3.706  13.510 -0.0532 -0.3227 -0.2696
10159TIP3    H251893   3.548   3.622  13.440 -1.4881 -1.0412 -1.6015
10160TIP3   OH251894   6.065   3.593   1.037 -0.0411  0.0162  0.3144
10160TIP3    H151895   6.116   3.662   1.079 -0.3312 -0.0619  0.8123
10160TIP3    H251896   6.037   3.537   1.110  0.6357 -0.9299 -0.1390
10161TIP3   OH251897   3.184   2.264  14.605 -0.0825  0.7050 -0.6375
10161TIP3    H151898   3.209   2.353  14.629  2.9550  0.1924 -1.4769
10161TIP3    H251899   3.166   2.220  14.688 -0.7984  1.8683 -0.1583
10162TIP3   OH251900   2.902   3.130  14.545  0.3263 -0.1603 -0.4733
10162TIP3    H151901   2.973   3.069  14.567 -0.6946 -0.7270  1.4332
10162TIP3    H251902   2.843   3.126  14.620 -0.6669  1.8836 -1.0906
10163TIP3   OH251903   0.124   5.564   4.263 -0.4624  0.2768 -0.1321
10163TIP3    H151904   0.086   5.651   4.254  1.3860  1.1383 -0.0532
10163TIP3    H251905   0.208   5.569   4.217  0.0281 -1.2288  0.5243
10164TIP3   OH251906   4.058   6.275  12.913 -0.5214 -0.2725 -0.5932
10164TIP3    H151907   4.147   6.305  12.897  0.2913 -2.3878 -0.4009
10164TIP3    H251908   4.003   6.349  12.889  1.3205  1.6325  0.7392
10165TIP3   OH251909   2.691   6.403   0.071 -0.2360 -0.4144 -0.4583
10165TIP3    H151910   2.755   6.432   0.006 -1.1079  0.7021 -0.8334
10165TIP3    H251911   2.692   6.307   0.064  0.4451 -0.3583 -1.3589
10166TIP3   OH251912   5.373   1.933   4.740 -0.0360 -0.2194 -0.2599
10166TIP3    H151913   5.467   1.953   4.733  0.2810 -2.0395 -1.9481
10166TIP3    H251914   5.330   2.006   4.696  0.6392  0.2835 -0.1024
10167TIP3   OH251915   1.769   1.843  11.606 -0.6893  0.1410  0.9719
10167TIP3    H151916   1.734   1.899  11.537  0.7853  0.1072  0.1762
10167TIP3    H251917   1.705   1.772  11.614 -0.5882 -0.1876 -0.7780
10168TIP3   OH251918   4.372   4.234  11.994 -0.2452 -0.2576 -0.2927
10168TIP3    H151919   4.321   4.286  11.932 -1.9441 -1.7504 -0.2347
10168TIP3    H251920   4.427   4.297  12.039 -2.3186  1.5396 -0.1219
10169TIP3   OH251921   4.300   0.790   4.207  0.1407  0.3279  0.5833
10169TIP3    H151922   4.262   0.866   4.251 -1.1150 -0.6988  1.3593
10169TIP3    H251923   4.232   0.723   4.212  1.1505 -0.8092 -0.2183
10170TIP3   OH251924   2.614   4.936   0.350  0.0232  0.2201  0.5000
10170TIP3    H151925   2.583   5.016   0.307 -0.1565  0.0075  0.2378
10170TIP3    H251926   2.563   4.930   0.430 -0.5179 -0.0541  0.1383
10171TIP3   OH251927   3.452   0.520   3.502 -0.3206 -0.2148 -0.1576
10171TIP3    H151928   3.475   0.462   3.574 -0.7752 -1.3238 -0.8751
10171TIP3    H251929   3.369   0.560   3.528 -0.2761 -0.2956  0.1087
10172TIP3   OH251930   0.401   0.076  16.896  0.1882  0.0949 -0.3752
10172TIP3    H151931   0.405   0.159  16.944  1.9870  0.1564 -0.5702
10172TIP3    H251932   0.487   0.035  16.911 -0.1372 -1.0631 -1.4700
10173TIP3   OH251933   5.108   3.093   4.920 -0.3056 -0.4849 -0.1835
10173TIP3    H151934   5.149   3.071   4.836 -0.8203 -1.8597 -0.0930
10173TIP3    H251935   5.131   3.021   4.978  1.0517  1.0317  1.2415
10174TIP3   OH251936   6.451   6.811  10.272  0.2001  0.1981 -0.8585
10174TIP3    H151937   6.400   6.733  10.252 -1.0671  0.6990  0.2463
10174TIP3    H251938   6.528   6.805  10.215  0.4269 -2.1238 -0.4075
10175TIP3   OH251939   5.893   3.415   5.734  0.6795 -0.3350 -0.3258
10175TIP3    H151940   5.987   3.413   5.751  0.6942  1.0500 -0.1358
10175TIP3    H251941   5.855   3.449   5.815  0.2370  1.0611 -1.0827
10176TIP3   OH251942   3.241   6.061   3.524 -0.5763  0.8262 -0.2708
10176TIP3    H151943   3.147   6.065   3.506 -0.9647  0.4813  1.5234
10176TIP3    H251944   3.262   6.146   3.562  0.4527  1.9512 -3.0592
10177TIP3   OH251945   1.381   5.219  11.416  0.5052  0.0043 -0.1305
10177TIP3    H151946   1.434   5.142  11.395  2.3601  1.3171 -0.4639
10177TIP3    H251947   1.301   5.207  11.364  0.5803 -1.8546  0.1192
10178TIP3   OH251948   2.049   6.720  13.131 -0.4289 -0.1113  0.1558
10178TIP3    H151949   2.012   6.754  13.049  0.1064 -1.2170 -0.5792
10178TIP3    H251950   2.119   6.781  13.153 -0.6923  0.2932 -0.1143
10179TIP3   OH251951   2.916   0.012   0.074  0.2437 -0.0203 -0.0253
10179TIP3    H151952   2.864   0.013  -0.007 -0.1131  0.2583  0.2054
10179TIP3    H251953   2.894   0.094   0.118  1.4135  0.4361 -0.2519
10180TIP3   OH251954   4.759   4.978  12.494 -0.0213  0.5535  0.3372
10180TIP3    H151955   4.822   5.039  12.456  1.7642 -0.9002  0.8649
10180TIP3    H251956   4.727   4.928  12.419  2.1715 -1.1022  0.4182
10181TIP3   OH251957   0.805   2.182  16.981 -1.2023 -0.1125 -0.0655
10181TIP3    H151958   0.742   2.254  16.979 -0.2398  0.7425 -0.7562
10181TIP3    H251959   0.874   2.208  16.919  0.6226 -0.2870  1.7773
10182TIP3   OH251960   5.379   2.548   3.413 -0.1247 -0.1320  0.3375
10182TIP3    H151961   5.402   2.592   3.332 -0.0069 -0.0834  0.3976
10182TIP3    H251962   5.367   2.619   3.476  0.2315 -0.1946  0.4783
10183TIP3   OH251963   2.725   4.534  10.865  0.4028  0.3056 -0.0430
10183TIP3    H151964   2.714   4.450  10.909  2.4801  0.1096  0.2186
10183TIP3    H251965   2.820   4.548  10.864  0.1333  2.4577 -0.4461
10184TIP3   OH251966   2.387   2.484   3.084 -0.7240 -0.2190  0.3850
10184TIP3    H151967   2.440   2.560   3.059 -0.1205  0.0535  2.3007
10184TIP3    H251968   2.446   2.409   3.073 -1.5059 -0.5536 -2.0870
10185TIP3   OH251969   4.872   5.904   6.276  0.5270 -0.2486  0.1589
10185TIP3    H151970   4.835   5.971   6.217  2.5565  0.4374 -0.3965
10185TIP3    H251971   4.831   5.823   6.246  0.9373  0.1926 -1.7478
10186TIP3   OH251972   0.516   5.532   3.693 -0.1317 -0.5343 -0.1253
10186TIP3    H151973   0.591   5.482   3.661  0.9869  1.7019 -1.2747
10186TIP3    H251974   0.546   5.568   3.777 -0.7197 -1.3145  0.4271
10187TIP3   OH251975   2.369   2.921  11.336 -0.1091 -0.5762  0.2936
10187TIP3    H151976   2.446   2.896  11.285 -0.4999 -2.8548  0.7264
10187TIP3    H251977   2.403   2.967  11.412  0.6572  0.2130 -0.4995
10188TIP3   OH251978   1.013   5.297   4.863  0.0415  0.4378 -0.2334
10188TIP3    H151979   0.972   5.254   4.788 -2.0083  2.5574 -0.4715
10188TIP3    H251980   0.987   5.244   4.938 -0.3810 -0.0945 -0.7451
10189TIP3   OH251981   4.001   2.109  15.343 -0.0785  0.8635 -0.1822
10189TIP3    H151982   3.936   2.171  15.376  0.7602  1.9424 -0.4741
10189TIP3    H251983   4.080   2.162  15.329  0.8456 -0.3808  0.0795
10190TIP3   OH251984   5.245   1.342   2.093  0.3363  0.0709  0.3777
10190TIP3    H151985   5.167   1.359   2.040  0.6592  2.2378  0.5014
10190TIP3    H251986   5.267   1.427   2.131  2.6313 -0.5276  0.5348
10191TIP3   OH251987   2.072   0.091  13.734 -0.4367 -0.1718 -0.0652
10191TIP3    H151988   2.140   0.111  13.670  0.2123  1.8626  1.1427
10191TIP3    H251989   2.120   0.080  13.817 -1.4457 -0.2048  0.5359
10192TIP3   OH251990   5.163   4.900  16.287  0.2140 -0.0464 -0.1907
10192TIP3    H151991   5.253   4.870  16.282  0.2289  0.0037 -0.2203
10192TIP3    H251992   5.151   4.924  16.379 -0.0638 -0.9658  0.0183
10193TIP3   OH251993   0.508   5.207   3.408  0.2557 -0.1928 -0.0560
10193TIP3    H151994   0.592   5.163   3.422 -0.1553 -0.8135  0.5010
10193TIP3    H251995   0.479   5.231   3.496  0.2776  0.8392 -0.3226
10194TIP3   OH251996   6.144   1.242  15.909  0.5618 -0.4580 -0.1765
10194TIP3    H151997   6.115   1.333  15.907 -1.2339 -0.9878 -1.6307
10194TIP3    H251998   6.217   1.241  15.971 -1.7390  1.2507  2.8568
10195TIP3   OH251999   3.235   3.685  12.766 -0.2732  0.1534 -0.2019
10195TIP3    H152000   3.288   3.762  12.782 -1.1108  0.3197  2.0294
10195TIP3    H252001   3.293   3.626  12.717  1.1173  1.2685  0.0330
10196TIP3   OH252002   1.565   2.234  15.242 -0.3975  0.2239  0.4864
10196TIP3    H152003   1.562   2.182  15.162  0.7012  0.4964  0.2539
10196TIP3    H252004   1.642   2.290  15.231 -1.2004  1.4603  0.9972
10197TIP3   OH252005   0.478   3.556   1.660 -0.3754 -0.3664 -0.0274
10197TIP3    H152006   0.428   3.484   1.698 -1.2929  0.5910  0.6449
10197TIP3    H252007   0.417   3.598   1.599  0.6590 -1.0898 -1.6169
10198TIP3   OH252008   5.450   4.016   1.446 -0.2765  0.3107  0.3487
10198TIP3    H152009   5.515   4.072   1.489  0.5975 -0.5940  0.2491
10198TIP3    H252010   5.463   4.032   1.352 -0.6903  0.6664  0.3530
10199TIP3   OH252011   6.635   0.841   5.697  0.1175 -0.7408  0.6795
10199TIP3    H152012   6.625   0.750   5.725  1.0642 -1.6095 -1.5965
10199TIP3    H252013   6.631   0.838   5.601  2.7078  1.2368  0.4033
10200TIP3   OH252014   3.426   3.763  10.830  0.0266 -0.2749  0.0706
10200TIP3    H152015   3.446   3.854  10.850 -1.1628 -0.7775  4.5713
10200TIP3    H252016   3.346   3.767  10.778 -0.1225  1.2286  0.3640
10201TIP3   OH252017   3.789   1.925  15.336  0.3881 -0.1433  0.6216
10201TIP3    H152018   3.868   1.977  15.351  0.1286  0.1796  0.8979
10201TIP3    H252019   3.804   1.844  15.384 -0.7282  1.1509  3.3617
10202TIP3   OH252020   5.906   1.434  12.850 -0.1442 -0.0924  0.1903
10202TIP3    H152021   5.870   1.366  12.792  1.2200 -1.4867  0.9004
10202TIP3    H252022   5.973   1.477  12.797  0.2925 -0.5864  0.3277
10203TIP3   OH252023   4.752   5.646  17.022  0.3941 -0.5017 -0.3376
10203TIP3    H152024   4.814   5.684  16.961 -1.2654  0.7265 -1.3625
10203TIP3    H252025   4.724   5.720  17.077  0.1368 -1.1047  0.3647
10204TIP3   OH252026   1.619   4.132  13.645  0.1571  0.0569 -0.0605
10204TIP3    H152027   1.548   4.163  13.701  0.1154  1.6943 -0.9530
10204TIP3    H252028   1.689   4.108  13.706  0.4082  2.5229  0.7546
10205TIP3   OH252029   0.780   4.347   3.108  0.3505  0.2978 -0.4000
10205TIP3    H152030   0.872   4.334   3.086  0.2757  0.8277 -1.0851
10205TIP3    H252031   0.742   4.384   3.028  0.2698  3.3343  0.9069
10206TIP3   OH252032   4.499   0.670  13.988 -0.1823 -0.6824 -0.1837
10206TIP3    H152033   4.564   0.685  14.056  0.0077 -0.6785 -0.3638
10206TIP3    H252034   4.530   0.722  13.913 -2.5127  2.7718  0.9644
10207TIP3   OH252035   3.901   5.751   2.352 -0.6251  0.1560 -0.8634
10207TIP3    H152036   3.985   5.759   2.398 -1.3716 -0.9489  0.8393
10207TIP3    H252037   3.912   5.674   2.297 -0.8438 -0.6878  0.2266
10208TIP3   OH252038   3.779   3.355  12.289  0.5576  0.3087 -0.0946
10208TIP3    H152039   3.687   3.335  12.269  0.3130 -0.9924  2.0124
10208TIP3    H252040   3.781   3.451  12.297 -0.5574  0.3736 -0.4105
10209TIP3   OH252041   5.605   2.635  14.300  0.9459 -0.1030  0.3159
10209TIP3    H152042   5.536   2.652  14.364  0.5286  0.3595 -0.2403
10209TIP3    H252043   5.591   2.701  14.232  0.1647 -1.7661 -1.2290
10210TIP3   OH252044   3.818   5.033   1.889  0.1709  0.2476  0.0945
10210TIP3    H152045   3.759   4.958   1.881 -0.9346  1.1960 -0.8186
10210TIP3    H252046   3.869   5.032   1.808  0.9124 -0.1240  0.5512
10211TIP3   OH252047   5.794   3.203   4.293 -0.2842  0.6367  0.3518
10211TIP3    H152048   5.707   3.163   4.296 -0.6304  1.3652  3.3601
10211TIP3    H252049   5.780   3.294   4.320  1.2015  1.3126 -0.9728
10212TIP3   OH252050   1.139   1.619  16.839  0.3304  0.3994  0.2873
10212TIP3    H152051   1.073   1.677  16.803 -0.6654 -2.1029 -2.3169
10212TIP3    H252052   1.088   1.549  16.882  1.4189  0.3026  1.4853
10213TIP3   OH252053   4.230   2.969  14.319 -0.7874 -0.0686  0.7995
10213TIP3    H152054   4.297   2.921  14.368 -1.1121  0.0925  1.3976
10213TIP3    H252055   4.268   2.979  14.231  0.8518  1.7860  1.6519
10214TIP3   OH252056   1.343   4.571  12.588  0.4689  0.0469 -0.0810
10214TIP3    H152057   1.387   4.581  12.672 -1.1671 -3.3202  1.3668
10214TIP3    H252058   1.250   4.559  12.612  0.0846 -1.8941 -2.2385
10215TIP3   OH252059   4.710   2.053   6.348 -0.3084 -0.3332  0.4496
10215TIP3    H152060   4.793   2.031   6.390 -0.7567 -0.5952  1.2126
10215TIP3    H252061   4.684   1.974   6.301 -0.7803 -0.6956  1.3055
10216TIP3   OH252062   0.553   3.672   3.078 -0.0620  0.3016  0.4857
10216TIP3    H152063   0.613   3.668   3.153  1.2229  0.7422 -0.4917
10216TIP3    H252064   0.478   3.721   3.111 -0.0205 -0.4685  1.8100
10217TIP3   OH252065   4.001   1.073   4.460  0.2404 -0.5283 -0.1538
10217TIP3    H152066   3.931   1.018   4.494  0.3209 -0.8552 -0.5006
10217TIP3    H252067   4.050   1.101   4.537  0.2815 -1.0669  0.0194
10218TIP3   OH252068   5.712   5.273   6.072  0.4884  0.0263 -0.5376
10218TIP3    H152069   5.667   5.339   6.125  0.3397 -0.5852  0.1247
10218TIP3    H252070   5.795   5.258   6.117  0.5444 -0.1950 -0.7109
10219TIP3   OH252071   2.438   0.159  16.140  0.0331 -0.4136 -0.2320
10219TIP3    H152072   2.522   0.198  16.118 -0.1379  0.0648 -0.0684
10219TIP3    H252073   2.399   0.135  16.056  0.3578 -0.6879 -0.3034
10220TIP3   OH252074   0.917   6.254   4.857  0.2438 -0.3442 -0.6284
10220TIP3    H152075   0.887   6.168   4.888 -1.6594  0.1501 -0.9374
10220TIP3    H252076   0.931   6.242   4.763 -1.4252 -0.0301 -0.9624
10221TIP3   OH252077   0.015   1.254   0.799 -0.1445 -0.3004  0.0772
10221TIP3    H152078   0.059   1.169   0.791  2.4920  0.8277  1.3569
10221TIP3    H252079  -0.036   1.246   0.880 -0.3191 -0.8095 -0.0780
10222TIP3   OH252080   2.646   6.424   1.233 -0.0003  0.1605 -0.2563
10222TIP3    H152081   2.614   6.480   1.162 -0.2334 -0.4092 -0.6061
10222TIP3    H252082   2.696   6.356   1.189  1.3511  0.7816  0.2580
10223TIP3   OH252083   5.342   1.036   4.442  0.6935 -0.0080 -0.2694
10223TIP3    H152084   5.346   1.113   4.498 -0.5705 -1.2296  1.6249
10223TIP3    H252085   5.251   1.007   4.448  1.1121 -1.5633 -1.0079
10224TIP3   OH252086   0.120   5.141  13.498 -0.1193  0.2644 -0.2399
10224TIP3    H152087   0.115   5.206  13.568 -1.4589  0.1425 -0.2011
10224TIP3    H252088   0.083   5.185  13.421  2.5416  0.8654 -1.2956
10225TIP3   OH252089   1.945   6.123  14.505  0.2592  0.3793  0.2113
10225TIP3    H152090   1.929   6.150  14.414  0.2321  2.3152  0.7592
10225TIP3    H252091   1.944   6.204  14.555  1.4116 -0.5400  1.8060
10226TIP3   OH252092   6.213   4.362  10.740  0.0966  0.3765 -0.6275
10226TIP3    H152093   6.214   4.454  10.715  0.9169  0.7622  0.7458
10226TIP3    H252094   6.120   4.340  10.745 -0.1119  1.2336 -0.5725
10227TIP3   OH252095   2.084   0.292  17.002  0.2374 -0.0597 -0.1153
10227TIP3    H152096   2.111   0.251  16.919 -0.0123  0.2149 -0.3348
10227TIP3    H252097   2.156   0.353  17.022 -0.2089  0.6825 -0.7088
10228TIP3   OH252098   6.038   5.018  10.761 -0.0477 -0.1574 -0.3702
10228TIP3    H152099   6.099   5.081  10.722  1.8443 -1.7224 -0.0798
10228TIP3    H252100   6.028   4.949  10.695 -0.1699 -0.7468  0.2482
10229TIP3   OH252101   3.580   0.766  12.420  0.1059  0.4322 -0.2841
10229TIP3    H152102   3.498   0.720  12.438  0.6052 -1.1884 -1.8645
10229TIP3    H252103   3.632   0.754  12.500 -0.9625  1.0277  0.5248
10230TIP3   OH252104   3.948   2.238   5.662 -0.3167 -0.5288 -0.3785
10230TIP3    H152105   3.928   2.235   5.755  0.9383  0.4134 -0.0498
10230TIP3    H252106   3.872   2.198   5.620 -1.1688 -0.4318  0.9949
10231TIP3   OH252107   1.730   2.304  17.006 -0.4796  0.4137  0.2200
10231TIP3    H152108   1.825   2.299  17.009 -0.3898  2.1091  2.0994
10231TIP3    H252109   1.710   2.397  17.020 -2.4294 -0.0435  0.7687
10232TIP3   OH252110   2.296   1.896  12.950 -0.5981 -0.7901 -0.1597
10232TIP3    H152111   2.248   1.829  12.998 -2.6136  0.0266 -0.9018
10232TIP3    H252112   2.305   1.968  13.013 -1.3230 -0.5431 -0.3277
10233TIP3   OH252113   5.291   0.216  13.912  0.6275  0.2504  0.4473
10233TIP3    H152114   5.316   0.193  14.001  1.7209  1.2157  0.4189
10233TIP3    H252115   5.235   0.293  13.922 -0.5711 -0.5806  0.3708
10234TIP3   OH252116   2.364   0.266  14.780 -0.5746 -0.3850 -0.6445
10234TIP3    H152117   2.433   0.235  14.839  0.0106 -0.6472 -1.4481
10234TIP3    H252118   2.408   0.277  14.696 -1.7072 -1.4275 -1.4122
10235TIP3   OH252119   2.132   3.831  10.579 -0.1772 -0.6204  0.0018
10235TIP3    H152120   2.075   3.907  10.587  0.8559  0.2047 -0.1690
10235TIP3    H252121   2.200   3.859  10.517  1.5035 -0.8552  1.6443
10236TIP3   OH252122   0.879   3.353   2.089  0.5767  0.4232 -0.2073
10236TIP3    H152123   0.919   3.326   2.006  0.8691 -0.4175  0.1936
10236TIP3    H252124   0.786   3.365   2.068  0.7460  0.7573 -0.7759
10237TIP3   OH252125   6.297   5.813  11.908 -0.5298 -0.4189 -0.1423
10237TIP3    H152126   6.316   5.828  12.001  1.4541 -1.4489 -0.3342
10237TIP3    H252127   6.264   5.723  11.905 -0.3392 -0.4770 -0.4705
10238TIP3   OH252128   1.858   2.324  13.012  0.1383  0.5448 -0.2751
10238TIP3    H152129   1.903   2.377  13.077 -0.3353 -0.5789  1.0295
10238TIP3    H252130   1.794   2.274  13.063 -1.1529  0.5822 -1.7905
10239TIP3   OH252131   6.782   2.408  13.622  0.2681  0.0107  0.1895
10239TIP3    H152132   6.850   2.403  13.690 -0.7784  0.8697  1.3380
10239TIP3    H252133   6.708   2.450  13.665 -1.4758 -1.9950 -0.6696
10240TIP3   OH252134   1.860   1.915   1.606  0.4848 -0.6079  0.0228
10240TIP3    H152135   1.820   1.878   1.685  0.4526 -1.2130 -0.2719
10240TIP3    H252136   1.939   1.862   1.592 -0.0012 -1.1167 -0.8798
10241TIP3   OH252137   5.666   5.262   2.626  0.3214 -0.4199  0.5621
10241TIP3    H152138   5.611   5.333   2.660  0.1891  0.2761 -1.0213
10241TIP3    H252139   5.754   5.282   2.660  0.0142 -0.3534  1.3458
10242TIP3   OH252140   6.248   2.242   5.726 -0.5367  0.8854  0.2201
10242TIP3    H152141   6.337   2.227   5.695  0.1212  1.7344  1.5769
10242TIP3    H252142   6.197   2.257   5.647  0.6428  0.9350 -0.5574
10243TIP3   OH252143   3.006   5.293  14.845  0.1698 -0.0071  0.0426
10243TIP3    H152144   2.922   5.277  14.887 -0.5272  0.7255 -1.0058
10243TIP3    H252145   3.024   5.385  14.861  1.3063 -0.3919  1.1335
10244TIP3   OH252146   0.814   2.213   1.173 -0.2923  0.4359 -0.6198
10244TIP3    H152147   0.726   2.244   1.153 -0.4010  1.7313  1.6333
10244TIP3    H252148   0.859   2.212   1.088 -1.3402  3.4146 -1.3211
10245TIP3   OH252149   3.259   1.571  15.285 -0.5618  0.5718  0.1162
10245TIP3    H152150   3.257   1.665  15.300  0.2815  0.6992 -0.4913
10245TIP3    H252151   3.347   1.553  15.253 -0.7045 -0.4281  0.2264
10246TIP3   OH252152   2.728   1.596   4.381  0.2217 -0.2987  0.3046
10246TIP3    H152153   2.651   1.568   4.430  0.3703  0.1668  0.8093
10246TIP3    H252154   2.695   1.609   4.292 -0.3966  0.3513  0.6154
10247TIP3   OH252155   6.640   2.546  15.456  0.0725  0.4101  0.1959
10247TIP3    H152156   6.644   2.595  15.374  0.3133  0.7932  0.4333
10247TIP3    H252157   6.731   2.531  15.480  0.0238 -1.1704 -0.4602
10248TIP3   OH252158   5.675   6.352  14.252 -0.6940  0.4170 -0.6612
10248TIP3    H152159   5.704   6.261  14.242  1.4023  0.9579  0.1302
10248TIP3    H252160   5.684   6.389  14.164  0.2885  0.3536 -0.5972
10249TIP3   OH252161   3.523   0.809  11.819  0.2958 -0.0079  0.3678
10249TIP3    H152162   3.528   0.835  11.911 -0.3760 -0.9812  0.6976
10249TIP3    H252163   3.536   0.890  11.771 -1.6088  0.9291  1.3353
10250TIP3   OH252164   3.691   0.921   4.488 -0.1849 -0.2680 -0.1849
10250TIP3    H152165   3.752   0.888   4.555 -1.9102 -0.5554  1.3418
10250TIP3    H252166   3.652   0.998   4.528 -2.3668 -1.3006 -0.1672
10251TIP3   OH252167   4.284   0.015   4.763 -0.1804  0.3040  0.6910
10251TIP3    H152168   4.275   0.080   4.832 -0.9804 -1.0560  1.9225
10251TIP3    H252169   4.220   0.042   4.696  0.4907  1.5432  0.5247
10252TIP3   OH252170   5.460   6.783   0.024  0.5634  0.4918 -0.7783
10252TIP3    H152171   5.483   6.865   0.068  1.0294  0.8045 -1.5805
10252TIP3    H252172   5.418   6.730   0.092 -0.1345  1.5557 -0.3470
10253TIP3   OH252173   3.929   1.338  15.287 -0.0378 -0.0067  0.1394
10253TIP3    H152174   4.009   1.363  15.241 -0.7703  1.0547 -0.5764
10253TIP3    H252175   3.933   1.242  15.290  2.2204  0.0609  1.8792
10254TIP3   OH252176   3.975   1.288  12.721 -0.4035 -0.0449  0.3103
10254TIP3    H152177   3.896   1.234  12.726 -1.0764  0.9185  0.2384
10254TIP3    H252178   4.012   1.267  12.635 -1.0531  0.1191 -0.0199
10255TIP3   OH252179   5.240   4.452   2.008 -0.4131  0.1870  0.0299
10255TIP3    H152180   5.270   4.371   1.966 -0.0195  0.5773 -0.4609
10255TIP3    H252181   5.149   4.461   1.979 -0.5295 -0.2003  0.2733
10256TIP3   OH252182   1.841   1.896   5.741 -0.9673 -0.0751  0.3830
10256TIP3    H152183   1.884   1.813   5.760 -1.3348  0.1030  2.2390
10256TIP3    H252184   1.762   1.873   5.693 -0.3901 -0.6663 -0.2983
10257TIP3   OH252185   6.258   2.043   0.255  0.2619 -0.6419 -0.3948
10257TIP3    H152186   6.259   2.129   0.212  2.7440  0.1360  1.0207
10257TIP3    H252187   6.165   2.025   0.269 -0.3285  2.3718  0.2933
10258TIP3   OH252188   5.984   4.503   0.028 -0.5849  0.2221  0.0548
10258TIP3    H152189   5.914   4.458  -0.020 -0.1643 -0.4352  0.0336
10258TIP3    H252190   6.019   4.436   0.087 -1.5024  1.1742  1.7443
10259TIP3   OH252191   5.964   5.705   1.665  1.0575 -0.1465 -0.2028
10259TIP3    H152192   5.979   5.615   1.635  1.7313 -0.1703  0.2046
10259TIP3    H252193   5.993   5.706   1.756  0.1792  0.2492  0.0925
10260TIP3   OH252194   4.626   4.207  16.843 -0.4387  0.1465  0.1538
10260TIP3    H152195   4.650   4.222  16.934  0.0100 -1.4290  0.3312
10260TIP3    H252196   4.530   4.205  16.843 -0.4711 -2.4803  1.1365
10261TIP3   OH252197   2.021   0.655   1.341 -0.0407  0.4621  0.2277
10261TIP3    H152198   1.942   0.692   1.380 -0.6041  0.0187 -0.4569
10261TIP3    H252199   2.045   0.584   1.401  1.4503  2.2813  1.9268
10262TIP3   OH252200   5.049   5.127  10.929  0.1292 -0.6153 -0.1201
10262TIP3    H152201   4.971   5.177  10.907 -0.9860 -2.3104 -0.1580
10262TIP3    H252202   5.082   5.095  10.845 -0.2574 -1.5013  0.0607
10263TIP3   OH252203   6.208   4.892   1.808 -0.4035  0.0444  0.3773
10263TIP3    H152204   6.207   4.943   1.728  0.8682 -0.2211  0.1777
10263TIP3    H252205   6.115   4.879   1.829 -0.7513  0.3666 -0.8763
10264TIP3   OH252206   4.241   1.504  14.090 -0.0980  0.1997 -0.7650
10264TIP3    H152207   4.221   1.557  14.013  1.7480 -0.1985 -1.5688
10264TIP3    H252208   4.286   1.427  14.055  0.1266 -0.3459  0.6525
10265TIP3   OH252209   4.336   2.446  13.824  0.0148 -0.2833 -0.0999
10265TIP3    H152210   4.278   2.490  13.762 -1.2719  0.5652  1.6209
10265TIP3    H252211   4.423   2.481  13.803 -0.3748 -0.0504 -1.4316
10266TIP3   OH252212   2.996   4.446   0.721  0.2910  0.4137 -0.1682
10266TIP3    H152213   2.919   4.445   0.665  0.2912  0.7496 -0.1763
10266TIP3    H252214   2.992   4.530   0.766  0.2244  0.0941  0.4311
10267TIP3   OH252215   0.799   6.396  13.228 -0.1194 -0.0153  0.1323
10267TIP3    H152216   0.806   6.340  13.306  0.1918 -1.0742 -0.6390
10267TIP3    H252217   0.705   6.408  13.217 -0.2325 -0.9645 -0.0744
10268TIP3   OH252218   3.572   5.820  11.879 -0.1983 -0.3230  0.1050
10268TIP3    H152219   3.544   5.911  11.870  0.3784 -0.0383  1.0800
10268TIP3    H252220   3.552   5.798  11.970  0.1012 -1.0267  0.0061
10269TIP3   OH252221   1.663   4.211  16.929  0.2428  0.0803 -0.4346
10269TIP3    H152222   1.739   4.153  16.937 -0.2981 -0.5108  0.6117
10269TIP3    H252223   1.591   4.152  16.908 -0.0417  0.5651 -0.8261
10270TIP3   OH252224   1.675   2.850  15.720  0.0319 -0.1611  0.1545
10270TIP3    H152225   1.729   2.784  15.677  1.4368  0.7904  0.3831
10270TIP3    H252226   1.700   2.932  15.678 -0.5798  0.4130  0.8908
10271TIP3   OH252227   4.502   3.819   0.097 -0.0640 -0.2487 -0.2175
10271TIP3    H152228   4.425   3.797   0.148  0.5155  0.9472  1.2450
10271TIP3    H252229   4.529   3.736   0.057 -1.5244 -0.8657  0.0361
10272TIP3   OH252230   6.450   4.513  11.314  0.8408  0.2353 -0.0203
10272TIP3    H152231   6.470   4.474  11.229  1.4871  0.3187  0.0888
10272TIP3    H252232   6.398   4.590  11.293  0.8565  0.1615 -0.3315
10273TIP3   OH252233   2.424   2.391  14.631  0.0435 -0.4844  1.0405
10273TIP3    H152234   2.421   2.325  14.561  1.0091 -0.1538  0.6639
10273TIP3    H252235   2.516   2.391  14.659 -0.2570 -0.3606  2.0797
10274TIP3   OH252236   4.931   1.948   1.065 -0.6264 -0.6373  0.2977
10274TIP3    H152237   4.947   2.011   0.995 -2.3415  0.4317  0.7982
10274TIP3    H252238   5.017   1.910   1.083  0.2148  0.5522 -0.9713
10275TIP3   OH252239   0.568   1.671   0.163  0.3427  0.4561  0.0125
10275TIP3    H152240   0.524   1.743   0.117  1.5387  1.1773 -0.0314
10275TIP3    H252241   0.660   1.679   0.139  0.5842 -0.7879  0.4266
10276TIP3   OH252242   2.791   0.402   1.354  0.1871  0.6042  0.0299
10276TIP3    H152243   2.886   0.413   1.347  0.2501 -0.1479 -0.3952
10276TIP3    H252244   2.755   0.473   1.302  0.5613 -0.3541 -1.6221
10277TIP3   OH252245   6.440   3.838   2.739 -0.4755 -0.1343  0.7999
10277TIP3    H152246   6.437   3.811   2.830 -0.1401  2.9510  1.8463
10277TIP3    H252247   6.511   3.902   2.734 -0.7028  0.0508 -1.5529
10278TIP3   OH252248   4.565   0.063   1.982  0.3243  0.3076  0.2512
10278TIP3    H152249   4.539   0.148   2.018  2.5068  1.1389  0.0045
10278TIP3    H252250   4.583   0.081   1.890  2.1079 -0.0790  0.4928
10279TIP3   OH252251   0.610   2.847   1.814 -0.0158 -0.6543 -0.1193
10279TIP3    H152252   0.651   2.926   1.779 -0.2027 -0.6364 -0.2957
10279TIP3    H252253   0.516   2.860   1.801  0.0647 -1.9542 -2.4308
10280TIP3   OH252254   3.855   1.202   6.023 -0.2510 -0.2577  0.1608
10280TIP3    H152255   3.810   1.242   6.097 -0.6836 -0.5900  0.0780
10280TIP3    H252256   3.947   1.226   6.035 -0.5594  1.1417 -0.1288
10281TIP3   OH252257   4.129   1.785   1.733 -0.5699  0.0548 -0.2057
10281TIP3    H152258   4.145   1.746   1.819 -1.2401  0.6456  0.2006
10281TIP3    H252259   4.080   1.719   1.685  0.1550 -0.4379 -0.2871
10282TIP3   OH252260   2.369   2.766   5.550  0.2218 -0.0609  0.3800
10282TIP3    H152261   2.334   2.708   5.482 -2.3083  0.2872  1.2800
10282TIP3    H252262   2.397   2.845   5.503 -0.2806 -0.3311 -0.3824
10283TIP3   OH252263   6.214   5.261   5.926  0.3681 -0.6715  0.3055
10283TIP3    H152264   6.220   5.357   5.925  3.0599 -0.7659 -0.3810
10283TIP3    H252265   6.299   5.232   5.960  0.6535 -2.8058 -1.9355
10284TIP3   OH252266   6.333   4.269   2.114 -0.1537  0.3850  0.2801
10284TIP3    H152267   6.304   4.271   2.022 -0.8137 -1.7986  0.3717
10284TIP3    H252268   6.309   4.181   2.144  1.4275  0.5228  2.1105
10285TIP3   OH252269   2.253   0.907  15.432 -0.1636  0.1893 -0.3633
10285TIP3    H152270   2.185   0.853  15.391 -0.2094  1.4112 -2.0241
10285TIP3    H252271   2.212   0.942  15.511 -0.3637 -1.5632  0.3668
10286TIP3   OH252272   4.015   0.885  14.004 -0.1853  0.1088 -0.3260
10286TIP3    H152273   4.101   0.852  14.027 -0.5451 -0.7186 -0.1188
10286TIP3    H252274   4.025   0.980  14.000  0.4751  0.0901  0.7598
10287TIP3   OH252275   0.038   4.368  13.785 -0.3452  0.7332 -0.2308
10287TIP3    H152276  -0.044   4.375  13.735 -0.7102 -0.2817  0.2042
10287TIP3    H252277   0.091   4.442  13.754 -0.6268  0.2334 -2.0050
10288TIP3   OH252278   0.511   1.983  14.966 -0.6346 -0.3329  0.0455
10288TIP3    H152279   0.564   1.935  14.903  0.2593  1.1432 -0.3944
10288TIP3    H252280   0.451   1.918  15.003  0.4308 -1.7160 -0.5921
10289TIP3   OH252281   0.949   3.108   5.208  0.0314 -0.0856 -0.1118
10289TIP3    H152282   0.998   3.074   5.283 -0.3148 -1.0671 -0.3122
10289TIP3    H252283   0.869   3.143   5.246  0.6415  1.0600  0.1610
10290TIP3   OH252284   0.530   5.967   2.916 -0.1914 -0.2983 -0.4527
10290TIP3    H152285   0.556   5.960   3.008 -0.5026 -1.2246 -0.4221
10290TIP3    H252286   0.459   5.903   2.907 -0.6546  0.3064 -1.1643
10291TIP3   OH252287   0.633   3.107  13.510 -0.0549 -0.1700 -0.5328
10291TIP3    H152288   0.593   3.117  13.424  1.0349  0.4804 -0.9918
10291TIP3    H252289   0.640   3.013  13.523  0.1176 -0.2719 -1.3301
10292TIP3   OH252290   0.855   3.611  11.597  0.0125  0.0892 -0.5203
10292TIP3    H152291   0.788   3.643  11.535 -1.4528 -2.9773 -0.7206
10292TIP3    H252292   0.834   3.655  11.679 -1.7155 -0.0686 -0.8289
10293TIP3   OH252293   1.978   4.525   1.649 -0.2146  0.3234 -0.4370
10293TIP3    H152294   1.914   4.537   1.579  0.3408  0.3479 -0.9445
10293TIP3    H252295   1.926   4.499   1.725 -0.9197  1.1302 -0.6226
10294TIP3   OH252296   5.053   4.005   4.342 -0.3706  0.1956 -0.1636
10294TIP3    H152297   5.042   4.083   4.289 -0.6388 -0.0222 -0.4328
10294TIP3    H252298   5.001   4.021   4.420  2.1313  1.6675  1.3354
10295TIP3   OH252299   5.302   2.453   6.078 -0.1700  0.7694 -0.3444
10295TIP3    H152300   5.338   2.479   5.993  1.7604 -0.2780  0.0917
10295TIP3    H252301   5.220   2.410   6.057  0.8004 -0.4734 -1.8161
10296TIP3   OH252302   0.964   6.678  14.723 -0.0333  0.2995  0.1462
10296TIP3    H152303   1.002   6.699  14.808  1.0776  1.0613 -0.5129
10296TIP3    H252304   0.991   6.588  14.706  0.5398  0.4529  0.2023
10297TIP3   OH252305   4.184   3.788  13.084  0.0769  0.0298  0.1832
10297TIP3    H152306   4.218   3.867  13.041 -0.7714  0.2497 -0.1172
10297TIP3    H252307   4.186   3.809  13.177 -0.6169  0.6231  0.0783
10298TIP3   OH252308   4.827   0.566  15.674 -0.3509 -0.1288  0.5016
10298TIP3    H152309   4.909   0.614  15.667 -1.2739  1.9198  2.5659
10298TIP3    H252310   4.773   0.600  15.603  0.2514 -0.8848 -0.3466
10299TIP3   OH252311   0.089   1.795  13.795  0.4762 -0.1503 -0.0031
10299TIP3    H152312   0.075   1.807  13.701  0.3604 -0.7402 -0.0658
10299TIP3    H252313   0.001   1.791  13.833  0.5041  1.8446  0.3858
10300TIP3   OH252314   1.910   3.049   0.529  0.3589  0.1624  0.8653
10300TIP3    H152315   2.002   3.066   0.511  0.7631 -1.8701  0.7768
10300TIP3    H252316   1.895   3.086   0.616  1.3500  0.1673  1.0384
10301TIP3   OH252317   5.637   1.966   4.457  0.0618 -0.1079 -0.0438
10301TIP3    H152318   5.599   1.905   4.394 -0.6354 -1.7114  1.8296
10301TIP3    H252319   5.728   1.936   4.466  0.5328  0.9029 -1.1560
10302TIP3   OH252320   3.562   3.917  14.341  0.2660  0.8947 -0.3615
10302TIP3    H152321   3.597   3.894  14.427  0.3245 -0.8235 -0.8018
10302TIP3    H252322   3.639   3.940  14.289  0.3319  0.9894 -0.2219
10303TIP3   OH252323   4.453   6.215   3.319  0.2442 -0.1959 -0.3448
10303TIP3    H152324   4.548   6.206   3.308  0.4132 -1.6129  1.6438
10303TIP3    H252325   4.435   6.307   3.300  1.7749 -0.2137 -2.1176
10304TIP3   OH252326   3.418   5.638   1.420 -0.3024  0.1515  0.0133
10304TIP3    H152327   3.417   5.637   1.324 -1.8677 -0.6198  0.0096
10304TIP3    H252328   3.438   5.729   1.442  1.7314  0.0021 -1.0090
10305TIP3   OH252329   0.488   1.289   3.121 -0.8531  0.0873  0.2090
10305TIP3    H152330   0.514   1.197   3.124  1.7346  0.7804  2.2002
10305TIP3    H252331   0.461   1.310   3.210  3.4754  2.3922  1.2322
10306TIP3   OH252332   2.055   1.208   1.336  0.0986  0.2286  0.3412
10306TIP3    H152333   1.979   1.179   1.285  0.5786 -1.5746  0.5856
10306TIP3    H252334   2.036   1.182   1.426  0.9843 -0.2311  0.4075
10307TIP3   OH252335   4.237   6.817   3.478 -0.0665 -0.3321 -0.4541
10307TIP3    H152336   4.201   6.895   3.521 -0.8340 -0.9524  0.0492
10307TIP3    H252337   4.259   6.847   3.389  0.6668  0.7297  0.0557
10308TIP3   OH252338   1.481   0.206  14.299 -0.0916  0.0655  0.1521
10308TIP3    H152339   1.561   0.215  14.350 -0.9392  0.7853  1.4322
10308TIP3    H252340   1.412   0.195  14.365 -1.0051 -0.8766 -0.9265
10309TIP3   OH252341   3.482   3.905  15.171  0.5124  0.5472 -0.5064
10309TIP3    H152342   3.453   3.845  15.103  0.5725 -0.2746  0.1677
10309TIP3    H252343   3.422   3.888  15.244  1.8630 -0.2554  0.4539
10310TIP3   OH252344   0.393   4.489   4.870 -0.0804 -0.1920  0.2444
10310TIP3    H152345   0.314   4.435   4.869 -0.3901  0.1575  2.0424
10310TIP3    H252346   0.396   4.526   4.959  0.4165  2.2785 -0.7114
10311TIP3   OH252347   2.498   2.449   1.188 -0.1772 -0.0748 -0.2625
10311TIP3    H152348   2.439   2.522   1.208  1.9493  1.4815  0.6929
10311TIP3    H252349   2.509   2.453   1.093 -0.0662  0.8835 -0.2202
10312TIP3   OH252350   5.264   4.373  11.260  0.4210 -0.2865 -0.1994
10312TIP3    H152351   5.277   4.351  11.352  0.5012 -0.8970 -0.3518
10312TIP3    H252352   5.178   4.415  11.256  0.7639  0.4731  0.2716
10313TIP3   OH252353   3.752   4.593   4.490  0.4193  0.5183 -0.1671
10313TIP3    H152354   3.833   4.553   4.521  1.0990 -1.5329 -3.9826
10313TIP3    H252355   3.771   4.621   4.401 -2.6004  1.5900 -0.6056
10314TIP3   OH252356   2.046   4.418   5.696 -0.1811 -0.0393  0.5865
10314TIP3    H152357   1.970   4.370   5.730  0.5395 -0.2170  2.0167
10314TIP3    H252358   2.102   4.430   5.772  0.2953  1.9056 -0.0369
10315TIP3   OH252359   1.301   5.860  16.961  0.2308 -0.1928  0.0913
10315TIP3    H152360   1.393   5.837  16.948  0.3468  0.3323 -0.0119
10315TIP3    H252361   1.254   5.779  16.940  0.6136 -0.2265 -0.6666
10316TIP3   OH252362   5.906   1.992   1.947  0.3369  0.3330 -0.3940
10316TIP3    H152363   5.962   1.975   1.871  0.0611 -1.1562 -0.2894
10316TIP3    H252364   5.921   1.917   2.005 -0.2948  0.8968  0.5220
10317TIP3   OH252365   5.465   1.263  11.509  0.5555  0.0641 -0.2842
10317TIP3    H152366   5.514   1.211  11.446 -1.6872 -2.0163 -0.4647
10317TIP3    H252367   5.429   1.335  11.457  2.7983  1.3040 -0.2555
10318TIP3   OH252368   4.464   4.481   3.168 -0.4330  0.1675 -0.3517
10318TIP3    H152369   4.551   4.494   3.207  0.4964  1.1114 -2.5480
10318TIP3    H252370   4.482   4.442   3.082 -2.2675 -0.5386 -0.4486
10319TIP3   OH252371   1.235   3.151  13.693 -0.1843 -0.1942 -0.3439
10319TIP3    H152372   1.174   3.097  13.643 -0.6149 -0.5716  0.5609
10319TIP3    H252373   1.315   3.152  13.641 -0.7428 -0.2550 -1.2170
10320TIP3   OH252374   2.918   5.195   6.591 -0.0217  0.2219  0.6423
10320TIP3    H152375   2.927   5.158   6.679  1.6749 -1.1467 -0.0504
10320TIP3    H252376   2.825   5.186   6.570 -0.0120 -1.7859  1.3012
10321TIP3   OH252377   4.358   5.234   2.566 -0.0625  0.3072  0.0031
10321TIP3    H152378   4.331   5.253   2.477  0.8560 -3.5715 -1.3150
10321TIP3    H252379   4.288   5.177   2.601  0.4858  0.2469  1.0563
10322TIP3   OH252380   2.478   1.574  13.189 -0.0245  0.3311 -0.0894
10322TIP3    H152381   2.488   1.659  13.231 -0.5975 -0.5435  1.9300
10322TIP3    H252382   2.553   1.567  13.130 -0.5538  2.6631 -1.1532
10323TIP3   OH252383   3.062   0.551   0.226  0.2084 -0.0838 -0.2830
10323TIP3    H152384   3.019   0.595   0.299  1.0714 -0.5722  0.5406
10323TIP3    H252385   3.099   0.471   0.264  1.4575  0.1047 -1.0440
10324TIP3   OH252386   6.512   3.080   1.098 -0.0592 -0.5809 -0.4670
10324TIP3    H152387   6.448   3.075   1.026  0.1068  1.1792 -0.7828
10324TIP3    H252388   6.460   3.060   1.177 -0.6031 -0.9298 -0.9030
10325TIP3   OH252389   2.412   6.568  15.500  0.3036 -0.0604  0.0510
10325TIP3    H152390   2.343   6.507  15.527 -1.0402  1.7498  0.9664
10325TIP3    H252391   2.405   6.641  15.562  1.9954  0.9163 -0.8327
10326TIP3   OH252392   4.175   5.768  16.870 -0.0943 -0.3224 -0.3629
10326TIP3    H152393   4.175   5.835  16.938  0.9339  0.1806 -0.8403
10326TIP3    H252394   4.237   5.702  16.901 -0.1212 -0.4131 -0.5014
10327TIP3   OH252395   0.721   1.661   2.787  0.1512  0.4566  0.4057
10327TIP3    H152396   0.759   1.593   2.844 -0.3090 -0.8758 -0.8235
10327TIP3    H252397   0.793   1.724   2.774  2.1596 -2.0989 -2.0542
10328TIP3   OH252398   2.669   3.083  10.614  0.1772 -0.2706  0.1336
10328TIP3    H152399   2.706   2.999  10.588 -1.8036 -0.9565 -0.6268
10328TIP3    H252400   2.716   3.147  10.562  0.7192 -1.0508 -0.3609
10329TIP3   OH252401   4.204   2.156   1.287 -0.1544  0.5192  0.6874
10329TIP3    H152402   4.280   2.206   1.318  0.6867 -0.0543 -0.4114
10329TIP3    H252403   4.219   2.145   1.193 -0.1043 -2.1324  0.9327
10330TIP3   OH252404   4.559   5.683  16.110  0.0621  0.5344 -0.4843
10330TIP3    H152405   4.467   5.670  16.088  0.0525  0.9169 -0.6858
10330TIP3    H252406   4.581   5.608  16.165  0.0422 -0.3664 -1.6547
10331TIP3   OH252407   4.613   0.318   4.832 -0.0906  0.4210 -0.2704
10331TIP3    H152408   4.674   0.279   4.770  0.0805 -0.9901  0.7442
10331TIP3    H252409   4.668   0.363   4.896 -0.1794  0.1431 -0.0015
10332TIP3   OH252410   6.018   5.712   4.551  0.4898  0.4169 -0.2510
10332TIP3    H152411   6.005   5.774   4.480 -0.2852  0.4884 -0.0490
10332TIP3    H252412   5.936   5.714   4.601  1.1871  0.7523  0.9424
10333TIP3   OH252413   0.396   3.864   2.812  0.2929  0.0174 -0.4402
10333TIP3    H152414   0.404   3.769   2.813  0.6018  0.0431 -0.5282
10333TIP3    H252415   0.375   3.887   2.903 -2.5439 -0.3663 -0.8911
10334TIP3   OH252416   1.508   5.894   1.610 -0.5425 -0.5840 -0.8332
10334TIP3    H152417   1.483   5.971   1.662 -0.5633 -1.1180 -0.0267
10334TIP3    H252418   1.601   5.905   1.594 -0.4081 -0.6861 -0.1765
10335TIP3   OH252419   0.568   5.367  14.447  0.1594 -0.4613  1.0857
10335TIP3    H152420   0.597   5.367  14.538  0.7680 -2.3466  0.9208
10335TIP3    H252421   0.499   5.301  14.444  1.2739 -1.6166 -0.1433
10336TIP3   OH252422   2.782   0.320  13.973 -0.0942  0.4223  0.3244
10336TIP3    H152423   2.766   0.395  14.030 -1.1095 -0.1261  0.7997
10336TIP3    H252424   2.826   0.356  13.897 -0.6615  1.5213  0.4982
10337TIP3   OH252425   0.397   6.599  13.217  0.6490 -0.3485 -0.1249
10337TIP3    H152426   0.419   6.528  13.157 -1.2071 -1.7600  0.7201
10337TIP3    H252427   0.456   6.586  13.292 -0.6269 -2.0172  0.6773
10338TIP3   OH252428   0.289   5.459   5.000  0.1960  0.0644  0.0074
10338TIP3    H152429   0.198   5.443   5.025  0.2605 -1.8136 -0.7518
10338TIP3    H252430   0.336   5.384   5.037  1.0232 -0.2812 -1.6688
10339TIP3   OH252431   0.639   3.904  11.097 -0.1018  0.0207 -0.6423
10339TIP3    H152432   0.611   3.893  11.006 -0.8143 -0.5716 -0.3535
10339TIP3    H252433   0.712   3.966  11.091  0.2423 -0.4505 -1.6817
10340TIP3   OH252434   5.560   6.324  16.934 -0.2488  0.2365  0.3386
10340TIP3    H152435   5.582   6.417  16.948 -1.1976  0.4781  0.2822
10340TIP3    H252436   5.619   6.277  16.993 -0.4940  0.9444  1.1745
10341TIP3   OH252437   1.173   2.099   5.298  0.3113 -0.3499 -0.2899
10341TIP3    H152438   1.081   2.124   5.305  0.6148  1.4902 -2.1557
10341TIP3    H252439   1.214   2.139   5.374 -0.3038 -0.6515  0.2131
10342TIP3   OH252440   6.118   6.605  10.906 -0.1464 -0.3246 -0.0766
10342TIP3    H152441   6.181   6.565  10.966  0.7261  0.2520 -0.5885
10342TIP3    H252442   6.140   6.698  10.905 -2.6456  0.3960  1.7203
10343TIP3   OH252443   6.802   5.017   4.503  0.2839  0.1709  0.5417
10343TIP3    H152444   6.853   5.037   4.581 -0.9035  1.3109  1.0635
10343TIP3    H252445   6.720   4.979   4.537 -0.4079  1.0275 -0.1152
10344TIP3   OH252446   6.001   2.940   3.943  0.1732 -0.4357 -0.1648
10344TIP3    H152447   5.941   2.934   4.017 -0.8803 -1.2930 -1.0609
10344TIP3    H252448   6.050   3.021   3.958 -0.9654  0.1027  0.7577
10345TIP3   OH252449   2.814   4.513  14.297  0.2485  0.1758 -0.8198
10345TIP3    H152450   2.814   4.574  14.371 -0.2497 -0.9120  0.0875
10345TIP3    H252451   2.849   4.565  14.224 -0.5728  1.6817 -0.1846
10346TIP3   OH252452   2.927   6.629   4.399 -0.5362 -0.3186  0.6246
10346TIP3    H152453   2.867   6.565   4.435 -0.2708 -0.0395  1.6016
10346TIP3    H252454   2.970   6.584   4.327  0.0425 -1.4431  1.6266
10347TIP3   OH252455   2.105   3.372  13.929 -0.4752  0.2700 -0.3243
10347TIP3    H152456   2.173   3.333  13.983 -0.1522  0.5318 -0.5340
10347TIP3    H252457   2.135   3.462  13.915 -0.5441  0.2007 -0.9484
10348TIP3   OH252458   3.239   1.777  10.282  0.2553  0.1403 -0.2996
10348TIP3    H152459   3.149   1.809  10.284  0.2283  0.0478  0.0663
10348TIP3    H252460   3.293   1.855  10.296  0.1602 -0.0779  1.5630
10349TIP3   OH252461   2.591   5.489   0.715  0.1770  0.3258 -0.1566
10349TIP3    H152462   2.559   5.482   0.805 -0.8458  1.1297 -0.4374
10349TIP3    H252463   2.522   5.536   0.669  0.8596  0.2556 -1.2845
10350TIP3   OH252464   1.158   5.171  15.130  0.0662 -0.3549  0.1502
10350TIP3    H152465   1.247   5.197  15.156  0.7970 -0.9910 -1.5923
10350TIP3    H252466   1.108   5.175  15.212  1.4650  0.9053  1.0089
10351TIP3   OH252467   3.530   1.938  10.927  0.8411 -0.3531  0.1403
10351TIP3    H152468   3.468   1.871  10.899 -0.4777  1.0753 -0.4731
10351TIP3    H252469   3.536   1.927  11.022  1.5767 -2.0754 -0.0592
10352TIP3   OH252470   6.678   2.318  11.846 -0.5055  0.0382 -0.3228
10352TIP3    H152471   6.769   2.328  11.875 -0.8752  0.2353  0.8101
10352TIP3    H252472   6.651   2.407  11.824 -0.2811 -0.0873 -1.1433
10353TIP3   OH252473   2.034   2.662   4.737 -0.6950  0.1829  0.0656
10353TIP3    H152474   2.124   2.663   4.768 -0.8052  0.8177  0.3869
10353TIP3    H252475   2.042   2.669   4.642 -0.4097  1.1474  0.1423
10354TIP3   OH252476   5.780   2.588  11.370  0.9094  0.0064  0.3053
10354TIP3    H152477   5.813   2.513  11.321 -1.0774 -1.4602  1.0650
10354TIP3    H252478   5.814   2.576  11.459 -1.4177 -1.5011  1.0861
10355TIP3   OH252479   3.105   0.645  14.349  0.1297 -0.2065  0.4635
10355TIP3    H152480   3.011   0.644  14.331  0.4452 -1.4310 -1.5544
10355TIP3    H252481   3.126   0.554  14.369  1.0516 -0.1758 -0.2954
10356TIP3   OH252482   0.449   4.073  11.432  0.4261  0.2544 -0.5702
10356TIP3    H152483   0.388   4.041  11.365  2.6858 -1.7855 -1.8308
10356TIP3    H252484   0.534   4.074  11.388  1.7477  0.5537  1.8130
10357TIP3   OH252485   2.451   4.481   2.247 -0.0872  0.4423  0.5029
10357TIP3    H152486   2.378   4.422   2.266  0.0082 -0.1117 -0.7865
10357TIP3    H252487   2.498   4.439   2.175  0.6858  1.5086  0.3614
10358TIP3   OH252488   3.986   2.977   4.715  0.1619 -0.9944 -0.2038
10358TIP3    H152489   3.946   2.896   4.748 -0.0369 -0.5855  0.5870
10358TIP3    H252490   3.919   3.016   4.659  0.3729 -1.5194 -0.8435
10359TIP3   OH252491   3.252   0.456  14.946  0.4331 -0.1582 -0.3119
10359TIP3    H152492   3.197   0.409  15.009  2.8433 -0.1951  1.9860
10359TIP3    H252493   3.339   0.455  14.987  1.3073  3.3680 -1.7650
10360TIP3   OH252494   3.690   4.572   4.788  0.2608 -0.2675 -0.0454
10360TIP3    H152495   3.690   4.572   4.693  0.8026  0.8254 -0.0655
10360TIP3    H252496   3.659   4.485   4.813 -2.6448  0.3293 -1.2017
10361TIP3   OH252497   0.233   4.573  16.763  0.4242 -0.5092  0.0412
10361TIP3    H152498   0.212   4.546  16.852  2.2071 -0.4774  0.5193
10361TIP3    H252499   0.202   4.501  16.708  0.8164 -1.3275  0.8613
10362TIP3   OH252500   0.939   0.992   1.760 -0.0758 -0.3386  0.1796
10362TIP3    H152501   0.874   1.013   1.828  0.0855 -0.5444  0.4004
10362TIP3    H252502   0.915   0.905   1.730  0.4801 -0.6942  0.7265
10363TIP3   OH252503   2.643   2.823  13.762  0.3898 -0.2807 -0.4280
10363TIP3    H152504   2.704   2.886  13.723  0.8253 -0.8194 -0.6232
10363TIP3    H252505   2.582   2.801  13.692 -0.0652  0.2892 -0.2208
10364TIP3   OH252506   6.797   5.514   1.656 -0.0378  0.0139  0.2369
10364TIP3    H152507   6.761   5.590   1.701  0.6206  1.6882 -1.8753
10364TIP3    H252508   6.824   5.455   1.726 -2.0917  0.9359  1.9399
10365TIP3   OH252509   1.625   3.628  16.844  0.3222 -0.8455 -0.0885
10365TIP3    H152510   1.622   3.653  16.752 -0.5758  0.1135  0.1830
10365TIP3    H252511   1.572   3.548  16.849  1.0593 -1.3634 -0.5367
10366TIP3   OH252512   1.029   2.282   4.962 -0.3577 -0.0081  0.1076
10366TIP3    H152513   1.120   2.252   4.955  0.0714  0.8678  1.3720
10366TIP3    H252514   1.019   2.346   4.892  0.3553  0.6855  0.6268
10367TIP3   OH252515   1.417   0.892  14.491 -0.6230  0.0703 -0.0967
10367TIP3    H152516   1.452   0.922  14.407 -0.9462 -2.0526 -1.0512
10367TIP3    H252517   1.480   0.825  14.520 -2.2268 -1.6411 -0.3582
10368TIP3   OH252518   2.552   1.343   2.475 -0.0483 -0.6219 -0.3521
10368TIP3    H152519   2.592   1.309   2.395  0.0839 -0.0800 -0.5204
10368TIP3    H252520   2.467   1.376   2.448 -0.1382 -0.7319 -0.2064
10369TIP3   OH252521   5.049   3.656  13.659  0.5631  0.0344 -0.7286
10369TIP3    H152522   4.998   3.608  13.594 -0.7043 -0.0762  0.3098
10369TIP3    H252523   5.012   3.630  13.743  2.0284  0.3268  0.0442
10370TIP3   OH252524   0.343   6.799  15.565  0.2486  0.0298 -0.5161
10370TIP3    H152525   0.262   6.786  15.614  0.1878  0.5347 -0.4778
10370TIP3    H252526   0.403   6.735  15.602 -0.1478 -0.3853 -0.5818
10371TIP3   OH252527   0.264   3.938  11.208 -0.2889 -0.5703  0.7986
10371TIP3    H152528   0.243   3.859  11.259  2.4283 -0.6130  2.0601
10371TIP3    H252529   0.243   3.914  11.118  0.8479 -2.9367  1.0761
10372TIP3   OH252530   1.943   3.422   3.302  0.4782  0.1473  0.2092
10372TIP3    H152531   1.942   3.510   3.340  2.4187 -0.5845  2.1426
10372TIP3    H252532   1.971   3.365   3.373  0.2165 -1.9305 -1.2583
10373TIP3   OH252533   2.422   1.945  10.313 -0.9314  0.5694 -0.2046
10373TIP3    H152534   2.476   1.872  10.345 -0.2940  0.2570 -1.8885
10373TIP3    H252535   2.367   1.905  10.246 -1.2690  1.4630 -0.4624
10374TIP3   OH252536   0.735   1.984   2.663  0.2750 -0.5018  0.2612
10374TIP3    H152537   0.644   1.991   2.693  0.6569 -1.2768  1.6612
10374TIP3    H252538   0.740   2.046   2.590 -2.0971 -2.3994 -1.6982
10375TIP3   OH252539   1.595   1.655   3.572 -0.1553 -0.1742 -0.8187
10375TIP3    H152540   1.513   1.687   3.535  0.7953  2.9617 -0.4945
10375TIP3    H252541   1.572   1.571   3.613 -3.1116  0.4655 -0.9580
10376TIP3   OH252542   0.790   3.182  15.005  0.0723 -0.1933  0.2799
10376TIP3    H152543   0.767   3.199  15.096  0.2037 -0.2091  0.3160
10376TIP3    H252544   0.885   3.181  15.004  0.0850  0.5628  0.0050
10377TIP3   OH252545   6.608   2.164  14.754  0.0031 -0.3935  0.2986
10377TIP3    H152546   6.600   2.088  14.696  2.4863 -0.3835 -0.1748
10377TIP3    H252547   6.694   2.154  14.794 -0.6277  0.9283  2.1093
10378TIP3   OH252548   0.279   4.575   4.065 -0.1197 -0.7927 -0.8526
10378TIP3    H152549   0.222   4.567   3.989  0.4403 -0.7279 -1.2865
10378TIP3    H252550   0.247   4.652   4.112  1.2589  0.8961 -2.5352
10379TIP3   OH252551   4.875   2.546  11.952 -0.1370 -0.4118 -0.1502
10379TIP3    H152552   4.944   2.568  12.015  0.3707 -1.2770 -0.3877
10379TIP3    H252553   4.911   2.570  11.867 -1.1907  1.6506 -0.0668
10380TIP3   OH252554   0.850   0.125   5.975 -0.4632 -0.4147  0.1515
10380TIP3    H152555   0.879   0.036   5.991 -2.4723 -1.0836  0.3805
10380TIP3    H252556   0.866   0.171   6.057  0.1948 -0.6713  0.1692
10381TIP3   OH252557   6.805   1.237  14.551  0.0617 -0.0132 -0.3143
10381TIP3    H152558   6.824   1.155  14.595 -0.0413  1.3759  2.6193
10381TIP3    H252559   6.884   1.258  14.502  1.7141  0.0226  2.1787
10382TIP3   OH252560   4.962   2.272  11.087  0.3982  0.0641 -0.0484
10382TIP3    H152561   4.932   2.363  11.088 -1.1333 -0.3838 -1.1260
10382TIP3    H252562   4.948   2.241  11.177  0.7136  0.8224  0.2672
10383TIP3   OH252563   2.631   1.912   2.924  0.6132 -0.1580 -0.5324
10383TIP3    H152564   2.714   1.892   2.881  0.6989  0.2922 -0.5882
10383TIP3    H252565   2.576   1.948   2.853  0.8247  0.7835 -0.2351
10384TIP3   OH252566   4.224   2.271   5.608 -0.5560  0.4937 -0.3375
10384TIP3    H152567   4.140   2.235   5.637 -0.5973 -0.7932 -1.8720
10384TIP3    H252568   4.206   2.306   5.521 -0.0813  2.7189  0.4011
10385TIP3   OH252569   0.064   4.785  14.804  0.2130  0.1003 -0.0987
10385TIP3    H152570  -0.027   4.758  14.817  0.4916 -1.4535 -1.0096
10385TIP3    H252571   0.092   4.820  14.888 -1.2345  0.6229  0.1825
10386TIP3   OH252572   0.624   2.028  11.438  0.4686  0.1592  0.4966
10386TIP3    H152573   0.651   2.119  11.451  0.2369  0.6072 -1.7200
10386TIP3    H252574   0.691   1.977  11.484  3.4882  1.3318 -2.2181
10387TIP3   OH252575   0.514   1.669   5.948  0.1833 -0.3441 -0.1628
10387TIP3    H152576   0.441   1.613   5.972  1.2483 -1.2199  1.2417
10387TIP3    H252577   0.583   1.645   6.010  1.7863  0.1801 -1.6668
10388TIP3   OH252578   5.859   5.023  15.184  0.6972  0.0019 -0.2033
10388TIP3    H152579   5.837   4.957  15.117 -3.0212 -1.3329  2.0687
10388TIP3    H252580   5.899   4.972  15.255 -0.0890  0.5408  0.6388
10389TIP3   OH252581   5.592   6.611  11.113  0.0840 -0.3619  0.2381
10389TIP3    H152582   5.567   6.533  11.162 -0.3873  0.1360  0.8052
10389TIP3    H252583   5.673   6.586  11.068 -0.6876 -1.5487 -0.5287
10390TIP3   OH252584   5.692   4.498   5.755  0.5346 -0.4904 -0.2416
10390TIP3    H152585   5.688   4.408   5.788  0.3518 -0.2771  0.3333
10390TIP3    H252586   5.604   4.533   5.771  1.4109  0.7640  2.3859
10391TIP3   OH252587   1.025   5.320   4.407 -0.0064  0.3715 -0.0300
10391TIP3    H152588   0.972   5.281   4.477 -0.3620  1.1230  0.1190
10391TIP3    H252589   1.101   5.357   4.452  0.4409 -0.3207 -0.1969
10392TIP3   OH252590   0.757   2.633   6.109  0.4525 -0.2038 -0.0506
10392TIP3    H152591   0.744   2.580   6.186 -0.9367  1.1624  0.7008
10392TIP3    H252592   0.844   2.672   6.121  0.0015  0.4826  1.1640
10393TIP3   OH252593   1.084   2.190   4.545  0.1507  0.0091 -0.4501
10393TIP3    H152594   1.090   2.161   4.455 -3.4534  2.0345 -1.5390
10393TIP3    H252595   1.171   2.226   4.565  1.9776 -3.1764 -1.9039
10394TIP3   OH252596   3.222   1.830  12.177  0.6177  0.2557  0.2268
10394TIP3    H152597   3.189   1.905  12.227  0.6449  1.3350 -1.2930
10394TIP3    H252598   3.199   1.754  12.230  1.3349  1.3580  2.2483
10395TIP3   OH252599   1.053   0.168  11.425 -0.1922  0.2490 -0.0831
10395TIP3    H152600   1.000   0.174  11.346  0.1494  0.8527 -0.2743
10395TIP3    H252601   1.143   0.181  11.395 -0.0534  0.4244  0.3930
10396TIP3   OH252602   1.760   3.775  13.287  0.0732  0.4446  0.5658
10396TIP3    H152603   1.681   3.742  13.330 -0.4023  1.1362  0.2432
10396TIP3    H252604   1.757   3.736  13.200 -1.1082  2.1776 -0.2325
10397TIP3   OH252605   1.663   3.522   3.842  0.2029  0.4387  0.3075
10397TIP3    H152606   1.675   3.532   3.748  0.7087 -0.5655  0.2606
10397TIP3    H252607   1.624   3.436   3.853  1.0303  0.1478  1.0795
10398TIP3   OH252608   1.601   0.207  13.596  0.0345  0.0231  0.3106
10398TIP3    H152609   1.529   0.268  13.579  0.4122  0.2592 -0.4964
10398TIP3    H252610   1.557   0.123  13.613 -0.4436  0.1898 -0.0685
10399TIP3   OH252611   4.137   1.329  15.962 -0.2252 -0.5036 -0.1715
10399TIP3    H152612   4.043   1.319  15.949 -0.4566  0.3661  0.7035
10399TIP3    H252613   4.172   1.240  15.952 -1.1123 -0.8188 -0.6197
10400TIP3   OH252614   3.256   2.324  12.440  0.3930 -0.2629 -0.2041
10400TIP3    H152615   3.220   2.235  12.436 -2.5475  0.8452 -0.6156
10400TIP3    H252616   3.273   2.338  12.533  1.5074 -1.4356 -0.1991
10401TIP3   OH252617   0.270   1.020   0.592 -0.0180 -0.1439  0.0054
10401TIP3    H152618   0.247   1.044   0.502 -1.7505  0.9413  0.6977
10401TIP3    H252619   0.191   0.980   0.627  1.0656 -1.8061  0.6625
10402TIP3   OH252620   0.485   1.179   0.541  0.2291 -0.2491 -0.5207
10402TIP3    H152621   0.541   1.110   0.505 -0.9466 -1.8519  0.5816
10402TIP3    H252622   0.407   1.133   0.572 -1.3525  1.8128 -1.2482
10403TIP3   OH252623   3.271   3.339   4.844 -0.1912  0.4236  0.2156
10403TIP3    H152624   3.288   3.430   4.819  1.4194 -0.1726 -1.0428
10403TIP3    H252625   3.328   3.323   4.919  0.1234  0.2430 -0.0564
10404TIP3   OH252626   4.783   0.467  16.469  0.0088  0.4347  0.2984
10404TIP3    H152627   4.791   0.402  16.399  0.7754  0.6872  0.1393
10404TIP3    H252628   4.782   0.415  16.549 -0.4587  0.1663  0.1199
10405TIP3   OH252629   1.354   6.366  13.445 -0.3656  0.5276 -0.8545
10405TIP3    H152630   1.262   6.392  13.436 -0.6495 -0.5692 -1.3166
10405TIP3    H252631   1.399   6.446  13.471 -1.7529  0.6569  1.4168
10406TIP3   OH252632   5.516   6.693  11.982  0.6317  0.7016 -0.3694
10406TIP3    H152633   5.569   6.755  12.033 -0.4454  0.3658  1.2269
10406TIP3    H252634   5.429   6.733  11.980 -0.0008 -0.5740  0.4103
10407TIP3   OH252635   2.965   1.539  10.377  0.0636 -0.2151  0.6154
10407TIP3    H152636   2.917   1.567  10.455 -0.0668  1.3156  0.0179
10407TIP3    H252637   2.929   1.592  10.306 -0.4900 -2.2113 -0.7036
10408TIP3   OH252638   2.472   6.265  11.100  0.4802 -0.1285 -0.6289
10408TIP3    H152639   2.478   6.328  11.028  0.2210 -0.5112 -0.9854
10408TIP3    H252640   2.416   6.195  11.067 -1.7274  0.8499  0.7597
10409TIP3   OH252641   5.088   0.191  12.144  0.3706 -0.6067 -0.5491
10409TIP3    H152642   5.165   0.209  12.198  0.1493  2.2770 -1.0537
10409TIP3    H252643   5.014   0.223  12.196 -0.1932 -0.8659 -1.1729
10410TIP3   OH252644   4.988   0.676   1.655  0.3658  0.0630 -0.2093
10410TIP3    H152645   4.988   0.637   1.568 -0.6866 -0.5797  0.0610
10410TIP3    H252646   4.910   0.640   1.698  0.9868  0.1910  1.0756
10411TIP3   OH252647   5.759   4.704   5.025 -0.5900 -0.4973  0.2061
10411TIP3    H152648   5.727   4.755   5.099  1.1527  0.2154  0.5167
10411TIP3    H252649   5.853   4.695   5.040 -0.4215 -1.5345 -1.2155
10412TIP3   OH252650   6.278   0.035   4.498 -0.1957  0.4691 -0.1706
10412TIP3    H152651   6.212   0.103   4.496  0.3437  0.9824 -0.9006
10412TIP3    H252652   6.298   0.024   4.591 -1.8137 -0.2164  0.1302
10413TIP3   OH252653   0.094   0.192   4.263  0.4210  0.0770 -0.3452
10413TIP3    H152654   0.036   0.117   4.248  1.4155 -0.8941  0.5545
10413TIP3    H252655   0.045   0.250   4.320 -0.6612  0.5146 -1.6584
10414TIP3   OH252656   3.168   5.804  16.817 -0.1512  0.1045 -0.0250
10414TIP3    H152657   3.108   5.808  16.891 -0.3318 -0.9107 -0.1011
10414TIP3    H252658   3.196   5.713  16.814  0.8404  0.4054 -0.4364
10415TIP3   OH252659   3.023   1.342  14.855 -0.0595 -0.0758  0.3372
10415TIP3    H152660   2.972   1.264  14.834 -0.0729 -0.1586  0.6704
10415TIP3    H252661   3.052   1.329  14.945 -1.2648  0.9337  0.9025
10416TIP3   OH252662   6.084   6.180   0.931 -0.1869  0.3794  0.0342
10416TIP3    H152663   6.018   6.247   0.952  0.4047  1.4854 -1.4378
10416TIP3    H252664   6.066   6.158   0.840  0.5570 -0.4130  0.0755
10417TIP3   OH252665   5.371   0.225   6.208  0.6720 -0.0977 -0.4514
10417TIP3    H152666   5.340   0.237   6.298 -0.7019 -1.8091 -0.6402
10417TIP3    H252667   5.368   0.313   6.171 -0.1168  0.4267  0.7618
10418TIP3   OH252668   5.376   2.960   4.974 -1.0384 -0.1647  0.1644
10418TIP3    H152669   5.374   3.018   4.898 -0.4624  0.3616  0.5389
10418TIP3    H252670   5.360   3.017   5.049  0.0247 -0.3880  0.5861
10419TIP3   OH252671   6.048   3.086  14.274  0.1431  0.2898 -0.4157
10419TIP3    H152672   6.004   3.094  14.190 -4.0098  2.6484  1.6402
10419TIP3    H252673   6.012   3.006  14.312 -2.1435  1.8692  0.9990
10420TIP3   OH252674   1.549   3.107   5.046  0.1501  0.2177  0.0634
10420TIP3    H152675   1.580   3.078   4.960 -0.7462  1.0050 -0.5384
10420TIP3    H252676   1.555   3.203   5.043 -1.3910  0.3380  0.2822
10421TIP3   OH252677   4.208   2.811   5.731 -0.0423  0.1181 -0.2232
10421TIP3    H152678   4.206   2.715   5.738 -1.6315  0.2056  0.7483
10421TIP3    H252679   4.156   2.830   5.653 -2.2465  0.2915  1.2136
10422TIP3   OH252680   2.356   1.858  16.761  0.4408 -0.3140  0.1116
10422TIP3    H152681   2.298   1.929  16.735  0.2661 -0.9222 -1.2835
10422TIP3    H252682   2.297   1.791  16.797  0.4707 -0.2553  0.2712
10423TIP3   OH252683   3.388   2.200  11.149 -0.3745 -0.6580  0.8638
10423TIP3    H152684   3.460   2.206  11.086 -0.4681 -2.6815  0.4856
10423TIP3    H252685   3.430   2.182  11.233 -0.2667  1.7700  1.3872
10424TIP3   OH252686   3.957   2.863  12.222 -0.0904 -0.1057 -0.3112
10424TIP3    H152687   4.005   2.940  12.192 -1.1435  1.1110  1.0035
10424TIP3    H252688   3.936   2.881  12.313  0.8293 -2.5829  0.4801
10425TIP3   OH252689   2.816   2.790  12.214 -0.3061  0.1942 -0.1794
10425TIP3    H152690   2.890   2.786  12.153  0.3096 -1.3326  0.6096
10425TIP3    H252691   2.811   2.702  12.251 -2.7495  0.1710 -0.4480
10426TIP3   OH252692   2.365   0.238   1.958 -0.0052 -0.3794 -0.2730
10426TIP3    H152693   2.317   0.180   1.899 -1.3814 -0.2579  0.6735
10426TIP3    H252694   2.369   0.189   2.041  2.7324 -0.9651 -0.6517
10427TIP3   OH252695   5.099   0.699  14.528 -0.1994  0.1671 -0.0024
10427TIP3    H152696   5.062   0.750  14.457 -0.9528 -1.9871 -1.2723
10427TIP3    H252697   5.188   0.731  14.539  0.1992  0.0453 -2.4800
10428TIP3   OH252698   5.291   6.142  16.561  0.0709  0.1507  0.4023
10428TIP3    H152699   5.206   6.186  16.556  0.4213  0.9421  1.0307
10428TIP3    H252700   5.270   6.050  16.573 -0.7099  0.3809  0.8878
10429TIP3   OH252701   1.429   4.351  10.823  0.5113 -0.2258 -0.0737
10429TIP3    H152702   1.457   4.385  10.738 -1.1016  0.7329 -0.2746
10429TIP3    H252703   1.467   4.264  10.829  2.1765  0.4080 -0.9518
10430TIP3   OH252704   3.109   4.255   0.522  0.3839  0.2984 -0.4453
10430TIP3    H152705   3.164   4.315   0.471  0.1516  1.1773  0.3168
10430TIP3    H252706   3.096   4.299   0.606 -2.8322  0.9162 -1.1277
10431TIP3   OH252707   6.618   6.147   5.136  0.2123 -0.3463  0.7090
10431TIP3    H152708   6.643   6.199   5.213 -0.4019  1.4321 -0.2427
10431TIP3    H252709   6.579   6.211   5.076 -1.6760 -2.1005 -0.0482
10432TIP3   OH252710   2.748   3.373  12.764 -0.0157 -0.5176 -0.0611
10432TIP3    H152711   2.758   3.401  12.673 -0.3752 -0.5903 -0.1224
10432TIP3    H252712   2.836   3.346  12.791  0.5749  1.6704  0.3348
10433TIP3   OH252713   4.319   3.608   5.321  0.4186  0.9382  0.0690
10433TIP3    H152714   4.374   3.681   5.349  0.4396  0.5338  1.1222
10433TIP3    H252715   4.331   3.542   5.389  1.1859 -0.4663 -1.3857
10434TIP3   OH252716   6.420   3.804  14.320  0.2228  0.6888  0.1680
10434TIP3    H152717   6.401   3.781  14.229 -2.0212  1.8478  0.2592
10434TIP3    H252718   6.505   3.848  14.317 -0.2691  1.6096 -1.5592
10435TIP3   OH252719   2.628   5.485   4.142 -0.2835  0.1342 -0.2180
10435TIP3    H152720   2.675   5.512   4.063 -2.3407  0.6666 -1.3279
10435TIP3    H252721   2.539   5.520   4.130 -1.0848 -1.1514  1.5883
10436TIP3   OH252722   0.159   3.358   2.980 -0.0842  0.0320  0.6264
10436TIP3    H152723   0.077   3.393   3.016 -1.1090 -1.9014  0.3037
10436TIP3    H252724   0.146   3.360   2.885  1.1380  1.6853  0.4538
10437TIP3   OH252725   4.002   0.897   2.765 -0.3949  0.2992  0.3419
10437TIP3    H152726   4.066   0.922   2.832  0.0146 -0.8411  0.3995
10437TIP3    H252727   3.921   0.941   2.792  0.2900  1.5976  0.3786
10438TIP3   OH252728   2.094   5.029  14.729  0.7476 -0.2993  0.6194
10438TIP3    H152729   2.158   5.033  14.800  0.8865 -0.2338  0.4922
10438TIP3    H252730   2.011   5.008  14.772  0.5383  1.1595  0.9902
10439TIP3   OH252731   0.186   4.042  12.431 -0.2786 -0.2755  0.3926
10439TIP3    H152732   0.270   4.050  12.476  0.1755 -2.4467  0.0279
10439TIP3    H252733   0.199   3.972  12.368 -2.2903 -0.4385  0.1023
10440TIP3   OH252734   2.020   2.033  12.935 -0.1304  0.1742 -0.3764
10440TIP3    H152735   2.006   1.950  12.979  1.1022  1.4260  2.6591
10440TIP3    H252736   1.942   2.046  12.881 -0.8949 -2.3375  0.0192
10441TIP3   OH252737   6.361   3.695  12.315 -0.1837 -0.2233 -0.4722
10441TIP3    H152738   6.398   3.607  12.303 -0.5951 -0.3831 -0.5968
10441TIP3    H252739   6.313   3.690  12.397 -0.0412 -0.0564 -0.3787
10442TIP3   OH252740   2.584   4.946  15.972  0.1608  0.8205  0.1088
10442TIP3    H152741   2.672   4.935  16.010  0.0110  0.0608  0.2509
10442TIP3    H252742   2.598   4.999  15.894  1.0614 -0.9836 -1.0236
10443TIP3   OH252743   4.837   0.290   5.737 -0.3258  0.4461 -0.2336
10443TIP3    H152744   4.865   0.247   5.818  0.0432 -0.1179 -0.6484
10443TIP3    H252745   4.748   0.258   5.722  0.7470 -2.2069 -1.8197
10444TIP3   OH252746   5.712   6.520  11.897 -0.0980 -0.0087  0.6458
10444TIP3    H152747   5.647   6.582  11.863 -1.4118 -2.4383 -1.6642
10444TIP3    H252748   5.790   6.536  11.844 -0.7238 -0.8364 -0.5835
10445TIP3   OH252749   0.263   4.302  12.740  0.7701  0.0881  1.0060
10445TIP3    H152750   0.333   4.287  12.803 -0.0560 -0.3564  1.8280
10445TIP3    H252751   0.219   4.218  12.731  0.9895  0.0918 -0.3214
10446TIP3   OH252752   5.994   6.081   5.288  0.3096 -0.2403 -0.3940
10446TIP3    H152753   6.006   6.109   5.378 -1.1884  1.6345 -0.7026
10446TIP3    H252754   5.901   6.058   5.282  0.4314 -0.5439 -1.4149
10447TIP3   OH252755   1.323   2.321   2.596  0.2500 -0.2883 -0.0978
10447TIP3    H152756   1.414   2.350   2.601 -0.0436  0.5514  0.5016
10447TIP3    H252757   1.276   2.395   2.559 -0.4107 -0.1946  0.8864
10448TIP3   OH252758   0.280   6.275   2.795 -0.3799  0.2267 -0.4576
10448TIP3    H152759   0.249   6.186   2.778 -3.4095  0.9406  0.5855
10448TIP3    H252760   0.275   6.319   2.710  1.2898 -0.5726 -1.0106
10449TIP3   OH252761   5.678   6.240   5.122 -0.0326 -0.3261  0.6609
10449TIP3    H152762   5.619   6.302   5.080  1.1865  1.1297  1.0254
10449TIP3    H252763   5.754   6.292   5.147  0.7705 -1.8519  1.5426
10450TIP3   OH252764   1.179   0.223  14.342  0.1972 -0.3638  0.2506
10450TIP3    H152765   1.176   0.299  14.283  0.7717 -0.7374 -0.2700
10450TIP3    H252766   1.097   0.177  14.327 -0.8734  0.9688  1.6939
10451TIP3   OH252767   0.910   1.049   6.548 -0.0889  0.4370 -0.1891
10451TIP3    H152768   0.842   1.016   6.490  2.0910 -0.9688 -2.1735
10451TIP3    H252769   0.900   1.144   6.546 -2.6159  0.2519  0.5151
10452TIP3   OH252770   5.480   6.364   2.671  0.1537  0.4985 -0.7146
10452TIP3    H152771   5.414   6.297   2.690  2.5518 -1.9924 -0.5677
10452TIP3    H252772   5.501   6.401   2.756  0.5538 -0.3566 -0.4266
10453TIP3   OH252773   2.814   0.870   2.380 -0.2327  0.2421 -0.4393
10453TIP3    H152774   2.806   0.831   2.292  1.0904  0.2374 -0.5847
10453TIP3    H252775   2.799   0.963   2.367  1.9825  0.5808 -1.0894
10454TIP3   OH252776   4.215   0.182  10.763 -0.0802  0.0524 -0.2530
10454TIP3    H152777   4.276   0.141  10.824  0.7747 -0.7501 -1.5991
10454TIP3    H252778   4.269   0.243  10.712 -1.0146  1.6338  0.5774
10455TIP3   OH252779   5.955   4.321  11.879 -0.1670 -0.1153 -0.5639
10455TIP3    H152780   5.868   4.348  11.851  0.5372  1.1214 -1.7131
10455TIP3    H252781   5.994   4.283  11.801  0.8804  0.8551 -0.5414
10456TIP3   OH252782   6.770   6.210  11.395 -0.5297  0.0503  0.0497
10456TIP3    H152783   6.710   6.167  11.334 -0.0634 -0.3487 -0.1376
10456TIP3    H252784   6.749   6.303  11.390  0.2567  0.1759 -1.5780
10457TIP3   OH252785   2.583   5.413  12.140 -0.5150  0.1705  0.1342
10457TIP3    H152786   2.625   5.469  12.074 -1.5059 -1.4748 -2.0274
10457TIP3    H252787   2.496   5.449  12.151 -1.0174 -0.6605 -0.9625
10458TIP3   OH252788   3.170   3.418   5.794  0.1078 -0.0157 -0.3432
10458TIP3    H152789   3.089   3.401   5.745  0.7485  0.1681 -1.5253
10458TIP3    H252790   3.188   3.511   5.777 -0.1265  0.2875  1.0061
10459TIP3   OH252791   3.838   2.779   3.022  0.1425 -0.0604 -0.4895
10459TIP3    H152792   3.912   2.724   2.996  0.3261 -0.4973  0.9056
10459TIP3    H252793   3.770   2.759   2.958  0.5981 -1.0631 -0.6787
10460TIP3   OH252794   6.229   4.158  15.532 -0.8284 -0.2489 -0.2342
10460TIP3    H152795   6.241   4.122  15.444  2.1316  1.3742 -0.6080
10460TIP3    H252796   6.225   4.081  15.588  0.7732 -1.3051 -1.4636
10461TIP3   OH252797   4.314   2.299  13.320  0.2843  0.4835 -0.7019
10461TIP3    H152798   4.317   2.232  13.389 -0.8765  1.4742  0.3742
10461TIP3    H252799   4.406   2.318  13.301  0.6238 -0.7145 -0.3246
10462TIP3   OH252800   6.542   2.422  13.895 -0.0812 -0.3321 -0.3264
10462TIP3    H152801   6.503   2.389  13.814 -0.2203  0.1764 -0.4672
10462TIP3    H252802   6.526   2.516  13.893  2.0428  0.0636 -0.8660
10463TIP3   OH252803   5.743   5.991   3.598  0.1601 -0.6473 -0.2150
10463TIP3    H152804   5.736   6.061   3.663  0.7687 -1.0532  0.2949
10463TIP3    H252805   5.809   6.021   3.536 -0.7504 -0.0542 -0.9230
10464TIP3   OH252806   4.451   4.872   2.621 -0.0329 -0.5763 -0.0757
10464TIP3    H152807   4.451   4.920   2.538  0.7920  0.0042  0.2532
10464TIP3    H252808   4.484   4.785   2.598  0.0895 -0.4523 -0.3668
10465TIP3   OH252809   1.292   6.753   5.393  0.0196  0.0959 -0.3689
10465TIP3    H152810   1.371   6.804   5.411  0.1249 -0.0862 -0.3164
10465TIP3    H252811   1.256   6.792   5.314 -0.0101  0.3822 -0.2161
10466TIP3   OH252812   4.793   4.974   1.778  0.0830  0.4812 -0.8366
10466TIP3    H152813   4.813   4.894   1.730 -0.6754  1.2002 -2.4367
10466TIP3    H252814   4.721   4.949   1.837 -0.4293  0.0663 -1.6181
10467TIP3   OH252815   3.937   0.778   3.301  0.8888  0.4868 -0.0835
10467TIP3    H152816   4.018   0.804   3.258  2.3824 -1.6203  1.2411
10467TIP3    H252817   3.892   0.724   3.235  1.1132  0.7271 -0.4386
10468TIP3   OH252818   3.601   2.640  16.060  1.0970  0.2639  0.7156
10468TIP3    H152819   3.644   2.561  16.091  1.8374  0.5664  0.4838
10468TIP3    H252820   3.509   2.630  16.086  0.8919 -1.2753 -0.4662
10469TIP3   OH252821   4.314   1.373   5.020  0.2236 -0.4497 -0.7527
10469TIP3    H152822   4.372   1.354   5.094  0.2001 -0.2196 -0.6747
10469TIP3    H252823   4.370   1.415   4.955  0.6275 -2.1737 -1.5677
10470TIP3   OH252824   0.048   2.440   2.240 -0.3784 -0.5430  0.5608
10470TIP3    H152825   0.125   2.464   2.189  0.3414 -1.4514  1.1971
10470TIP3    H252826  -0.012   2.401   2.176 -0.7195  0.9713 -0.1047
10471TIP3   OH252827   1.944   0.282   2.984 -0.5220 -0.4760 -0.1709
10471TIP3    H152828   1.913   0.372   2.992 -2.0013 -0.7237 -2.3622
10471TIP3    H252829   1.941   0.248   3.074 -2.1440  0.9829  0.3805
10472TIP3   OH252830   4.647   6.710   0.632 -0.4646 -0.8111 -0.1404
10472TIP3    H152831   4.670   6.802   0.629 -0.1778 -0.8555  0.4908
10472TIP3    H252832   4.605   6.698   0.717  2.2697 -1.8581  1.1936
10473TIP3   OH252833   4.434   4.141  12.927  0.2813 -0.4675 -0.0012
10473TIP3    H152834   4.487   4.066  12.900  1.1313  0.3223 -0.5706
10473TIP3    H252835   4.497   4.204  12.961 -0.4475 -0.0849  0.6592
10474TIP3   OH252836   1.503   1.176  11.177  0.8650 -0.2540 -0.1253
10474TIP3    H152837   1.422   1.126  11.175  0.4978  0.3049 -1.9039
10474TIP3    H252838   1.532   1.172  11.268 -1.0064 -0.6951  0.5054
10475TIP3   OH252839   0.404   5.842   2.415 -1.0159 -0.9469 -0.0815
10475TIP3    H152840   0.455   5.898   2.474  0.0325 -1.3480 -0.5731
10475TIP3    H252841   0.395   5.760   2.462 -2.0182 -0.5845  0.3826
10476TIP3   OH252842   4.466   6.117  15.277  0.0855  0.1714  0.0526
10476TIP3    H152843   4.422   6.040  15.313 -1.3245  0.9883  0.1497
10476TIP3    H252844   4.452   6.110  15.182  1.1173 -0.3560 -0.0835
10477TIP3   OH252845   1.185   4.858  16.489 -0.5467 -0.2870 -0.6427
10477TIP3    H152846   1.163   4.917  16.417 -1.5166  0.4661  0.2293
10477TIP3    H252847   1.127   4.783  16.476 -0.2438 -0.4565 -1.0213
10478TIP3   OH252848   5.423   4.679  11.183  0.7277 -0.1672 -0.7216
10478TIP3    H152849   5.331   4.671  11.209  1.0280 -0.5727  0.2742
10478TIP3    H252850   5.429   4.633  11.100  0.3690 -1.6329  0.0372
10479TIP3   OH252851   0.710   5.425   6.006  0.5021  0.0601 -0.6558
10479TIP3    H152852   0.690   5.396   6.095 -0.6100  0.6564 -0.6921
10479TIP3    H252853   0.665   5.362   5.950 -0.1475  0.6091 -0.7620
10480TIP3   OH252854   1.691   4.216  11.237 -0.7308  0.2400  0.3057
10480TIP3    H152855   1.670   4.270  11.162 -2.1120  0.2473  0.6816
10480TIP3    H252856   1.785   4.198  11.228 -0.7028  0.9304 -0.9501
10481TIP3   OH252857   0.953   5.172   0.877  0.3930 -0.1890 -0.6757
10481TIP3    H152858   1.045   5.150   0.891 -0.5591 -2.6015  3.0428
10481TIP3    H252859   0.907   5.088   0.877 -1.9311  0.9535 -2.0854
10482TIP3   OH252860   4.010   0.983  10.660 -0.1884  0.0574 -0.6829
10482TIP3    H152861   4.035   0.900  10.701  1.7025  0.5623 -0.7122
10482TIP3    H252862   4.028   1.049  10.728 -2.9559  0.3794 -0.1656
10483TIP3   OH252863   6.482   4.848  14.953  0.0228  0.0057 -0.4542
10483TIP3    H152864   6.518   4.935  14.936  0.2365  0.0650  0.2575
10483TIP3    H252865   6.395   4.849  14.912 -0.4902  0.9928  0.6026
10484TIP3   OH252866   1.275   5.454  16.007  0.2861 -0.2559  0.1048
10484TIP3    H152867   1.344   5.476  15.945 -0.4499  0.6964 -0.3959
10484TIP3    H252868   1.321   5.409  16.079  0.9320 -3.0636 -1.9071
10485TIP3   OH252869   2.541   5.976  16.228 -0.3707  0.0937 -0.6451
10485TIP3    H152870   2.590   6.025  16.163 -1.1708  0.6869 -0.8235
10485TIP3    H252871   2.597   5.976  16.306 -0.7489  2.2020 -0.3017
10486TIP3   OH252872   5.917   1.716   3.597  0.0665 -0.0901 -0.5155
10486TIP3    H152873   5.909   1.807   3.624  0.2774 -0.7238  1.9663
10486TIP3    H252874   6.009   1.705   3.573 -0.0727  0.4401 -1.3346
10487TIP3   OH252875   6.814   0.453  16.992  0.3571  0.0508  0.2499
10487TIP3    H152876   6.898   0.484  16.957  0.9442 -1.0503  0.6162
10487TIP3    H252877   6.836   0.372  17.039 -1.1387 -1.1029 -0.9239
10488TIP3   OH252878   5.833   3.841   5.888 -0.0291  0.2387  0.0497
10488TIP3    H152879   5.762   3.903   5.901 -1.7266 -1.6084  0.0931
10488TIP3    H252880   5.837   3.828   5.793  1.1945  1.3225 -0.0755
10489TIP3   OH252881   5.581   3.731  16.680 -0.0256 -0.6043 -0.4847
10489TIP3    H152882   5.497   3.778  16.683  0.1818 -0.2617  0.1778
10489TIP3    H252883   5.592   3.708  16.588 -2.3976 -3.4976 -0.1715
10490TIP3   OH252884   5.650   0.363  15.469  0.6497  0.3352  0.3617
10490TIP3    H152885   5.715   0.421  15.511 -0.9561  1.0025  2.0611
10490TIP3    H252886   5.631   0.406  15.385  0.0955  1.8749  1.2331
10491TIP3   OH252887   2.294   4.208   2.416 -0.0300 -0.1260 -0.5390
10491TIP3    H152888   2.244   4.233   2.338  1.0415 -0.9551 -1.5212
10491TIP3    H252889   2.380   4.183   2.383  0.0418 -1.7693  0.7656
10492TIP3   OH252890   5.600   5.626  16.575  0.0095 -0.6726  0.0859
10492TIP3    H152891   5.628   5.548  16.623  2.2411 -0.1812 -0.3144
10492TIP3    H252892   5.573   5.594  16.489  0.9878 -1.0131 -0.1020
10493TIP3   OH252893   4.250   4.572   3.334  0.6996 -0.1150  0.5605
10493TIP3    H152894   4.309   4.639   3.370  1.0715 -0.5908  0.8534
10493TIP3    H252895   4.303   4.526   3.269  0.5257 -0.2950  0.5456
10494TIP3   OH252896   3.793   0.907  15.479  0.1296  0.2905  0.1095
10494TIP3    H152897   3.787   0.853  15.558 -2.0795 -1.2673 -1.0100
10494TIP3    H252898   3.880   0.947  15.483  0.9615 -1.5569  2.1603
10495TIP3   OH252899   2.757   5.961   1.524 -0.1144 -0.2224 -0.1453
10495TIP3    H152900   2.721   5.886   1.477  1.0851 -0.7083 -0.3150
10495TIP3    H252901   2.719   6.037   1.480 -1.7237 -0.6980  0.3348
10496TIP3   OH252902   0.904   3.332   3.447  0.2454 -0.4890 -0.6820
10496TIP3    H152903   0.980   3.288   3.484  1.3709 -0.2915 -2.6606
10496TIP3    H252904   0.836   3.265   3.443  0.7028 -0.9928 -0.0675
10497TIP3   OH252905   6.590   0.819   5.424 -0.5103  0.0457  0.4848
10497TIP3    H152906   6.504   0.821   5.382 -0.3312  2.4758  0.0560
10497TIP3    H252907   6.633   0.742   5.388 -1.9470 -0.3587 -0.4483
10498TIP3   OH252908   4.324   2.762   1.741  0.3416 -0.3544 -0.1029
10498TIP3    H152909   4.395   2.722   1.791 -0.6309  0.0303  1.6722
10498TIP3    H252910   4.293   2.834   1.797 -0.8506  0.0389 -1.2355
10499TIP3   OH252911   4.005   1.357   3.258 -0.3126  0.5364  0.3680
10499TIP3    H152912   3.920   1.345   3.300 -0.7412  0.1926 -0.5795
10499TIP3    H252913   4.021   1.451   3.266 -1.0388  0.6951  0.0692
10500TIP3   OH252914   0.962   3.890   1.407  0.1086 -0.0451  0.1829
10500TIP3    H152915   0.916   3.858   1.485  1.0178 -2.2427 -0.0810
10500TIP3    H252916   1.052   3.904   1.437  0.9217 -2.6156 -0.7251
10501TIP3   OH252917   0.055   2.945   1.908 -0.2504  0.5112 -0.0772
10501TIP3    H152918   0.062   2.862   1.956 -1.2109  0.4009 -0.0920
10501TIP3    H252919   0.030   2.919   1.819 -2.1572  0.8473  0.3060
10502TIP3   OH252920   2.405   6.777   1.667  0.2589 -0.0919 -0.5628
10502TIP3    H152921   2.359   6.812   1.744 -0.2110 -0.1790 -0.7997
10502TIP3    H252922   2.336   6.761   1.603  0.5417 -0.9044 -0.6700
10503TIP3   OH252923   3.193   2.543  13.405 -0.3375  0.1727 -0.8831
10503TIP3    H152924   3.228   2.597  13.476 -0.4505  0.2857 -0.9129
10503TIP3    H252925   3.133   2.601  13.358 -1.5538 -0.3874 -0.0695
10504TIP3   OH252926   6.603   3.307   1.537  0.3411 -0.1691  0.3127
10504TIP3    H152927   6.531   3.317   1.600  1.1182 -3.3174  1.8891
10504TIP3    H252928   6.648   3.392   1.540 -1.5553  0.8877  1.5035
10505TIP3   OH252929   5.834   0.450   0.128 -0.4300 -0.2784  0.6842
10505TIP3    H152930   5.827   0.483   0.038 -1.4757 -2.0409  0.0813
10505TIP3    H252931   5.812   0.357   0.122  1.0614 -0.8176  2.5278
10506TIP3   OH252932   5.213   4.673   2.328  0.5960 -0.2553  0.2601
10506TIP3    H152933   5.284   4.609   2.319 -1.3482 -2.5803  0.4639
10506TIP3    H252934   5.242   4.748   2.276  2.8676 -1.3903 -0.2389
10507TIP3   OH252935   1.150   3.604   2.297  0.0567 -0.5802  0.1268
10507TIP3    H152936   1.087   3.673   2.277  1.0818  0.9489  1.8529
10507TIP3    H252937   1.230   3.651   2.320  1.2366 -2.4159 -0.0435
10508TIP3   OH252938   1.586   4.163   1.888 -0.3532  0.3784  0.3351
10508TIP3    H152939   1.633   4.229   1.939  0.9803  0.6782 -1.2158
10508TIP3    H252940   1.604   4.186   1.797 -0.9003 -1.4028 -0.2493
10509TIP3   OH252941   3.620   2.163  14.756 -0.1994  0.3816 -0.6661
10509TIP3    H152942   3.595   2.071  14.763  0.6899  0.0754 -1.2550
10509TIP3    H252943   3.598   2.187  14.667  1.6491  0.0481 -1.2676
10510TIP3   OH252944   0.334   1.603   3.362 -0.0981  0.2252  0.0385
10510TIP3    H152945   0.293   1.599   3.275  0.2505  0.0531 -0.1185
10510TIP3    H252946   0.418   1.645   3.348 -1.3914  3.3909  0.8266
10511TIP3   OH252947   1.348   0.266  14.077 -0.1512 -0.0302  0.1045
10511TIP3    H152948   1.420   0.255  14.139  0.4463  0.3269 -0.5157
10511TIP3    H252949   1.296   0.338  14.113 -0.3942 -0.5045  0.7253
10512TIP3   OH252950   3.792   1.893   3.165 -0.0021  0.6128 -0.0406
10512TIP3    H152951   3.865   1.935   3.210 -0.4976  2.3191 -0.7564
10512TIP3    H252952   3.814   1.899   3.072 -1.4554  2.0728 -0.3510
10513TIP3   OH252953   4.044   6.552   4.339  0.0266  0.3554  0.1675
10513TIP3    H152954   3.981   6.623   4.326 -0.4353 -0.3616 -1.7531
10513TIP3    H252955   4.097   6.552   4.259  0.6031 -0.9060  0.5238
10514TIP3   OH252956   0.679   2.678   3.085 -0.0386  0.0835 -0.0876
10514TIP3    H152957   0.603   2.708   3.035  0.7347  0.9666 -0.7476
10514TIP3    H252958   0.641   2.638   3.163 -1.1659  0.9458 -0.1694
10515TIP3   OH252959   3.262   6.708   6.711  0.2703  0.5392 -0.0990
10515TIP3    H152960   3.285   6.778   6.650 -0.5447  1.2687  0.4107
10515TIP3    H252961   3.284   6.628   6.664  1.7450  1.1301 -0.4773
10516TIP3   OH252962   1.469   3.608   2.103  0.5132  0.4861  0.2264
10516TIP3    H152963   1.502   3.623   2.015 -0.1759 -1.0033 -0.3212
10516TIP3    H252964   1.532   3.546   2.142 -1.0156 -1.6530 -0.5103
10517TIP3   OH252965   4.843   6.591   5.358  0.1132  0.0662  0.4181
10517TIP3    H152966   4.765   6.581   5.413 -0.3539  0.0989 -0.2117
10517TIP3    H252967   4.808   6.624   5.275  0.4063 -2.6431 -0.8871
10518TIP3   OH252968   4.394   4.070   3.668 -0.2340 -0.5704 -0.0128
10518TIP3    H152969   4.298   4.066   3.670 -0.2745 -1.2213 -1.8448
10518TIP3    H252970   4.422   3.993   3.716 -0.6155 -0.2999  0.6599
10519TIP3   OH252971   5.298   0.151  13.082 -0.5010 -0.2153  0.0856
10519TIP3    H152972   5.262   0.239  13.079 -0.3944 -0.0020  2.6024
10519TIP3    H252973   5.339   0.138  12.996 -2.3876  1.3189 -1.1169
10520TIP3   OH252974   4.669   6.334   4.650  0.1172 -0.4997  0.2300
10520TIP3    H152975   4.582   6.332   4.690 -0.2042  0.8785 -0.3649
10520TIP3    H252976   4.728   6.360   4.721 -0.2015  0.2240  0.2321
10521TIP3   OH252977   6.430   2.101  13.635  0.5766  0.0524  0.0937
10521TIP3    H152978   6.525   2.099  13.629  0.6372 -0.6487  1.0405
10521TIP3    H252979   6.409   2.049  13.713 -0.6254 -0.6431 -0.6461
10522TIP3   OH252980   4.743   5.270  12.912 -0.4876 -0.4940 -0.1187
10522TIP3    H152981   4.670   5.224  12.871 -0.5852 -0.4136 -0.0343
10522TIP3    H252982   4.800   5.295  12.839 -0.3868 -0.8316 -0.1556
10523TIP3   OH252983   4.921   1.380  14.314 -0.1244 -0.2826  0.1003
10523TIP3    H152984   4.998   1.436  14.305 -0.3569 -0.1665 -1.3698
10523TIP3    H252985   4.854   1.437  14.352  0.8307 -0.7189  2.6426
10524TIP3   OH252986   5.425   0.151   4.520  0.1251 -0.5986 -0.8330
10524TIP3    H152987   5.391   0.172   4.433  0.6124  0.2128 -0.8331
10524TIP3    H252988   5.389   0.219   4.577 -0.2925 -1.1997 -0.3717
10525TIP3   OH252989   4.699   2.802  12.058  0.6755  0.0497  0.0150
10525TIP3    H152990   4.612   2.823  12.023  0.7792 -0.5640 -0.6169
10525TIP3    H252991   4.702   2.706  12.060  1.8272  0.0286 -1.2339
10526TIP3   OH252992   5.089   6.587  14.891 -0.1669  0.3313 -0.2771
10526TIP3    H152993   5.019   6.647  14.916 -0.6637  0.2827 -1.4734
10526TIP3    H252994   5.140   6.635  14.826  0.1569 -0.0990 -0.3467
10527TIP3   OH252995   5.439   0.384   1.494 -0.6641 -0.4282  0.2210
10527TIP3    H152996   5.479   0.311   1.447 -0.9308 -0.1947 -0.3846
10527TIP3    H252997   5.362   0.345   1.537  0.9857 -1.2235  2.6699
10528TIP3   OH252998   3.090   6.589  16.420 -0.4634  0.1153 -0.2392
10528TIP3    H152999   3.166   6.551  16.377 -0.5342 -0.0622 -0.2101
10528TIP3    H253000   3.031   6.612  16.348  0.2168  1.5994 -0.3600
10529TIP3   OH253001   1.390   4.791  11.616 -0.6778  0.6635 -0.2109
10529TIP3    H153002   1.467   4.770  11.562 -0.5096 -0.1899  0.3377
10529TIP3    H253003   1.425   4.841  11.689 -0.4492 -0.6608  0.6230
10530TIP3   OH253004   2.876   1.116  15.055  0.6650  0.4490  0.1997
10530TIP3    H153005   2.936   1.076  14.992 -0.0517 -1.1819  0.4980
10530TIP3    H253006   2.923   1.110  15.139  0.6691  0.4992  0.2010
10531TIP3   OH253007   5.474   6.179  11.958 -0.2554  0.0086 -0.1553
10531TIP3    H153008   5.502   6.253  12.013  3.6310  0.1123 -1.9036
10531TIP3    H253009   5.426   6.219  11.886  0.4571  0.6877 -0.2671
10532TIP3   OH253010   6.073   4.088   2.577 -0.3231  0.4243  0.2426
10532TIP3    H153011   6.092   4.009   2.628 -2.2888 -0.2637  0.0071
10532TIP3    H253012   6.157   4.132   2.569  0.7379 -1.3580  0.8662
10533TIP3   OH253013   0.911   6.448  13.612  0.3882 -0.2640 -0.7172
10533TIP3    H153014   0.918   6.435  13.707  0.5815  1.2009 -0.5046
10533TIP3    H253015   0.855   6.525  13.602 -1.5984 -1.7845 -1.9017
10534TIP3   OH253016   3.785   3.852  12.993 -0.2235 -0.2612 -0.0664
10534TIP3    H153017   3.768   3.850  13.087  0.4294 -2.8634  0.0894
10534TIP3    H253018   3.862   3.908  12.983  0.3131 -0.7622  1.0999
10535TIP3   OH253019   3.109   0.328  15.406 -0.1186  0.0583 -0.0772
10535TIP3    H153020   3.059   0.249  15.427  1.3947 -0.7488  0.6024
10535TIP3    H253021   3.047   0.383  15.356 -0.4733 -2.6370 -2.8835
10536TIP3   OH253022   1.842   1.609  14.296 -0.7714 -0.2035  0.3841
10536TIP3    H153023   1.915   1.547  14.304  0.5821  1.3956  1.1032
10536TIP3    H253024   1.776   1.576  14.357 -0.4865 -1.4401  0.0590
10537TIP3   OH253025   2.941   3.349  15.860 -0.3683 -0.3980  0.2894
10537TIP3    H153026   2.999   3.399  15.803 -0.3531 -1.1963 -0.4009
10537TIP3    H253027   2.870   3.411  15.881 -0.6359 -0.2392 -0.9970
10538TIP3   OH253028   2.914   5.251   3.522 -0.6207  0.4803 -0.0845
10538TIP3    H153029   2.974   5.198   3.470  0.2566 -0.6008  1.8975
10538TIP3    H253030   2.916   5.338   3.482  1.9900  0.3703 -0.3117
10539TIP3   OH253031   0.629   0.198   4.552  0.2067 -0.3022 -0.1099
10539TIP3    H153032   0.667   0.192   4.464 -0.9191  0.8571 -0.7107
10539TIP3    H253033   0.599   0.109   4.571 -1.1008 -0.2482 -1.6698
10540TIP3   OH253034   2.523   3.141   0.679  0.8874  0.8145  0.1305
10540TIP3    H153035   2.554   3.051   0.683  0.0510  0.5049 -0.2267
10540TIP3    H253036   2.532   3.166   0.587 -1.6455  0.0693 -0.3929
10541TIP3   OH253037   5.330   3.001  11.300  0.2079  0.9849 -0.3482
10541TIP3    H153038   5.268   2.946  11.251  0.7634  0.7455 -0.7954
10541TIP3    H253039   5.339   3.080  11.247 -2.2715  2.5316  1.3593
10542TIP3   OH253040   3.182   5.350   5.272  0.4078  0.1394 -0.1699
10542TIP3    H153041   3.245   5.300   5.324 -1.0224 -0.1620  1.3200
10542TIP3    H253042   3.198   5.441   5.296  0.5313  0.1005 -0.1007
10543TIP3   OH253043   3.291   5.696  10.513  0.6809 -0.8375 -0.8549
10543TIP3    H153044   3.213   5.642  10.500  0.1253 -0.0639 -0.8067
10543TIP3    H253045   3.260   5.786  10.499  0.8636 -0.2265  2.0383
10544TIP3   OH253046   3.901   1.729  12.664 -0.2115  0.3091 -0.3725
10544TIP3    H153047   3.834   1.797  12.676  0.4488  1.0865 -1.0268
10544TIP3    H253048   3.911   1.692  12.752 -2.3473 -0.6641 -0.4667
10545TIP3   OH253049   3.923   1.828  13.698  0.0019  0.2120  1.2266
10545TIP3    H153050   3.919   1.816  13.793 -1.7496  2.5818  1.5521
10545TIP3    H253051   3.977   1.906  13.686  0.7828 -0.4592  0.1930
10546TIP3   OH253052   0.169   4.018   1.998  0.0458  0.7493 -0.3486
10546TIP3    H153053   0.114   4.084   2.040  0.3669 -0.7209  2.6745
10546TIP3    H253054   0.224   3.984   2.069 -1.1264 -3.7933 -1.2486
10547TIP3   OH253055   0.207   1.920   1.794  0.7414 -0.1066 -0.0586
10547TIP3    H153056   0.173   1.979   1.862  1.0851 -0.3649  0.3471
10547TIP3    H253057   0.142   1.924   1.724  0.6965  0.6606  0.0107
10548TIP3   OH253058   0.314   1.616  12.377  0.1979  0.2683  0.2171
10548TIP3    H153059   0.285   1.611  12.286 -2.0422  0.6107  0.8548
10548TIP3    H253060   0.233   1.617  12.428  1.3470  1.7354  2.1406
10549TIP3   OH253061   4.611   3.737  14.207 -0.4063  0.1837 -0.1992
10549TIP3    H153062   4.531   3.685  14.218  0.1329 -0.6372 -0.1055
10549TIP3    H253063   4.656   3.730  14.291 -0.4571  1.0459 -0.0912
10550TIP3   OH253064   0.908   6.188   4.107  0.3499 -1.1097  1.4642
10550TIP3    H153065   0.972   6.253   4.078 -1.2538 -0.2577 -0.3913
10550TIP3    H253066   0.852   6.234   4.169  1.1213 -1.6858  2.6267
10551TIP3   OH253067   6.191   1.477  11.554 -0.0579  0.2778 -0.1489
10551TIP3    H153068   6.272   1.528  11.560  0.5589 -0.7135  0.2852
10551TIP3    H253069   6.136   1.510  11.625  0.7255 -0.2962  0.7554
10552TIP3   OH253070   4.499   0.116   0.969  0.4646  0.6841 -0.7437
10552TIP3    H153071   4.416   0.129   1.015 -0.5216 -0.3599 -2.1031
10552TIP3    H253072   4.473   0.105   0.877  2.0414 -0.3523 -1.1037
10553TIP3   OH253073   4.902   2.704  16.239 -0.2577  0.2209  0.4795
10553TIP3    H153074   4.884   2.700  16.333  2.8646  2.9884  1.3982
10553TIP3    H253075   4.944   2.620  16.219  0.7420  0.3195  2.0387
10554TIP3   OH253076   3.965   4.088  12.711 -0.3594  0.5524  0.2825
10554TIP3    H153077   3.954   3.994  12.692 -1.0318  0.5342  0.7415
10554TIP3    H253078   3.915   4.132  12.643 -0.3564  0.5718  0.2930
10555TIP3   OH253079   1.887   3.011   6.088  0.0878 -0.6240  1.1083
10555TIP3    H153080   1.811   3.038   6.140  1.0767  0.8897  1.8273
10555TIP3    H253081   1.939   3.091   6.078  1.7087 -1.6705  0.8233
10556TIP3   OH253082   3.610   5.724   1.010 -0.1464 -0.1181 -0.5193
10556TIP3    H153083   3.527   5.694   1.048  0.7459 -0.1829  1.4946
10556TIP3    H253084   3.593   5.815   0.985 -0.7608 -0.0512  0.1019
10557TIP3   OH253085   3.457   2.780   0.937 -0.2021  0.0371 -0.1054
10557TIP3    H153086   3.397   2.814   0.871 -2.1288  1.9312  2.4166
10557TIP3    H253087   3.399   2.744   1.005  1.6845 -4.1743 -0.3967
10558TIP3   OH253088   0.745   4.808  11.240  0.3888  0.0024  0.0319
10558TIP3    H153089   0.710   4.757  11.313 -2.8988  0.6420 -0.9774
10558TIP3    H253090   0.703   4.893  11.247  2.5936  1.2456 -0.7547
10559TIP3   OH253091   6.748   0.546   3.857 -0.5146 -0.5483 -0.0011
10559TIP3    H153092   6.686   0.482   3.821  0.6759 -2.0519  0.5372
10559TIP3    H253093   6.706   0.575   3.938 -1.0729 -0.6239 -0.2527
10560TIP3   OH253094   3.424   5.923   4.096 -0.0149 -0.3182  0.0363
10560TIP3    H153095   3.407   6.017   4.109 -1.0071 -0.4150 -0.4067
10560TIP3    H253096   3.435   5.914   4.001  0.6628 -0.5718  0.1341
10561TIP3   OH253097   1.385   3.844  14.093  0.2641 -0.5737  0.1620
10561TIP3    H153098   1.324   3.911  14.123  0.7651  0.2028 -0.5289
10561TIP3    H253099   1.438   3.824  14.171 -0.1747 -0.4899  0.4848
10562TIP3   OH253100   0.830   2.832  12.383 -0.1253  0.2000  0.0389
10562TIP3    H153101   0.906   2.845  12.326  0.0918 -0.0368  0.2731
10562TIP3    H253102   0.795   2.920  12.395 -0.8335  0.1377 -1.3503
10563TIP3   OH253103   2.197   2.026  15.210 -0.0382  0.7231  0.7280
10563TIP3    H153104   2.158   1.954  15.260 -0.7307  1.9134  1.9572
10563TIP3    H253105   2.274   2.051  15.260  1.0983 -0.1430 -0.5185
10564TIP3   OH253106   1.554   3.801  14.306  0.0925  0.5401 -0.6696
10564TIP3    H153107   1.568   3.844  14.390 -0.7454 -0.1813 -0.1530
10564TIP3    H253108   1.555   3.708  14.326 -2.4603  0.3723 -1.0453
10565TIP3   OH253109   6.440   2.405   6.209 -0.1761 -0.1998  0.2788
10565TIP3    H153110   6.442   2.501   6.201  0.9714  0.0645  2.8873
10565TIP3    H253111   6.358   2.387   6.255 -1.0592 -0.6446 -1.3912
10566TIP3   OH253112   0.593   6.598  10.518  0.3559 -0.3419 -0.1074
10566TIP3    H153113   0.667   6.547  10.550 -0.9640 -2.5376 -0.3408
10566TIP3    H253114   0.546   6.624  10.597 -0.3206 -1.7143 -0.0189
10567TIP3   OH253115   4.532   5.353  16.584  0.2725 -0.6020  0.8507
10567TIP3    H153116   4.455   5.363  16.640 -1.2931 -0.0273 -1.2770
10567TIP3    H253117   4.597   5.413  16.622 -1.4719  1.3851  0.8848
10568TIP3   OH253118   0.187   6.273   0.924  0.5559 -0.0776  0.3173
10568TIP3    H153119   0.093   6.280   0.909  0.5144  0.5786  0.8467
10568TIP3    H253120   0.195   6.216   1.000  0.4892  1.2675  1.3679
10569TIP3   OH253121   2.141   0.772  12.501  0.3552  0.0837 -0.0902
10569TIP3    H153122   2.073   0.726  12.551  1.4905 -0.5929  0.8820
10569TIP3    H253123   2.097   0.849  12.466 -0.3414  1.0607  2.6527
10570TIP3   OH253124   4.227   3.229  14.332 -0.2518 -0.3895  1.1504
10570TIP3    H153125   4.232   3.134  14.321 -1.9091 -0.4353  0.3666
10570TIP3    H253126   4.280   3.248  14.410 -1.3790 -2.1948  2.4369
10571TIP3   OH253127   0.836   5.407  14.667  0.0512 -0.2003 -0.5463
10571TIP3    H153128   0.891   5.376  14.595  0.3443 -1.6095  0.2469
10571TIP3    H253129   0.897   5.447  14.729 -0.1292  0.4734 -0.7952
10572TIP3   OH253130   4.903   3.788  16.594 -0.5727 -0.6725  0.4361
10572TIP3    H153131   4.826   3.844  16.593  0.0429  0.2161 -1.2253
10572TIP3    H253132   4.942   3.804  16.680 -0.5949  1.2506  0.1501
10573TIP3   OH253133   2.602   1.844  14.714  0.4420 -0.5573 -0.0667
10573TIP3    H153134   2.687   1.816  14.747  0.2390  1.2854  2.2736
10573TIP3    H253135   2.553   1.762  14.703  0.8087 -1.4435  3.6108
10574TIP3   OH253136   6.214   4.218  14.123 -0.8038  0.0674 -0.3849
10574TIP3    H153137   6.278   4.189  14.058 -0.6855  0.9434 -0.6711
10574TIP3    H253138   6.226   4.313  14.128  0.4989 -0.1637  2.2925
10575TIP3   OH253139   0.836   3.955  12.340 -0.1121  0.0177  0.3547
10575TIP3    H153140   0.788   4.037  12.323  0.2696  0.6864  2.2471
10575TIP3    H253141   0.869   3.965  12.429  0.0879 -2.1530  0.5722
10576TIP3   OH253142   6.801   3.260   4.103  0.1973  0.3243  0.5585
10576TIP3    H153143   6.807   3.352   4.128  3.4359  0.6980 -1.0423
10576TIP3    H253144   6.825   3.259   4.010 -0.0276 -2.1298  0.4542
10577TIP3   OH253145   6.414   2.289  12.355 -0.1222  0.1255 -0.0797
10577TIP3    H153146   6.455   2.243  12.282  0.0007 -0.7090  0.5036
10577TIP3    H253147   6.486   2.309  12.415  0.0218  2.1899 -0.8758
10578TIP3   OH253148   6.030   3.871   4.367  0.4930 -0.0224  0.7844
10578TIP3    H153149   6.025   3.828   4.452 -1.2779 -0.7048  0.3726
10578TIP3    H253150   6.023   3.799   4.304 -1.8505  0.7270  0.0815
10579TIP3   OH253151   4.240   1.099  12.235  0.2846  0.0195  0.3459
10579TIP3    H153152   4.306   1.145  12.286 -0.1455  0.8987  0.1326
10579TIP3    H253153   4.288   1.059  12.162  0.7835 -0.5947  0.9924
10580TIP3   OH253154   0.041   6.239   5.625  0.0045 -0.1759  0.3093
10580TIP3    H153155   0.068   6.326   5.654 -0.8698  0.1260  0.2415
10580TIP3    H253156  -0.052   6.235   5.644 -0.3354 -0.4383 -1.3307
10581TIP3   OH253157   2.546   6.724  16.788  0.9374  0.0329  0.1358
10581TIP3    H153158   2.475   6.744  16.727  2.8256 -0.0583 -2.2807
10581TIP3    H253159   2.547   6.629  16.794 -0.2970  0.0871  1.7284
10582TIP3   OH253160   3.478   2.827   5.890  0.3741 -0.1555 -0.5328
10582TIP3    H153161   3.387   2.820   5.918  0.7890 -0.3694  0.8519
10582TIP3    H253162   3.484   2.913   5.848 -0.2638  0.2829  0.2449
10583TIP3   OH253163   3.694   0.300   4.344  0.2226 -1.0631 -0.3474
10583TIP3    H153164   3.617   0.288   4.290 -1.1423 -1.3452  1.5695
10583TIP3    H253165   3.763   0.251   4.299 -0.9983 -1.7874 -1.4895
10584TIP3   OH253166   0.419   1.404   5.919  0.6475 -0.2081 -0.2306
10584TIP3    H153167   0.346   1.368   5.869  1.1079 -1.0799 -0.3109
10584TIP3    H253168   0.488   1.419   5.854  1.3644 -1.6555  0.1334
10585TIP3   OH253169   1.486   1.422   2.717  0.3165 -0.3281  0.5142
10585TIP3    H153170   1.533   1.472   2.783 -0.5958 -0.0868  1.0014
10585TIP3    H253171   1.480   1.334   2.752 -0.7613 -0.0454  1.0981
10586TIP3   OH253172   2.568   5.596   4.788  0.4223 -0.2864 -0.2383
10586TIP3    H153173   2.522   5.667   4.743 -0.3136 -0.3790  0.3476
10586TIP3    H253174   2.654   5.592   4.745  0.0072  0.1096 -1.1248
10587TIP3   OH253175   3.302   6.520   3.404 -0.0203  0.4216  0.5489
10587TIP3    H153176   3.302   6.473   3.320  2.7913 -1.0827  1.2387
10587TIP3    H253177   3.323   6.611   3.380  0.8966 -0.0116 -0.4060
10588TIP3   OH253178   6.429   4.622  12.956 -0.4380 -0.1324  0.2209
10588TIP3    H153179   6.363   4.637  13.024  0.9129 -0.5500  1.6908
10588TIP3    H253180   6.434   4.527  12.948 -0.0592 -0.1014  0.0701
10589TIP3   OH253181   3.546   4.387   3.555  0.8910 -0.1045  0.0286
10589TIP3    H153182   3.534   4.302   3.513 -1.9451  0.5064 -0.6326
10589TIP3    H253183   3.634   4.415   3.529  1.9682 -2.8500  0.4126
10590TIP3   OH253184   4.566   3.351   2.734 -0.5062  0.0623  0.1320
10590TIP3    H153185   4.564   3.307   2.650 -2.1020  0.7986 -0.2572
10590TIP3    H253186   4.635   3.306   2.783  0.1969 -0.6210 -1.4145
10591TIP3   OH253187   6.336   3.993   4.913  0.2305 -0.0964  0.1296
10591TIP3    H153188   6.283   3.928   4.867 -1.1115  1.3202 -0.4142
10591TIP3    H253189   6.427   3.964   4.901 -0.3074 -1.5771 -0.5007
10592TIP3   OH253190   5.484   6.524   4.311  0.7504 -0.0257  0.0248
10592TIP3    H153191   5.573   6.527   4.348  0.5417  0.6598  0.4890
10592TIP3    H253192   5.494   6.561   4.223  0.9112  0.1597  0.1186
10593TIP3   OH253193   2.224   2.173   4.503  0.0502 -0.3764 -0.7218
10593TIP3    H153194   2.131   2.162   4.520  0.0564 -1.1785 -1.1356
10593TIP3    H253195   2.243   2.111   4.432  0.7767  0.1963 -1.0441
10594TIP3   OH253196   6.401   5.423  16.600  0.0836  0.4581  0.5462
10594TIP3    H153197   6.318   5.409  16.554  0.4046 -1.4131  0.4801
10594TIP3    H253198   6.468   5.400  16.536  0.6541  1.2352  0.8483
10595TIP3   OH253199   2.897   4.134   5.238  0.9673 -0.1616 -0.3020
10595TIP3    H153200   2.990   4.153   5.226  0.5568  1.1952 -1.5256
10595TIP3    H253201   2.853   4.177   5.165 -0.7280  0.0498  0.7732
10596TIP3   OH253202   5.379   6.159   0.836 -0.6270  0.1902  0.2473
10596TIP3    H153203   5.449   6.138   0.898  0.4412 -2.6388 -1.7186
10596TIP3    H253204   5.419   6.218   0.773 -0.3432 -0.4942 -0.2207
10597TIP3   OH253205   3.442   3.676   1.969  0.6029 -0.3359  0.0798
10597TIP3    H153206   3.425   3.658   2.062  1.0170  0.2230  0.2703
10597TIP3    H253207   3.464   3.769   1.966  1.5241 -0.5580 -0.4363
10598TIP3   OH253208   2.873   4.290  12.786 -0.0192  0.0669  0.8244
10598TIP3    H153209   2.852   4.199  12.806 -0.0806 -0.0111  0.4150
10598TIP3    H253210   2.900   4.289  12.695 -2.0951  0.7730  0.1329
10599TIP3   OH253211   0.364   3.977  13.018 -0.2162 -0.7456  0.3854
10599TIP3    H153212   0.368   3.915  12.945  2.2677 -1.0828  0.7220
10599TIP3    H253213   0.280   3.958  13.061  0.0041 -3.1990 -0.1332
10600TIP3   OH253214   1.657   1.906  16.180 -0.6580  0.2668 -0.1515
10600TIP3    H153215   1.620   1.889  16.094 -0.2046  0.7649 -0.4513
10600TIP3    H253216   1.610   1.847  16.239  0.2756 -1.3732 -0.9948
10601TIP3   OH253217   1.054   4.244   3.059 -0.3166  0.0784  0.0709
10601TIP3    H153218   1.108   4.165   3.053 -1.2412 -0.5365 -0.3053
10601TIP3    H253219   1.105   4.311   3.013  1.2244  0.1615  1.7561
10602TIP3   OH253220   2.559   4.590  13.849  0.2179 -0.5294 -0.3735
10602TIP3    H153221   2.611   4.519  13.886  0.2477 -0.4755 -0.3118
10602TIP3    H253222   2.571   4.662  13.910  0.5330 -0.3354 -0.6572
10603TIP3   OH253223   3.234   0.227   4.930 -0.2392 -0.0414 -0.3463
10603TIP3    H153224   3.162   0.289   4.945  1.2892  1.7544  0.0320
10603TIP3    H253225   3.298   0.249   4.998 -0.5606 -3.6866  1.4045
10604TIP3   OH253226   5.603   6.054  14.955 -0.1570  0.1957  0.2411
10604TIP3    H153227   5.560   5.969  14.956  0.1556  0.0420  0.5123
10604TIP3    H253228   5.615   6.074  14.862  0.8719 -0.6096  0.1889
10605TIP3   OH253229   4.952   5.917  11.311 -0.0163 -0.1919  0.5006
10605TIP3    H153230   4.885   5.983  11.291  0.0981 -0.4515 -0.8485
10605TIP3    H253231   4.903   5.845  11.350 -0.5994 -0.5124 -0.7702
10606TIP3   OH253232   4.215   3.794   4.319  0.4589  0.5536 -0.2112
10606TIP3    H153233   4.169   3.769   4.239  0.1996 -0.4893  0.2423
10606TIP3    H253234   4.164   3.868   4.353 -1.1973 -0.8216  0.4871
10607TIP3   OH253235   6.774   5.219   0.796 -0.8655 -0.4962 -0.4933
10607TIP3    H153236   6.719   5.141   0.803 -2.9277  0.9759  0.9334
10607TIP3    H253237   6.717   5.286   0.757  0.7827  0.3905 -1.5193
10608TIP3   OH253238   5.131   5.120  13.521 -0.0451  0.2153  0.0174
10608TIP3    H153239   5.172   5.084  13.443  0.6264  2.1044 -0.5590
10608TIP3    H253240   5.060   5.059  13.541  0.5318 -0.9639 -1.3307
10609TIP3   OH253241   4.740   1.763  13.253  0.8935 -0.2284 -0.1479
10609TIP3    H153242   4.732   1.773  13.348  1.9959  2.6903 -0.2509
10609TIP3    H253243   4.653   1.782  13.219  0.4892 -1.3000  0.2415
10610TIP3   OH253244   3.108   3.077   2.815  0.1612  0.7509 -0.4722
10610TIP3    H153245   3.182   3.069   2.754 -0.8517 -0.8658 -1.5629
10610TIP3    H253246   3.144   3.048   2.899  1.0450  1.0348 -0.7339
10611TIP3   OH253247   4.907   6.090  13.427 -0.1153 -0.7585  0.4544
10611TIP3    H153248   4.974   6.070  13.362  0.8841  0.7020  0.9857
10611TIP3    H253249   4.844   6.019  13.419 -0.5409 -0.1621 -2.7652
10612TIP3   OH253250   6.134   5.316   5.037 -0.2462  0.1818  0.4917
10612TIP3    H153251   6.175   5.235   5.006 -0.5717  0.9940 -2.3012
10612TIP3    H253252   6.208   5.371   5.064  0.0067 -0.7489  1.8425
10613TIP3   OH253253   2.498   4.070  14.806  0.2252  0.9183 -0.4918
10613TIP3    H153254   2.501   4.137  14.738  1.3499  0.0477 -1.3534
10613TIP3    H253255   2.405   4.054  14.820 -0.0418  0.7979 -2.1834
10614TIP3   OH253256   2.664   5.896  14.341 -0.1565 -0.1394  0.2309
10614TIP3    H153257   2.647   5.969  14.282  1.2551  0.4231  0.4825
10614TIP3    H253258   2.577   5.864  14.365 -0.7687 -0.0782 -1.7514
10615TIP3   OH253259   5.219   4.920   5.137 -0.4166 -0.5373 -0.0880
10615TIP3    H153260   5.298   4.908   5.084 -0.7868 -2.0768 -0.3298
10615TIP3    H253261   5.251   4.948   5.222  0.3523 -0.4635 -0.3963
10616TIP3   OH253262   5.827   3.206   4.619  0.0870  0.4693 -0.1851
10616TIP3    H153263   5.820   3.122   4.664 -1.1508  0.5370 -0.2197
10616TIP3    H253264   5.890   3.190   4.549  0.5636 -0.1679  0.3732
10617TIP3   OH253265   4.227   0.400  17.002  0.3079 -0.2015  0.0586
10617TIP3    H153266   4.195   0.409  17.092 -1.2856  1.0222 -0.5732
10617TIP3    H253267   4.217   0.307  16.983  3.1714 -1.0134  1.9680
10618TIP3   OH253268   1.101   4.224  14.463 -0.1422  0.0671  0.1917
10618TIP3    H153269   1.054   4.186  14.389 -1.0929  0.1858  0.7074
10618TIP3    H253270   1.137   4.148  14.510 -0.9129 -0.1247  0.4915
10619TIP3   OH253271   5.229   5.489  11.798  0.2542  0.6101 -0.4843
10619TIP3    H153272   5.172   5.503  11.723 -0.0477 -1.6856 -0.7633
10619TIP3    H253273   5.170   5.461  11.869  0.9165 -1.6262 -0.7282
10620TIP3   OH253274   5.082   3.744   4.775  0.9470 -0.0855  0.3928
10620TIP3    H153275   5.141   3.819   4.766 -0.4365  0.9515 -0.2716
10620TIP3    H253276   5.098   3.692   4.696  0.7859  0.3479  0.0664
10621TIP3   OH253277   4.114   6.194   0.119  0.5005  0.2611 -0.2574
10621TIP3    H153278   4.094   6.285   0.143  0.8548  0.0253  1.0193
10621TIP3    H253279   4.175   6.165   0.187 -0.5810 -1.3279  0.0856
10622TIP3   OH253280   0.033   4.017  14.185 -0.0103 -0.0858  0.0585
10622TIP3    H153281  -0.007   4.079  14.124 -1.2072  0.0349  0.9168
10622TIP3    H253282   0.124   4.010  14.157 -0.0589  1.4096 -0.5762
10623TIP3   OH253283   3.574   4.366  14.154 -0.7336 -0.0143 -0.7320
10623TIP3    H153284   3.534   4.308  14.088 -1.2011  0.7058 -1.0962
10623TIP3    H253285   3.570   4.453  14.114 -1.0128  0.4300  0.2444
10624TIP3   OH253286   1.234   2.042  15.507  0.3662  0.1650  0.3653
10624TIP3    H153287   1.176   2.008  15.575 -0.0863  0.7558  0.2779
10624TIP3    H253288   1.230   2.137  15.517  0.5185  0.2467 -0.3071
10625TIP3   OH253289   2.278   6.453   3.248 -0.0412 -0.1774 -0.7394
10625TIP3    H153290   2.193   6.491   3.271 -0.1880 -0.8378 -0.1615
10625TIP3    H253291   2.341   6.521   3.272 -0.1495 -0.9633  2.0733
10626TIP3   OH253292   3.756   3.085  13.569 -0.2450 -0.3869 -0.4076
10626TIP3    H153293   3.668   3.111  13.544 -0.3957 -0.9625 -0.4880
10626TIP3    H253294   3.769   3.000  13.526  0.8395  0.2948 -1.5014
10627TIP3   OH253295   3.914   0.815   0.993 -0.0670  0.0577  0.1963
10627TIP3    H153296   3.886   0.768   1.071  0.2786 -1.0038 -0.2874
10627TIP3    H253297   3.975   0.881   1.025 -1.7004  1.1937  1.0538
10628TIP3   OH253298   0.596   3.980  14.513  0.3512 -0.2342  0.1831
10628TIP3    H153299   0.626   4.054  14.565  0.7254 -0.7654  0.7500
10628TIP3    H253300   0.652   3.907  14.541 -0.6992 -0.9766  0.4139
10629TIP3   OH253301   6.075   3.303  15.059 -0.0413  0.7073  0.2843
10629TIP3    H153302   6.051   3.388  15.022 -0.0252  0.4969 -0.2254
10629TIP3    H253303   6.133   3.324  15.132  0.5872  1.1113 -0.3209
10630TIP3   OH253304   1.694   1.603  12.937  0.4628 -0.1661  0.4140
10630TIP3    H153305   1.665   1.692  12.918 -1.0910 -0.5060  1.0220
10630TIP3    H253306   1.762   1.585  12.872  0.6909  1.3887  0.1770
10631TIP3   OH253307   6.474   2.890  14.254  0.0266 -0.5354 -0.3430
10631TIP3    H153308   6.428   2.884  14.337 -0.8507  0.2038 -0.7590
10631TIP3    H253309   6.408   2.920  14.192  0.5312 -1.5483 -1.4206
10632TIP3   OH253310   0.532   3.857  16.324  0.8276 -0.6730 -0.0766
10632TIP3    H153311   0.588   3.818  16.257  1.8519 -1.1503  1.0239
10632TIP3    H253312   0.485   3.783  16.362  1.4719 -0.6340  0.8270
10633TIP3   OH253313   3.206   1.042   1.557  0.2670  0.6281  0.1903
10633TIP3    H153314   3.199   1.128   1.515 -1.0729  0.7744  0.6635
10633TIP3    H253315   3.165   0.981   1.495  3.4311 -0.1713 -1.3331
10634TIP3   OH253316   4.901   5.504  11.920 -0.8490  0.5883 -0.3570
10634TIP3    H153317   4.973   5.552  11.960 -0.7457  1.4901 -1.5616
10634TIP3    H253318   4.924   5.501  11.827 -1.5030 -0.6784 -0.4988
10635TIP3   OH253319   6.424   3.820  15.498 -0.1790  0.3484  0.2282
10635TIP3    H153320   6.400   3.808  15.406 -2.0961 -2.9537  0.9942
10635TIP3    H253321   6.344   3.850  15.541 -0.1081 -0.8111  1.2250
10636TIP3   OH253322   4.245   1.056  15.943  0.1773  0.2448  0.0554
10636TIP3    H153323   4.331   1.055  15.901  0.1865  0.9953  0.0364
10636TIP3    H253324   4.235   0.969  15.981  1.5186  0.5719  1.2046
10637TIP3   OH253325   5.938   2.272   2.760 -0.7280  0.6772 -0.0731
10637TIP3    H153326   5.932   2.309   2.672 -0.2473  1.3325  0.1662
10637TIP3    H253327   6.025   2.296   2.791 -0.3543 -0.7461  0.0585
10638TIP3   OH253328   3.570   2.303   4.185  0.2815  0.6329  0.4180
10638TIP3    H153329   3.590   2.348   4.267  1.2692  1.1060 -0.0614
10638TIP3    H253330   3.557   2.212   4.210  0.5842  0.7692  1.0923
10639TIP3   OH253331   5.812   2.962   5.728  0.3689  0.5396  0.2319
10639TIP3    H153332   5.746   3.024   5.696 -1.5155 -1.8684 -0.9534
10639TIP3    H253333   5.804   2.965   5.823 -0.8324  0.9933  0.1372
10640TIP3   OH253334   1.322   3.722  11.654  0.2689 -0.1704 -0.1116
10640TIP3    H153335   1.244   3.772  11.629  0.4367  0.3276  0.3380
10640TIP3    H253336   1.367   3.704  11.572 -0.8297 -1.3335 -0.4984
10641TIP3   OH253337   3.643   3.662   4.784  0.0426  0.3603  0.2568
10641TIP3    H153338   3.670   3.696   4.869 -2.9312  0.2691  1.3718
10641TIP3    H253339   3.668   3.570   4.786  0.8040  0.5710  0.6524
10642TIP3   OH253340   6.593   3.620   5.686  0.2858 -0.0056 -0.3970
10642TIP3    H153341   6.674   3.609   5.636  0.3010 -0.3478 -0.3010
10642TIP3    H253342   6.593   3.712   5.712  0.3615  0.1342 -0.8807
10643TIP3   OH253343   2.798   4.487   3.422  0.0022  0.0102  0.5243
10643TIP3    H153344   2.826   4.567   3.376  0.7273 -0.0704  0.8080
10643TIP3    H253345   2.870   4.468   3.482 -1.3659  0.7023  2.4893
10644TIP3   OH253346   2.121   6.689  11.420  0.2020 -0.1383  0.6758
10644TIP3    H153347   2.040   6.696  11.471 -1.0497 -0.8058 -1.1295
10644TIP3    H253348   2.143   6.596  11.421  0.9996  0.0403  1.1751
10645TIP3   OH253349   2.029   4.723  15.696  0.6525  0.8146  0.1960
10645TIP3    H153350   2.095   4.711  15.764  1.9219 -0.9485 -1.2312
10645TIP3    H253351   2.063   4.794  15.641  1.5066 -0.1675 -0.6043
10646TIP3   OH253352   3.384   6.299   2.531  0.1345  0.5717 -0.6729
10646TIP3    H153353   3.479   6.308   2.523 -0.0301  1.2539 -2.4539
10646TIP3    H253354   3.357   6.376   2.581  0.6434 -0.4945  1.3433
10647TIP3   OH253355   5.443   0.028   5.427 -0.6838  0.2922  0.2278
10647TIP3    H153356   5.493  -0.001   5.503  1.4062  1.4093 -0.6137
10647TIP3    H253357   5.450  -0.045   5.365 -1.0730 -0.0130  0.5456
10648TIP3   OH253358   0.466   3.720  16.585 -0.3610 -0.2435 -0.2845
10648TIP3    H153359   0.453   3.712  16.680 -1.8647  0.3207 -0.4053
10648TIP3    H253360   0.381   3.696  16.548 -1.6034  4.5254 -1.1861
10649TIP3   OH253361   2.868   1.892  12.583  0.2926 -0.1983  0.6899
10649TIP3    H153362   2.826   1.811  12.555 -1.2460  1.1162 -1.0936
10649TIP3    H253363   2.910   1.870  12.666  0.0972 -2.8361  0.1731
10650TIP3   OH253364   0.761   6.087   0.911  0.0226  0.2358  0.1013
10650TIP3    H153365   0.784   6.033   0.835 -1.3815  0.3151 -0.4124
10650TIP3    H253366   0.834   6.149   0.919  1.0572 -0.9303 -0.0558
10651TIP3   OH253367   3.219   3.694   5.011  0.4117 -0.0771 -0.2133
10651TIP3    H153368   3.288   3.725   5.070 -1.7270 -2.1975  3.8419
10651TIP3    H253369   3.162   3.770   5.001 -0.8433 -0.3500  3.3553
10652TIP3   OH253370   1.131   0.036   1.291  0.0882 -0.1508  0.1974
10652TIP3    H153371   1.146   0.130   1.275  2.9420 -0.7885 -1.6159
10652TIP3    H253372   1.050   0.017   1.244 -1.0437  1.5427  1.3440
10653TIP3   OH253373   2.344   3.227  11.147 -0.1763  0.2982  0.0754
10653TIP3    H153374   2.295   3.148  11.124 -1.0734  1.0310 -0.6479
10653TIP3    H253375   2.361   3.270  11.063  0.0742  0.9959  0.4719
10654TIP3   OH253376   1.328   4.704   2.793 -0.3053  0.0549 -0.7549
10654TIP3    H153377   1.277   4.784   2.801 -0.6826 -0.2688  0.3232
10654TIP3    H253378   1.270   4.643   2.746  0.3239  0.6635 -2.4022
10655TIP3   OH253379   4.410   0.348  10.655 -0.3331 -0.3178  0.0739
10655TIP3    H153380   4.424   0.371  10.564  3.2620  0.2346  0.6196
10655TIP3    H253381   4.401   0.432  10.700  0.9241 -0.4014  0.5398
10656TIP3   OH253382   2.134   3.215   5.909  0.2776  0.7425  0.3486
10656TIP3    H153383   2.202   3.224   5.843  1.0043  1.4113  1.1689
10656TIP3    H253384   2.165   3.146   5.967 -0.3339  0.1954  0.0443
10657TIP3   OH253385   2.113   5.904  15.142 -0.0095  0.4361 -0.1415
10657TIP3    H153386   2.034   5.851  15.133 -0.2978  0.7782  0.3613
10657TIP3    H253387   2.134   5.899  15.235 -0.7797  2.2766  0.1635
10658TIP3   OH253388   3.060   4.981   2.664  0.6218 -0.7429 -0.0499
10658TIP3    H153389   3.058   5.071   2.632  1.8774 -0.7906 -0.3287
10658TIP3    H253390   3.007   4.983   2.744  1.1378  0.3897  0.2887
10659TIP3   OH253391   5.686   2.242  13.877 -0.0171  0.2523  0.0867
10659TIP3    H153392   5.706   2.288  13.959 -1.2237  0.7006  0.1411
10659TIP3    H253393   5.665   2.153  13.905  1.1763 -0.0546  0.0874
10660TIP3   OH253394   1.186   4.107  13.606 -0.1421 -0.3742  0.0246
10660TIP3    H153395   1.212   4.161  13.681  0.3890 -1.1199  0.3809
10660TIP3    H253396   1.263   4.053  13.587 -0.6218 -0.9106 -0.4162
10661TIP3   OH253397   6.640   6.590   0.436 -0.1080 -0.0184 -0.8250
10661TIP3    H153398   6.703   6.520   0.453  0.3200  0.5648  0.0190
10661TIP3    H253399   6.664   6.660   0.496 -0.9243  0.6178 -1.2176
10662TIP3   OH253400   5.703   3.460  11.316 -0.1680 -0.5217 -0.8564
10662TIP3    H153401   5.703   3.537  11.259 -1.2170  0.3350  0.2545
10662TIP3    H253402   5.791   3.460  11.355 -0.8430  1.4830  0.8512
10663TIP3   OH253403   5.617   2.385   3.138  0.7734  0.4429 -0.4418
10663TIP3    H153404   5.546   2.438   3.176 -0.0311 -0.8272 -0.1108
10663TIP3    H253405   5.671   2.362   3.214  1.1188  0.7681 -0.5861
10664TIP3   OH253406   0.218   1.266   2.933  0.0877 -0.2610  0.1898
10664TIP3    H153407   0.127   1.254   2.959 -0.3682  1.1495 -0.6273
10664TIP3    H253408   0.214   1.320   2.854  1.6172 -0.5616 -0.1388
10665TIP3   OH253409   0.931   1.819  15.608  0.4590  0.2083  0.6138
10665TIP3    H153410   0.877   1.889  15.572 -0.1758 -1.5640 -2.2156
10665TIP3    H253411   0.870   1.766  15.660  0.0848 -0.2591 -0.2899
10666TIP3   OH253412   1.308   3.291   0.659  0.5543  0.5005  0.0423
10666TIP3    H153413   1.381   3.234   0.683 -0.7513 -0.2379  2.7643
10666TIP3    H253414   1.284   3.334   0.742 -2.2779  0.4406 -0.6575
10667TIP3   OH253415   5.259   2.855   0.900 -0.7252  0.2758 -0.0297
10667TIP3    H153416   5.276   2.826   0.811 -1.4806 -0.2592 -0.0129
10667TIP3    H253417   5.196   2.927   0.890  0.7499  1.6165 -0.0397
10668TIP3   OH253418   2.199   0.429   4.842 -0.2968 -0.0506 -0.0571
10668TIP3    H153419   2.258   0.449   4.915 -0.1187 -0.6928 -0.0166
10668TIP3    H253420   2.112   0.428   4.881 -0.3464  0.9386 -0.1239
10669TIP3   OH253421   6.781   4.276  11.843 -0.1366 -0.0814  0.5803
10669TIP3    H153422   6.724   4.254  11.917 -1.1496 -0.7696 -0.3652
10669TIP3    H253423   6.834   4.198  11.829  0.1564  0.1009  0.6591
10670TIP3   OH253424   3.494   0.336  12.808  0.6925 -0.3014  0.2845
10670TIP3    H153425   3.420   0.292  12.766  1.8301 -0.9410 -1.0916
10670TIP3    H253426   3.455   0.378  12.885 -1.0242 -0.9689 -0.1687
10671TIP3   OH253427   6.103   6.194  16.738 -0.1325  0.4442  0.2397
10671TIP3    H153428   6.071   6.108  16.712  0.2592  0.1963  0.5735
10671TIP3    H253429   6.024   6.242  16.763 -0.3701  0.2434 -0.1050
10672TIP3   OH253430   1.663   3.133   4.079  0.0516 -0.3605 -0.3859
10672TIP3    H153431   1.606   3.057   4.080 -1.6814  0.8718  0.5767
10672TIP3    H253432   1.619   3.196   4.021  0.8246  0.3580 -0.2237
10673TIP3   OH253433   1.649   5.512  15.553 -0.2806 -0.2586  0.6194
10673TIP3    H153434   1.725   5.561  15.585 -0.7779  2.2580 -1.6945
10673TIP3    H253435   1.672   5.487  15.464 -1.0884 -2.0701  0.8707
10674TIP3   OH253436   0.504   2.164  10.473  0.4765 -0.4447 -0.0428
10674TIP3    H153437   0.436   2.195  10.532  1.6791  0.9449  0.6928
10674TIP3    H253438   0.483   2.072  10.456 -0.2237 -0.7111  2.0783
10675TIP3   OH253439   4.376   3.001  14.081 -0.2463  0.1444 -0.3667
10675TIP3    H153440   4.463   3.040  14.089 -1.4842  2.9568  0.5430
10675TIP3    H253441   4.360   2.996  13.987  0.8502 -0.3576 -0.5380
10676TIP3   OH253442   0.653   5.692   5.474 -0.1846 -0.3999 -0.7545
10676TIP3    H153443   0.639   5.655   5.561 -0.7168 -0.4707 -0.8661
10676TIP3    H253444   0.747   5.682   5.459  0.2192  1.1454  0.5019
10677TIP3   OH253445   1.690   4.124  12.804  0.1930 -1.0103 -0.2713
10677TIP3    H153446   1.606   4.095  12.838  0.4852 -2.6705 -0.8828
10677TIP3    H253447   1.751   4.114  12.878  0.1393 -1.1952 -0.2532
10678TIP3   OH253448   1.049   4.503   1.037  0.3013 -0.2098 -0.1036
10678TIP3    H153449   0.991   4.452   0.980 -0.0389  1.1273 -1.0141
10678TIP3    H253450   1.136   4.491   1.000  0.2061 -0.0594 -0.3801
10679TIP3   OH253451   3.371   4.012  14.164 -0.4439 -0.5178 -0.0173
10679TIP3    H153452   3.440   4.036  14.103 -0.1275 -0.4060  0.3809
10679TIP3    H253453   3.415   3.964  14.234 -0.3401  1.5906  1.4892
10680TIP3   OH253454   2.209   0.192   5.272  0.1578  0.0138  0.1289
10680TIP3    H153455   2.222   0.266   5.332  1.6207 -0.4710  0.4558
10680TIP3    H253456   2.207   0.115   5.329 -1.9762 -0.2054 -0.1420
10681TIP3   OH253457   5.115   1.344  14.807 -0.4387 -0.1358  0.2973
10681TIP3    H153458   5.053   1.414  14.789 -1.1171 -0.7699  0.1480
10681TIP3    H253459   5.100   1.280  14.738  0.5371 -0.2070  0.1260
10682TIP3   OH253460   3.727   4.057  15.220 -0.3525  0.1757 -0.8728
10682TIP3    H153461   3.746   4.022  15.307 -0.1088  1.1528 -0.5221
10682TIP3    H253462   3.640   4.023  15.199  0.0308 -0.9437 -0.7188
10683TIP3   OH253463   2.421   6.215   3.704 -0.3926  0.4112  0.1055
10683TIP3    H153464   2.386   6.155   3.638  0.1784 -0.3575  0.4835
10683TIP3    H253465   2.404   6.302   3.669 -2.2718  0.0735  0.0581
10684TIP3   OH253466   2.911   0.514   3.085 -0.1136 -0.1287 -0.3391
10684TIP3    H153467   2.897   0.427   3.121 -0.6548 -0.1795 -0.6702
10684TIP3    H253468   2.829   0.536   3.040 -0.2386  0.8195  0.3021
10685TIP3   OH253469   5.477   3.979   6.231  0.8586 -0.4721 -0.1238
10685TIP3    H153470   5.522   3.946   6.309 -0.2755 -1.6446  0.0796
10685TIP3    H253471   5.421   3.906   6.204  0.5144  0.2645 -1.4765
10686TIP3   OH253472   1.812   3.002   2.366  0.2111 -0.0783  0.1260
10686TIP3    H153473   1.754   2.938   2.408 -0.9410  1.1030  0.3705
10686TIP3    H253474   1.824   3.070   2.432  2.3721 -0.5464  0.2925
10687TIP3   OH253475   3.573   2.046   4.201  0.0027  0.6797 -0.3742
10687TIP3    H153476   3.549   1.963   4.160 -0.8875  0.9254 -0.3683
10687TIP3    H253477   3.668   2.049   4.195 -0.0354  0.1962 -1.4130
10688TIP3   OH253478   6.012   3.375   5.448 -0.3074 -0.1920  0.4627
10688TIP3    H153479   5.959   3.385   5.527 -1.1775 -0.3101 -0.0851
10688TIP3    H253480   5.969   3.303   5.400 -1.9243  2.0663 -1.7480
10689TIP3   OH253481   2.144   3.500   5.356 -0.1362 -0.3490 -0.2668
10689TIP3    H153482   2.191   3.446   5.292  2.5016  1.3646  0.0515
10689TIP3    H253483   2.094   3.562   5.302  0.4801 -0.2010 -0.6795
10690TIP3   OH253484   3.884   5.904   0.419  0.0477 -0.3179 -0.1112
10690TIP3    H153485   3.826   5.904   0.495  2.3575  0.8225  1.7551
10690TIP3    H253486   3.845   5.968   0.359 -1.0844 -0.2497  0.6733
10691TIP3   OH253487   4.399   2.571   2.898 -0.0099 -0.7799 -0.3928
10691TIP3    H153488   4.470   2.622   2.934  0.2407 -1.7079  0.4770
10691TIP3    H253489   4.418   2.481   2.923 -0.4421 -1.3210 -1.8625
10692TIP3   OH253490   1.184   5.923   1.941  0.5208 -0.4762  0.1347
10692TIP3    H153491   1.149   5.888   1.859  1.8235 -0.9048 -0.2549
10692TIP3    H253492   1.256   5.979   1.915 -0.9352  1.8759  0.8140
10693TIP3   OH253493   4.350   1.042  13.442 -0.0048 -0.7301 -0.3778
10693TIP3    H153494   4.304   0.959  13.435 -0.1506 -0.6940  0.0669
10693TIP3    H253495   4.412   1.042  13.370 -2.2077  0.1913 -2.4135
10694TIP3   OH253496   3.755   3.720   5.332 -0.0845 -0.0383 -0.4870
10694TIP3    H153497   3.692   3.738   5.401 -0.1153  0.4997 -0.6548
10694TIP3    H253498   3.818   3.659   5.372 -0.1154  0.2530  0.0044
10695TIP3   OH253499   0.429   5.602  13.433 -0.5583 -0.6070  0.2080
10695TIP3    H153500   0.522   5.618  13.418 -1.2989  3.1871 -1.8523
10695TIP3    H253501   0.406   5.661  13.505 -1.5944 -0.4460 -0.2329
10696TIP3   OH253502   0.487   6.014  14.264 -0.0798  0.2753  0.2756
10696TIP3    H153503   0.540   5.948  14.309  0.5179  0.0032 -0.7881
10696TIP3    H253504   0.534   6.096  14.278 -0.2620  0.3099  0.7093
10697TIP3   OH253505   4.054   3.865  14.997 -0.0869 -0.2337  0.1057
10697TIP3    H153506   3.972   3.900  14.962  0.6387 -0.1618 -1.5955
10697TIP3    H253507   4.041   3.866  15.092 -2.4447 -1.1681 -0.1190
10698TIP3   OH253508   4.059   1.916  10.747  0.4198  0.3560  0.5571
10698TIP3    H153509   4.034   2.008  10.740 -0.9454  0.2036  2.6065
10698TIP3    H253510   3.976   1.868  10.740  1.3454 -1.1699 -4.5532
10699TIP3   OH253511   2.738   6.389   2.367  0.3531 -0.3484 -0.3498
10699TIP3    H153512   2.686   6.315   2.336 -1.1470  0.9341 -0.9877
10699TIP3    H253513   2.814   6.348   2.409 -0.2080 -2.2334 -1.0563
10700TIP3   OH253514   3.424   5.763   1.960  0.2106 -0.6402 -0.6460
10700TIP3    H153515   3.379   5.707   2.024 -0.2752 -0.5737 -0.9262
10700TIP3    H253516   3.472   5.826   2.014  0.1891 -0.8860 -0.3371
10701TIP3   OH253517   2.771   5.217  12.946 -0.0718 -0.1045  0.2259
10701TIP3    H153518   2.754   5.123  12.941  2.7706 -0.7866  1.6200
10701TIP3    H253519   2.811   5.239  12.862 -0.9928 -0.0355 -0.2098
10702TIP3   OH253520   6.004   0.078  14.529 -0.6444 -0.0359  0.6972
10702TIP3    H153521   5.986  -0.015  14.534 -1.8189  0.2408  2.2512
10702TIP3    H253522   5.944   0.118  14.591 -1.3130  1.9353 -1.0812
10703TIP3   OH253523   4.257   1.446   1.989 -0.7039 -0.2336  0.2375
10703TIP3    H153524   4.330   1.506   1.976  0.1485 -0.9767  1.4001
10703TIP3    H253525   4.181   1.503   2.001 -0.5574  0.5485 -1.9970
10704TIP3   OH253526   4.238   0.454   2.426  0.2237  0.3906  0.1827
10704TIP3    H153527   4.315   0.412   2.465 -1.0684 -0.5954  1.8152
10704TIP3    H253528   4.188   0.382   2.387 -0.6610  0.7626  0.5860
10705TIP3   OH253529   2.481   4.584  11.212 -0.1162 -0.1192  0.3776
10705TIP3    H153530   2.454   4.519  11.147 -0.4513  0.1317  0.2660
10705TIP3    H253531   2.489   4.535  11.294  0.6259 -0.5032  0.0805
10706TIP3   OH253532   5.418   6.129   5.337  0.3362 -0.4893  0.3504
10706TIP3    H153533   5.413   6.214   5.291  0.1553 -0.2560  0.7996
10706TIP3    H253534   5.353   6.136   5.406  2.6361  0.3382  2.5828
10707TIP3   OH253535   2.426   2.113  16.566  0.2679  0.0500 -0.3117
10707TIP3    H153536   2.425   2.204  16.537 -0.8249 -0.7503 -3.1792
10707TIP3    H253537   2.340   2.099  16.604 -0.6741 -0.4484 -2.4980
10708TIP3   OH253538   5.672   1.855  12.296  0.4328 -0.0411 -0.1981
10708TIP3    H153539   5.667   1.827  12.388 -0.3865 -1.4537 -0.6571
10708TIP3    H253540   5.728   1.933  12.299  0.2778  0.0554  1.5207
10709TIP3   OH253541   0.789   3.803  14.327  0.7207  0.8016 -0.8076
10709TIP3    H153542   0.811   3.896  14.336  0.6316  0.6730  1.1639
10709TIP3    H253543   0.867   3.757  14.357 -0.2432  0.2913  1.0300
10710TIP3   OH253544   6.580   0.137  14.806  0.2309  0.1214  0.2920
10710TIP3    H153545   6.595   0.051  14.846 -0.1753  0.0766  0.3495
10710TIP3    H253546   6.507   0.123  14.746  1.3154  0.0061 -1.0458
10711TIP3   OH253547   1.976   1.158   5.821 -0.1405 -0.5386 -0.2945
10711TIP3    H153548   2.047   1.098   5.845  1.0306  0.4037 -1.2282
10711TIP3    H253549   2.018   1.221   5.762 -1.8984 -0.2558 -1.2973
10712TIP3   OH253550   1.719   6.306  13.868  0.6540 -0.6718 -0.2160
10712TIP3    H153551   1.688   6.393  13.843  2.6263  0.9293  2.4141
10712TIP3    H253552   1.645   6.248  13.851 -1.7126  1.9544  0.4761
10713TIP3   OH253553   5.940   1.013  10.913  0.0557 -0.0045  0.3343
10713TIP3    H153554   5.930   0.933  10.861 -2.8992 -0.0013  0.7084
10713TIP3    H253555   5.898   0.993  10.997  0.2870  1.5821  0.8645
10714TIP3   OH253556   5.680   1.609   5.359  0.1219 -0.1970  0.2356
10714TIP3    H153557   5.764   1.577   5.393 -0.5668 -0.8692  1.3908
10714TIP3    H253558   5.616   1.544   5.389 -0.7990  0.2234 -0.7458
10715TIP3   OH253559   6.543   4.434  11.063 -0.0014  0.6417  0.2397
10715TIP3    H153560   6.484   4.374  11.018  2.6312  0.4326 -3.3954
10715TIP3    H253561   6.604   4.377  11.109  0.1672  0.6371  0.0160
10716TIP3   OH253562   5.150   5.948   1.221 -0.6639 -0.3196  0.0757
10716TIP3    H153563   5.217   6.013   1.244 -1.1074  0.1601  0.0224
10716TIP3    H253564   5.177   5.914   1.136 -0.3907 -0.2651  0.1402
10717TIP3   OH253565   1.775   0.994   6.525 -0.1127  0.3330 -0.3624
10717TIP3    H153566   1.706   0.943   6.483  0.2407 -0.1235 -0.3872
10717TIP3    H253567   1.740   1.084   6.526 -1.3012 -0.1022  0.8891
10718TIP3   OH253568   2.065   1.283   3.015  0.4342  0.1574 -0.2617
10718TIP3    H153569   1.985   1.333   3.025  0.8895  1.1377 -1.3181
10718TIP3    H253570   2.036   1.191   3.010 -0.6946  0.5583 -1.5228
10719TIP3   OH253571   0.581   5.836   1.413  0.5329 -0.1850 -0.4124
10719TIP3    H153572   0.538   5.766   1.363  3.7220 -2.6908 -0.0528
10719TIP3    H253573   0.667   5.844   1.372  2.2286 -0.3293  2.8044
10720TIP3   OH253574   1.582   5.470   0.426 -0.3543  0.0196  0.4589
10720TIP3    H153575   1.673   5.478   0.397 -0.4143 -0.4768  0.1260
10720TIP3    H253576   1.564   5.376   0.423 -0.6752  0.0551  1.1519
10721TIP3   OH253577   3.114   5.817   1.424 -0.0352 -0.9615 -0.3810
10721TIP3    H153578   3.131   5.847   1.335 -0.8303 -2.3601 -1.0473
10721TIP3    H253579   3.200   5.808   1.464  0.2739  2.4980  0.0428
10722TIP3   OH253580   0.567   2.061  13.602 -0.5324 -0.2013 -0.2180
10722TIP3    H153581   0.505   2.036  13.671 -0.2629  0.9070  0.4554
10722TIP3    H253582   0.620   2.131  13.641  0.1564 -0.0937 -1.2867
10723TIP3   OH253583   3.341   1.062  16.351  0.4214  0.0717 -0.4475
10723TIP3    H153584   3.296   1.005  16.289  1.3749 -0.5521 -0.5913
10723TIP3    H253585   3.415   1.010  16.382  2.0279  1.6031 -1.4830
10724TIP3   OH253586   3.684   2.510   4.059 -0.2377  0.2043  0.4510
10724TIP3    H153587   3.619   2.445   4.084 -0.4319  0.4018  0.4669
10724TIP3    H253588   3.766   2.478   4.095 -0.2775 -0.1889  0.1932
10725TIP3   OH253589   4.361   5.419  12.814 -0.5658 -0.0475 -0.1528
10725TIP3    H153590   4.375   5.485  12.747 -0.8583 -0.6282 -0.8004
10725TIP3    H253591   4.387   5.461  12.896  0.9356  0.2837 -0.7731
10726TIP3   OH253592   0.074   2.716   3.436  0.2333  0.1955  0.5093
10726TIP3    H153593  -0.004   2.769   3.456 -0.1508 -0.3846  0.5748
10726TIP3    H253594   0.139   2.745   3.500 -0.5997 -0.7723  1.8672
10727TIP3   OH253595   1.817   1.553  16.542  0.0481 -0.1299 -0.4588
10727TIP3    H153596   1.785   1.590  16.624 -1.2148 -4.3064  1.2050
10727TIP3    H253597   1.739   1.543  16.488  0.1150 -1.3202 -0.3707
10728TIP3   OH253598   3.744   6.030   4.874  0.2432 -0.3865 -0.2409
10728TIP3    H153599   3.659   6.073   4.872  0.8009  0.7251 -0.8043
10728TIP3    H253600   3.780   6.044   4.786  0.2217 -2.5034 -0.6461
10729TIP3   OH253601   6.769   1.829   4.500 -1.0500 -0.3669  0.7125
10729TIP3    H153602   6.763   1.925   4.503 -1.7223 -0.3607 -0.1825
10729TIP3    H253603   6.678   1.800   4.490 -0.8372 -1.0923  0.8547
10730TIP3   OH253604   2.966   0.743   6.358  0.2588 -0.3249  0.3353
10730TIP3    H153605   3.015   0.664   6.381 -0.1918 -0.0611  2.4509
10730TIP3    H253606   3.022   0.815   6.389  0.6545  0.2362 -1.5377
10731TIP3   OH253607   2.707   2.994   1.772 -0.7331  0.4519  0.2611
10731TIP3    H153608   2.761   2.935   1.720  0.8942  0.1625  2.1631
10731TIP3    H253609   2.619   2.982   1.738 -0.0206 -1.0488 -1.1999
10732TIP3   OH253610   5.910   0.906  15.131 -0.1340  0.5234 -0.1284
10732TIP3    H153611   5.837   0.962  15.103 -1.5954 -1.2665 -0.0716
10732TIP3    H253612   5.900   0.900  15.226  0.4950  0.7669 -0.0388
10733TIP3   OH253613   6.768   0.771  13.389  0.6053  0.0177  0.3173
10733TIP3    H153614   6.753   0.734  13.477 -0.7866 -0.9430 -0.2772
10733TIP3    H253615   6.704   0.727  13.334  1.0337  1.0710 -1.0793
10734TIP3   OH253616   4.215   5.964   3.459  0.0642  0.4326 -0.1673
10734TIP3    H153617   4.235   5.916   3.539  0.5077  1.1251  0.1477
10734TIP3    H253618   4.126   5.938   3.437 -0.4540  1.0371  1.1379
10735TIP3   OH253619   1.996   5.312  15.726  0.2803  0.1070  0.4595
10735TIP3    H153620   1.901   5.301  15.730  0.0789  1.0528 -0.9902
10735TIP3    H253621   2.015   5.316  15.632  1.8062 -0.4322  0.7280
10736TIP3   OH253622   5.428   3.885   5.887 -0.7156 -0.0518 -0.9297
10736TIP3    H153623   5.493   3.946   5.919  0.2999 -1.6296  0.1471
10736TIP3    H253624   5.348   3.907   5.936 -0.7575  1.2396 -1.5344
10737TIP3   OH253625   5.957   2.931   2.540 -0.7239 -0.0059 -0.0431
10737TIP3    H153626   6.038   2.892   2.574  0.2972  1.6440 -0.4070
10737TIP3    H253627   5.959   2.913   2.446  0.0778  1.3440 -0.3230
10738TIP3   OH253628   5.732   1.484   4.255 -0.2302  0.4746 -0.5263
10738TIP3    H153629   5.651   1.485   4.306 -1.0156  0.5581 -1.7331
10738TIP3    H253630   5.795   1.533   4.308 -0.1974 -1.6942  1.6165
10739TIP3   OH253631   3.233   3.679   5.731 -0.4475 -0.3021 -0.1872
10739TIP3    H153632   3.297   3.698   5.799  1.2834 -1.6405 -1.3218
10739TIP3    H253633   3.219   3.763   5.687  1.3858 -0.1310 -0.5497
10740TIP3   OH253634   6.786   6.498   3.430  0.4372 -0.0152  0.3381
10740TIP3    H153635   6.782   6.437   3.504 -1.7033  1.0840  1.2347
10740TIP3    H253636   6.761   6.582   3.468  2.7501  1.3618 -0.9642
10741TIP3   OH253637   0.039   5.964  14.219  0.3103 -0.1287 -0.0610
10741TIP3    H153638   0.057   5.872  14.202  1.0098 -0.0357  0.1710
10741TIP3    H253639   0.111   5.994  14.274  0.0416  0.5371 -0.0548
10742TIP3   OH253640   6.803   6.773   4.363 -0.3547  0.3017  0.0116
10742TIP3    H153641   6.756   6.799   4.283  0.7325  1.2832 -0.3389
10742TIP3    H253642   6.753   6.700   4.398 -0.7198 -0.3189 -1.7247
10743TIP3   OH253643   6.101   1.212   3.254 -0.0011  0.3316  0.1851
10743TIP3    H153644   6.144   1.251   3.330 -2.0908  1.9757  0.6138
10743TIP3    H253645   6.010   1.199   3.281 -0.2498 -1.4357 -1.2322
10744TIP3   OH253646   0.940   2.005   4.705  0.4927 -0.2293  0.3009
10744TIP3    H153647   0.922   1.961   4.621  0.0861  0.4868  0.0113
10744TIP3    H253648   1.015   2.061   4.686 -0.7484  1.3657 -0.1083
10745TIP3   OH253649   3.107   2.114   4.283 -0.5980 -0.0617 -0.0107
10745TIP3    H153650   3.131   2.206   4.270 -3.4845  0.7797 -0.0869
10745TIP3    H253651   3.132   2.071   4.202 -0.1272  0.8743 -0.3771
10746TIP3   OH253652   3.187   4.350   5.486 -0.1773  0.0802  0.1669
10746TIP3    H153653   3.249   4.277   5.484 -1.6804 -1.2981  1.3190
10746TIP3    H253654   3.176   4.370   5.579 -1.1334  0.5822 -0.0379
10747TIP3   OH253655   3.743   4.891   5.704 -0.6043  0.3027 -0.1101
10747TIP3    H153656   3.707   4.916   5.619  0.0485 -1.9127 -1.1258
10747TIP3    H253657   3.698   4.809   5.726 -0.1426  0.3909  1.2820
10748TIP3   OH253658   2.130   5.472   0.690  1.3283  0.1803 -0.2583
10748TIP3    H153659   2.100   5.490   0.779  1.4626 -0.8796  0.0138
10748TIP3    H253660   2.054   5.493   0.635  0.1357 -2.0491  0.3821
10749TIP3   OH253661   4.956   6.198   4.829 -0.1987  0.0492  0.3003
10749TIP3    H153662   4.926   6.125   4.883  0.1617  0.0595  0.5149
10749TIP3    H253663   4.916   6.183   4.743 -0.7619  0.0233  0.5625
10750TIP3   OH253664   1.725   2.977  11.416  0.2314  0.7168  0.0238
10750TIP3    H153665   1.786   3.047  11.442 -1.0981  0.8214  3.4025
10750TIP3    H253666   1.644   3.023  11.394  0.4024  0.4026 -1.3132
10751TIP3   OH253667   4.413   6.456  16.645  0.8224 -0.0221  0.3521
10751TIP3    H153668   4.429   6.427  16.735  0.6060  0.9793  0.7314
10751TIP3    H253669   4.337   6.405  16.617 -0.7212  1.4302  1.6546
10752TIP3   OH253670   2.631   3.270  16.609 -0.5493  0.0864 -0.1969
10752TIP3    H153671   2.619   3.365  16.611 -0.9645  0.0257  1.2526
10752TIP3    H253672   2.566   3.236  16.671  0.2321 -1.0622  0.0304
10753TIP3   OH253673   1.306   2.697   2.276 -0.1553 -0.0152  0.3862
10753TIP3    H153674   1.350   2.729   2.197 -0.1905  0.6735  0.6431
10753TIP3    H253675   1.224   2.746   2.279 -1.1231 -1.5335 -0.2748
10754TIP3   OH253676   2.214   5.086  11.493  0.0511  0.4005 -0.0618
10754TIP3    H153677   2.156   5.096  11.569  2.4359  0.2442  1.9331
10754TIP3    H253678   2.172   5.020  11.439 -1.0709 -0.6081  1.9139
10755TIP3   OH253679   5.751   5.758   1.132  0.6531 -0.0909  0.0088
10755TIP3    H153680   5.669   5.747   1.084  1.0089 -0.0275 -0.6163
10755TIP3    H253681   5.816   5.711   1.080  0.9599 -0.4136  0.6686
10756TIP3   OH253682   0.496   0.892   4.173 -0.2738 -0.3346 -0.5712
10756TIP3    H153683   0.526   0.801   4.173 -1.6730 -0.8800  1.7879
10756TIP3    H253684   0.553   0.936   4.236 -1.1645 -0.2113  0.1786
10757TIP3   OH253685   0.453   3.697  11.927 -0.0670  0.9524  0.3277
10757TIP3    H153686   0.417   3.784  11.914 -2.5606  0.1710  1.5021
10757TIP3    H253687   0.391   3.638  11.885  0.2499 -0.4240  1.6938
10758TIP3   OH253688   4.437   3.241   1.138  0.2209  0.1575 -0.3021
10758TIP3    H153689   4.494   3.163   1.138 -0.0052 -0.0456  1.1377
10758TIP3    H253690   4.370   3.221   1.204  0.2230  1.6093  0.1738
10759TIP3   OH253691   6.012   4.329   5.966 -0.5218 -0.0644  0.4977
10759TIP3    H153692   5.955   4.277   6.024 -0.2718 -2.2625 -1.1028
10759TIP3    H253693   6.089   4.273   5.952  1.2521  2.0810  1.1467
10760TIP3   OH253694   3.844   5.285   2.018 -0.2394 -0.2227 -0.4899
10760TIP3    H153695   3.868   5.206   1.968  0.6738 -0.4471  0.2716
10760TIP3    H253696   3.928   5.324   2.042 -0.6851  0.6776 -0.3596
10761TIP3   OH253697   5.139   1.032   4.029  0.6609 -0.7091  0.4656
10761TIP3    H153698   5.075   1.077   3.974 -0.2421 -0.1807  1.8915
10761TIP3    H253699   5.191   1.102   4.068  1.5323 -1.0959  0.0390
10762TIP3   OH253700   1.775   5.158   3.923  0.5578  0.1221 -0.5150
10762TIP3    H153701   1.844   5.128   3.982  0.4785 -0.8746 -0.8923
10762TIP3    H253702   1.777   5.095   3.850 -0.0176  0.7253 -1.0686
10763TIP3   OH253703   6.685   5.023  13.373  0.1870 -0.2967  0.1823
10763TIP3    H153704   6.606   5.052  13.328  1.5194  2.0454 -0.8080
10763TIP3    H253705   6.695   5.083  13.446  0.2195 -1.6019  1.2989
10764TIP3   OH253706   4.449   2.107   4.109  0.0211  0.5698 -0.3557
10764TIP3    H153707   4.476   2.033   4.163  0.1176  2.5120  2.4624
10764TIP3    H253708   4.530   2.134   4.065  0.2928 -0.0708 -0.2690
10765TIP3   OH253709   0.057   6.371  10.759  0.3271  0.6069 -0.7815
10765TIP3    H153710   0.089   6.281  10.768  0.2554  0.5196 -1.3373
10765TIP3    H253711   0.090   6.399  10.673 -0.5927  0.7133 -1.1186
10766TIP3   OH253712   4.403   3.431  13.272  0.6169 -0.4385 -0.2197
10766TIP3    H153713   4.463   3.506  13.276  0.5885 -0.4498  0.9239
10766TIP3    H253714   4.316   3.470  13.270  0.5836 -0.4218  0.8666
10767TIP3   OH253715   2.973   0.252  12.134 -0.6571  1.4351  0.1862
10767TIP3    H153716   2.939   0.254  12.223  1.6341  0.0135  1.1828
10767TIP3    H253717   3.045   0.315  12.134  0.8283 -0.1903  0.0541
10768TIP3   OH253718   1.495   1.909   0.589  0.4835 -0.6281  0.0437
10768TIP3    H153719   1.522   1.915   0.681  1.4879 -2.8784 -0.0264
10768TIP3    H253720   1.574   1.930   0.539  0.4863 -1.2958 -0.2481
10769TIP3   OH253721   6.766   4.840  14.269  0.7978  0.2730  0.2038
10769TIP3    H153722   6.834   4.866  14.207  1.5880 -2.2074 -0.0693
10769TIP3    H253723   6.685   4.873  14.230  1.6658  2.4316  0.0518
10770TIP3   OH253724   4.223   0.024   3.876 -0.5045  0.3097 -0.1568
10770TIP3    H153725   4.268   0.077   3.811 -0.2113  0.9481  0.5619
10770TIP3    H253726   4.223  -0.065   3.839 -0.3997  0.6747 -1.0452
10771TIP3   OH253727   4.819   0.109   0.523  0.1340  0.3142 -0.1846
10771TIP3    H153728   4.846   0.169   0.453 -0.5064 -0.8717 -1.5096
10771TIP3    H253729   4.901   0.070   0.553  0.6792  2.3913  1.3119
10772TIP3   OH253730   4.577   6.703   4.300  0.3673 -0.0178 -0.6713
10772TIP3    H153731   4.531   6.633   4.347  1.5552 -0.2039  0.2557
10772TIP3    H253732   4.513   6.734   4.236 -1.7263  0.9108  1.6653
10773TIP3   OH253733   5.067   5.793   1.612  0.9554 -0.4123  0.2692
10773TIP3    H153734   5.060   5.888   1.621 -1.0960 -0.6780  2.8175
10773TIP3    H253735   5.103   5.764   1.696 -1.6452 -2.0560  0.9373
10774TIP3   OH253736   0.969   4.398  13.051 -0.1185  0.3059  0.1457
10774TIP3    H153737   0.950   4.315  13.006  0.6341 -0.1543  0.6438
10774TIP3    H253738   0.990   4.459  12.981  1.6471 -0.5608 -0.1594
10775TIP3   OH253739   2.113   3.267  10.457  0.3477 -0.4099  0.1349
10775TIP3    H153740   2.041   3.213  10.489  0.6438 -1.1400 -0.3914
10775TIP3    H253741   2.155   3.302  10.536  1.3035 -2.4758  0.6030
10776TIP3   OH253742   1.209   6.645  13.695  0.3413 -0.1882  0.0870
10776TIP3    H153743   1.138   6.695  13.653 -0.2486 -0.3460  0.8734
10776TIP3    H253744   1.259   6.609  13.622  0.0763  0.5782 -0.4850
10777TIP3   OH253745   3.056   4.869   4.632 -0.0105  0.0893 -0.0022
10777TIP3    H153746   3.034   4.913   4.713 -1.5330 -0.9484  0.1897
10777TIP3    H253747   3.123   4.805   4.656  1.8359  1.8526 -0.1924
10778TIP3   OH253748   0.819   2.654   3.682 -0.0315  0.0818 -0.0765
10778TIP3    H153749   0.860   2.619   3.603 -0.0894 -1.4925  0.5444
10778TIP3    H253750   0.891   2.667   3.743 -0.0997  0.3129 -0.0442
10779TIP3   OH253751   2.884   4.810   0.364  0.1966 -0.0169  0.7200
10779TIP3    H153752   2.796   4.838   0.339 -0.1379 -1.8095 -0.2879
10779TIP3    H253753   2.907   4.866   0.438 -2.3941 -0.4506  1.9808
10780TIP3   OH253754   0.403   5.652  11.617 -0.7208  0.3019  0.2570
10780TIP3    H153755   0.462   5.588  11.657 -0.1832  0.5975 -0.0434
10780TIP3    H253756   0.346   5.600  11.561 -0.0638  0.1023 -0.2539
10781TIP3   OH253757   5.629   4.406   0.094  0.6635 -0.3236  0.4158
10781TIP3    H153758   5.647   4.476   0.157  0.3157  1.1103 -1.0195
10781TIP3    H253759   5.616   4.451   0.011  0.0201 -2.0823 -0.4864
10782TIP3   OH253760   5.588   2.107   4.665  0.0050 -0.1594 -0.5057
10782TIP3    H153761   5.597   2.058   4.583  1.3129 -0.6532 -0.1020
10782TIP3    H253762   5.572   2.197   4.637  0.9765 -0.2202 -1.3327
10783TIP3   OH253763   3.404   2.763   2.480 -0.1986 -0.0041  0.5729
10783TIP3    H153764   3.454   2.682   2.473 -0.7464 -0.3347  0.3875
10783TIP3    H253765   3.463   2.831   2.447  0.2406 -0.3338  0.6690
10784TIP3   OH253766   6.819   1.747   3.949 -0.6196 -0.4999 -0.1051
10784TIP3    H153767   6.875   1.674   3.975  0.9675  0.8079  0.2945
10784TIP3    H253768   6.849   1.770   3.861 -0.2149  0.5108  0.2920
10785TIP3   OH253769   0.566   6.269  16.609  0.6474 -0.3047  0.6484
10785TIP3    H153770   0.569   6.333  16.680  0.0036  0.9558 -0.4194
10785TIP3    H253771   0.658   6.250  16.590  0.8964  1.2589  0.1668
10786TIP3   OH253772   2.842   5.542   0.405 -0.1498  0.1524 -0.0676
10786TIP3    H153773   2.883   5.460   0.377 -0.9070 -0.5396  0.8275
10786TIP3    H253774   2.752   5.536   0.374 -0.8443 -0.3728  1.9587
10787TIP3   OH253775   1.269   1.361   5.984 -0.1516 -0.1741 -0.5303
10787TIP3    H153776   1.303   1.450   5.979  0.4264 -0.4197 -1.3662
10787TIP3    H253777   1.239   1.342   5.895  0.4080 -1.0587 -0.5483
10788TIP3   OH253778   4.236   6.670   5.588 -0.2491  0.0638 -0.3495
10788TIP3    H153779   4.184   6.599   5.549  1.6821 -1.4279 -0.3628
10788TIP3    H253780   4.273   6.632   5.667  1.7421  0.6467 -0.9438
10789TIP3   OH253781   5.358   3.765   1.738 -0.2408  0.5149 -0.2221
10789TIP3    H153782   5.335   3.834   1.675  0.0393 -1.8492 -3.1472
10789TIP3    H253783   5.454   3.763   1.737 -0.2441 -1.2874 -1.9149
10790TIP3   OH253784   0.367   1.609   4.958 -0.0631 -0.2334  0.0807
10790TIP3    H153785   0.408   1.542   5.012 -0.9276 -0.2509  0.7576
10790TIP3    H253786   0.302   1.562   4.906 -0.5963  0.0443  0.4779
10791TIP3   OH253787   1.731   4.654  15.077  0.0164  0.4206 -0.1766
10791TIP3    H153788   1.767   4.672  15.164  2.4832 -2.5769 -0.4098
10791TIP3    H253789   1.808   4.644  15.021 -1.4175 -0.3394 -2.1076
10792TIP3   OH253790   3.771   2.988  14.604 -0.0176  0.0990 -0.1386
10792TIP3    H153791   3.820   2.919  14.647  0.8491  1.1822  0.6591
10792TIP3    H253792   3.833   3.030  14.545 -0.0942  1.1494  0.4954
10793TIP3   OH253793   5.868   1.987   5.914  0.0011  0.5361  0.3450
10793TIP3    H153794   5.935   1.995   5.982  1.7329  1.7379 -1.3985
10793TIP3    H253795   5.857   2.076   5.880  0.9675 -0.3167 -2.4835
10794TIP3   OH253796   1.004   3.217  12.560 -0.3803 -0.3172 -0.0533
10794TIP3    H153797   1.093   3.181  12.555 -0.1170  0.4001 -0.7892
10794TIP3    H253798   0.957   3.157  12.617  0.8852 -0.0821  1.2912
10795TIP3   OH253799   4.223   2.988   3.657  0.3840 -0.1663  0.5406
10795TIP3    H153800   4.195   3.017   3.570  2.0401 -0.4511 -0.1397
10795TIP3    H253801   4.169   2.911   3.675  0.3244 -0.3779 -0.4523
10796TIP3   OH253802   3.615   4.938   4.112 -0.2275 -0.5329 -0.3724
10796TIP3    H153803   3.652   4.957   4.199 -0.7539  0.1485 -0.2889
10796TIP3    H253804   3.685   4.961   4.051 -0.6500  1.1855 -0.2425
10797TIP3   OH253805   5.914   2.742   1.854 -0.2040 -0.4543  0.3523
10797TIP3    H153806   5.824   2.727   1.884 -0.1332  0.8486  1.3039
10797TIP3    H253807   5.967   2.730   1.933  0.2427  0.6755  0.2309
10798TIP3   OH253808   2.936   4.540   0.318 -0.2070 -0.3331  0.2304
10798TIP3    H153809   2.930   4.634   0.335 -1.7438 -0.3318 -0.1967
10798TIP3    H253810   2.892   4.527   0.234 -0.9426 -1.5641  0.7717
10799TIP3   OH253811   2.083   4.736   3.930 -0.2106 -0.0913  0.2550
10799TIP3    H153812   2.112   4.792   3.858 -1.5558 -0.4641 -0.6115
10799TIP3    H253813   2.058   4.654   3.888 -0.3475 -0.5652  1.2445
10800TIP3   OH253814   6.176   3.071   4.210  0.3273  0.2562  0.1355
10800TIP3    H153815   6.128   2.997   4.246  1.2174 -0.5378 -0.2601
10800TIP3    H253816   6.249   3.084   4.270  0.3592  0.5994  0.0241
10801TIP3   OH253817   0.503   0.377  13.166 -0.0223  0.1097 -0.4131
10801TIP3    H153818   0.494   0.399  13.074 -1.3855  0.2036 -0.2870
10801TIP3    H253819   0.438   0.308  13.181 -1.7516  1.9135  1.0242
10802TIP3   OH253820   5.389   1.372  12.390 -0.3391 -0.2699 -0.0261
10802TIP3    H153821   5.359   1.283  12.371 -2.2974  0.0902  1.1670
10802TIP3    H253822   5.408   1.410  12.304  1.1306 -1.9882 -0.5321
10803TIP3   OH253823   0.293   2.252   3.315  0.3490 -0.0990  0.2833
10803TIP3    H153824   0.208   2.215   3.339  0.3692  0.2507  0.9129
10803TIP3    H253825   0.289   2.342   3.347  0.8663 -0.0108  0.0963
10804TIP3   OH253826   1.887   2.733  11.325 -0.4888 -0.2993 -0.1166
10804TIP3    H153827   1.840   2.812  11.354  0.2148 -0.2403  0.9343
10804TIP3    H253828   1.869   2.669  11.394  1.8193  0.0593  0.9067
10805TIP3   OH253829   1.125   0.843   1.335 -0.6426  0.7701 -0.0067
10805TIP3    H153830   1.151   0.935   1.329 -1.0117  0.9326  0.7840
10805TIP3    H253831   1.185   0.806   1.399  0.8233 -0.0441 -1.7399
10806TIP3   OH253832   4.385   4.565  16.257  0.2390 -0.4154  0.4079
10806TIP3    H153833   4.471   4.527  16.238 -0.9452 -3.3569  0.2985
10806TIP3    H253834   4.361   4.527  16.342 -0.8820  0.4990  0.5194
10807TIP3   OH253835   3.015   0.529   5.552  0.1208 -0.2645  0.0261
10807TIP3    H153836   2.999   0.452   5.607 -0.0647 -0.0863  0.2226
10807TIP3    H253837   3.041   0.597   5.613 -0.2830 -0.0077 -0.0858
10808TIP3   OH253838   3.176   0.695   0.975 -0.3526 -0.0724 -0.2326
10808TIP3    H153839   3.114   0.715   0.905 -0.7033 -1.6127 -0.4046
10808TIP3    H253840   3.125   0.645   1.038  0.6448 -1.1892 -0.2712
10809TIP3   OH253841   4.365   0.849   1.795 -0.0081  0.3350 -0.2366
10809TIP3    H153842   4.375   0.781   1.861  0.5217 -0.1919 -0.8375
10809TIP3    H253843   4.384   0.805   1.712  0.8751  1.3250 -0.5852
10810TIP3   OH253844   5.816   1.386   4.640 -0.8504 -0.2717  0.1034
10810TIP3    H153845   5.872   1.459   4.668 -1.2487 -0.6125  1.8669
10810TIP3    H253846   5.759   1.369   4.715 -1.8455 -1.3694 -0.8635
10811TIP3   OH253847   5.859   3.816  13.981 -0.0997 -0.0013 -0.0700
10811TIP3    H153848   5.863   3.843  14.073 -2.8037  0.6180 -0.0472
10811TIP3    H253849   5.886   3.894  13.932  0.2007  0.0496  0.1731
10812TIP3   OH253850   6.388   6.722   4.725 -0.6801  0.3091 -0.3265
10812TIP3    H153851   6.357   6.731   4.815 -0.2621  4.3762 -0.4214
10812TIP3    H253852   6.478   6.691   4.732  0.5389  3.7268  1.0251
10813TIP3   OH253853   4.089   0.243   2.366 -0.3027 -0.0702 -0.2289
10813TIP3    H153854   4.068   0.217   2.276  1.7042 -0.3380 -0.6808
10813TIP3    H253855   4.008   0.231   2.415 -1.2501 -0.5838 -1.8634
10814TIP3   OH253856   2.847   0.629   1.883  0.4173  0.0393  0.2767
10814TIP3    H153857   2.885   0.543   1.868 -0.1088 -0.1751  0.1642
10814TIP3    H253858   2.756   0.621   1.855  0.4561  0.7318 -0.1002
10815TIP3   OH253859   0.342   2.852   6.428  0.4171 -0.4952  0.6723
10815TIP3    H153860   0.305   2.849   6.516  0.7910 -0.3283  0.8358
10815TIP3    H253861   0.410   2.919   6.433 -0.7998  0.8562 -0.2176
10816TIP3   OH253862   2.032   4.981  16.872 -0.2049  0.2451  0.8768
10816TIP3    H153863   2.063   5.063  16.834  1.4257 -0.0945  1.4038
10816TIP3    H253864   2.102   4.918  16.852 -1.3835 -1.0048  0.5487
10817TIP3   OH253865   5.047   1.760   2.813 -0.3969  0.6112  0.7865
10817TIP3    H153866   4.975   1.810   2.777 -2.1986 -3.2222 -1.5901
10817TIP3    H253867   5.091   1.722   2.737  1.2112 -0.9120  2.3565
10818TIP3   OH253868   0.887   0.951  16.301  0.2486  0.1433  0.1907
10818TIP3    H153869   0.967   0.969  16.351  0.4544  3.0270 -0.9810
10818TIP3    H253870   0.819   0.942  16.368  1.1105  0.2982  1.1211
10819TIP3   OH253871   0.112   6.436  13.713 -0.3621 -0.0203  0.0991
10819TIP3    H153872   0.142   6.354  13.753 -0.9868 -0.9065 -1.1821
10819TIP3    H253873   0.090   6.412  13.623  0.4849  1.7970 -0.6361
10820TIP3   OH253874   3.205   0.833   0.391 -0.0766  0.2869 -0.1592
10820TIP3    H153875   3.183   0.886   0.315  0.8956  2.8341  1.2338
10820TIP3    H253876   3.281   0.781   0.363 -1.0719 -0.4886 -1.5538
10821TIP3   OH253877   3.434   5.980  11.039  0.2668  0.0879  0.2480
10821TIP3    H153878   3.477   6.049  10.987  2.5077 -2.0127 -0.8937
10821TIP3    H253879   3.392   5.924  10.975 -2.1836  0.6660  1.2152
10822TIP3   OH253880   6.094   4.735   1.348  0.0554  0.1324 -0.1080
10822TIP3    H153881   6.091   4.656   1.401  0.3470 -0.0063 -0.2934
10822TIP3    H253882   6.176   4.727   1.298 -0.8191 -0.3728 -1.5362
10823TIP3   OH253883   3.514   2.012  13.260  0.4264  0.4671  0.0043
10823TIP3    H153884   3.606   1.983  13.265  0.8246  1.5434 -0.8350
10823TIP3    H253885   3.501   2.035  13.169 -1.4654 -2.0624 -0.4898
10824TIP3   OH253886   2.021   4.284   0.374  0.1278  0.2194 -0.3051
10824TIP3    H153887   1.945   4.248   0.420 -0.5497 -0.6616 -2.0511
10824TIP3    H253888   2.086   4.298   0.444 -1.7212  1.3340  1.2791
10825TIP3   OH253889   1.354   6.280  15.356 -0.3594 -0.0372  0.0091
10825TIP3    H153890   1.292   6.241  15.294  0.2309  0.4612 -0.9259
10825TIP3    H253891   1.440   6.259  15.319  0.0601 -1.0733  1.5001
10826TIP3   OH253892   6.431   6.110  16.498 -0.1855  0.1945 -0.0819
10826TIP3    H153893   6.461   6.057  16.425  1.1214 -0.0251  0.6011
10826TIP3    H253894   6.439   6.054  16.575 -2.2439  0.1615  0.1884
10827TIP3   OH253895   5.110   4.627  12.749  0.2886 -0.7169  0.2464
10827TIP3    H153896   5.117   4.534  12.728 -0.7326 -0.4297 -1.6033
10827TIP3    H253897   5.172   4.670  12.690  1.1222 -0.2391  1.4367
10828TIP3   OH253898   5.587   0.422  13.042  0.0009 -0.2465  0.5237
10828TIP3    H153899   5.625   0.363  13.107 -0.7683 -1.8219 -0.3888
10828TIP3    H253900   5.649   0.422  12.970  0.6489  1.1632  1.0549
10829TIP3   OH253901   1.951   0.792  16.833  0.2572 -0.0902  0.0740
10829TIP3    H153902   1.889   0.851  16.791 -0.7772 -0.5214  0.9465
10829TIP3    H253903   1.933   0.800  16.926  1.7076 -0.0313  0.3699
10830TIP3   OH253904   2.950   4.394   4.408  0.9109  0.1873 -0.1948
10830TIP3    H153905   2.900   4.442   4.476 -0.7246  0.8142 -1.7496
10830TIP3    H253906   3.041   4.414   4.427  0.3946  1.9383  0.6951
10831TIP3   OH253907   3.858   2.551   4.453 -0.1255 -0.0226  0.3171
10831TIP3    H153908   3.847   2.491   4.527  0.5193 -0.6721 -0.0998
10831TIP3    H253909   3.776   2.601   4.450 -0.9290 -1.3019  0.3052
10832TIP3   OH253910   4.811   0.928   2.202 -0.2690  0.4504  0.6092
10832TIP3    H153911   4.724   0.912   2.239 -0.3196  0.1439  0.3621
10832TIP3    H253912   4.871   0.914   2.274 -0.4793  1.5577  1.0274
10833TIP3   OH253913   0.771   0.740   2.187 -0.5821  0.1405 -0.1082
10833TIP3    H153914   0.805   0.748   2.276 -0.1669 -0.0410 -0.2485
10833TIP3    H253915   0.681   0.709   2.198  0.6459 -3.8786  0.1936
10834TIP3   OH253916   6.107   5.704  14.909  0.2857 -0.4559  0.1560
10834TIP3    H153917   6.024   5.656  14.905 -0.7531  1.3491 -1.5901
10834TIP3    H253918   6.094   5.767  14.980  0.4274 -0.6025  0.3135
10835TIP3   OH253919   1.416   6.525   6.143 -0.5702  0.4305 -0.0113
10835TIP3    H153920   1.507   6.505   6.164 -0.6704  0.7484  0.7874
10835TIP3    H253921   1.387   6.581   6.215 -0.8964  1.7721 -1.1455
10836TIP3   OH253922   0.496   5.057   4.947 -0.1648 -0.5884  0.8786
10836TIP3    H153923   0.556   5.063   5.022  0.1355 -1.2996  0.7095
10836TIP3    H253924   0.547   5.012   4.880 -0.5230 -0.1909  0.3401
10837TIP3   OH253925   2.865   1.710   4.907  0.5761  0.3571  0.0001
10837TIP3    H153926   2.846   1.801   4.932  1.4792  0.0782  1.8902
10837TIP3    H253927   2.928   1.717   4.836  0.5728  1.2146  0.0741
10838TIP3   OH253928   6.706   6.659  13.742  0.0541  0.1912  0.2287
10838TIP3    H153929   6.740   6.745  13.718 -0.8741  0.3593 -0.5606
10838TIP3    H253930   6.778   6.616  13.788  0.4595  1.4712  0.8363
10839TIP3   OH253931   0.744   6.637   0.855  0.2044 -0.1124  0.8925
10839TIP3    H153932   0.674   6.666   0.798 -1.2020 -1.1538  2.0082
10839TIP3    H253933   0.723   6.674   0.941 -0.8464 -2.9993  2.0152
10840TIP3   OH253934   5.313   5.873  13.883 -0.2585 -0.1135  0.1982
10840TIP3    H153935   5.313   5.786  13.843  0.0648  0.1554 -0.3999
10840TIP3    H253936   5.315   5.933  13.809 -1.0172  0.4134  0.5990
10841TIP3   OH253937   3.407   5.845   5.249 -0.1911  0.1305 -0.3364
10841TIP3    H153938   3.417   5.939   5.235 -0.1602 -0.0128 -1.3576
10841TIP3    H253939   3.434   5.806   5.166 -1.6290 -0.6924 -0.4456
10842TIP3   OH253940   6.801   6.218   3.329  0.0283 -0.1941 -0.6871
10842TIP3    H153941   6.800   6.259   3.416  1.2277 -1.2116 -0.1422
10842TIP3    H253942   6.788   6.290   3.268 -2.8068  0.2999  0.3737
10843TIP3   OH253943   4.751   1.940   4.653  0.2485 -0.2760 -0.2350
10843TIP3    H153944   4.781   1.947   4.744 -0.3201 -0.7995  0.0023
10843TIP3    H253945   4.668   1.987   4.652  0.0674 -0.5978 -0.3915
10844TIP3   OH253946   1.719   6.050   0.230  0.0607 -0.0768  0.0965
10844TIP3    H153947   1.755   6.112   0.293  0.1737 -1.3779  1.3820
10844TIP3    H253948   1.634   6.026   0.267  0.4031 -1.3340  0.1137
10845TIP3   OH253949   5.623   0.705  14.000 -0.3073  0.1893  0.2772
10845TIP3    H153950   5.625   0.656  13.918 -0.8612  0.1762  0.2675
10845TIP3    H253951   5.630   0.637  14.068  1.2388  0.2755  0.2423
10846TIP3   OH253952   2.011   4.590  16.062  0.0942 -0.6142 -0.2133
10846TIP3    H153953   2.071   4.659  16.036 -0.7227  0.8452  1.5605
10846TIP3    H253954   1.995   4.541  15.981  0.0785  1.7597 -1.7544
10847TIP3   OH253955   4.165   4.705  13.315 -0.3580 -0.3383 -0.4168
10847TIP3    H153956   4.259   4.691  13.326 -0.1997  0.5436 -0.5565
10847TIP3    H253957   4.125   4.621  13.338  0.4533 -0.6834 -0.2360
10848TIP3   OH253958   2.112   2.965  14.830  0.3390 -0.0831 -0.0020
10848TIP3    H153959   2.161   2.989  14.909  2.6150 -2.1868 -0.6435
10848TIP3    H253960   2.168   2.992  14.758  0.7988 -2.7730 -0.7746
10849TIP3   OH253961   6.350   0.299  12.203  0.4345 -0.2048 -0.0366
10849TIP3    H153962   6.270   0.253  12.176  0.3407 -0.3695  0.5141
10849TIP3    H253963   6.412   0.284  12.131 -0.2773  0.5779 -0.8390
10850TIP3   OH253964   2.159   6.386   0.200  0.5037 -0.8815 -0.3578
10850TIP3    H153965   2.132   6.478   0.200  3.7015  0.1937 -0.7539
10850TIP3    H253966   2.147   6.357   0.290  0.6978  0.3943  0.0972
10851TIP3   OH253967   0.826   3.121   0.328  0.1073  0.4306 -0.3451
10851TIP3    H153968   0.735   3.151   0.328 -0.1404 -0.0792  2.1870
10851TIP3    H253969   0.835   3.072   0.247 -1.1335  2.4801 -1.8354
10852TIP3   OH253970   1.718   0.942  15.859 -0.4263 -0.2543  0.2177
10852TIP3    H153971   1.639   0.974  15.902 -1.1549 -0.5410 -0.8480
10852TIP3    H253972   1.689   0.917  15.771  0.8971 -0.1358 -0.2889
10853TIP3   OH253973   1.630   6.495  16.254 -0.7704 -0.3520  0.2198
10853TIP3    H153974   1.561   6.470  16.315 -0.1954 -0.6768  0.7459
10853TIP3    H253975   1.709   6.456  16.290 -0.7454 -2.4196 -1.8576
10854TIP3   OH253976   2.337   5.563   1.272 -0.6593  0.1474  0.2001
10854TIP3    H153977   2.382   5.613   1.204  2.0662 -0.2542  1.5759
10854TIP3    H253978   2.385   5.480   1.277 -0.2970  0.4436  3.0519
10855TIP3   OH253979   0.919   4.880  12.730  0.1112  0.1978 -0.0630
10855TIP3    H153980   0.845   4.941  12.735  0.7580  1.0293 -0.3332
10855TIP3    H253981   0.880   4.794  12.742 -0.9176  0.6115 -0.3228
10856TIP3   OH253982   2.932   0.867   0.532 -0.1546  0.1791 -0.6074
10856TIP3    H153983   2.889   0.806   0.472 -0.2357 -0.2610 -0.1058
10856TIP3    H253984   3.011   0.895   0.485 -0.8541  0.8188 -1.4368
10857TIP3   OH253985   0.586   3.372  16.578  0.3840  0.1302  0.1735
10857TIP3    H153986   0.584   3.409  16.490  1.5548 -1.6170 -0.6570
10857TIP3    H253987   0.629   3.438  16.631 -1.0804  1.5734 -0.3293
10858TIP3   OH253988   6.529   1.464  13.503 -0.8889 -0.0728 -0.1416
10858TIP3    H153989   6.476   1.533  13.463  0.0678 -1.0051 -3.2671
10858TIP3    H253990   6.492   1.383  13.469  1.7180 -0.7958 -1.4252
10859TIP3   OH253991   4.830   3.701  10.571  0.0068 -0.9167 -0.3283
10859TIP3    H153992   4.870   3.634  10.626 -1.5550 -0.3875  1.5459
10859TIP3    H253993   4.743   3.668  10.552 -0.2792 -0.0471 -0.5688
10860TIP3   OH253994   2.694   4.176   3.467  0.0514  0.2166  0.0104
10860TIP3    H153995   2.625   4.148   3.407  1.2271  0.1952 -1.3932
10860TIP3    H253996   2.668   4.141   3.552 -0.5270 -1.7323 -0.9184
10861TIP3   OH253997   1.867   0.024  15.164  0.1605  0.0886  0.0969
10861TIP3    H153998   1.819  -0.057  15.148  0.4762 -0.2788  0.9629
10861TIP3    H253999   1.802   0.093  15.152 -0.2406 -0.3172 -0.1160
10862TIP3   OH254000   4.624   1.888  14.774  0.1912 -0.2932 -0.4042
10862TIP3    H154001   4.656   1.811  14.728  1.9488  0.7398 -1.0130
10862TIP3    H254002   4.626   1.862  14.867  1.6882 -0.6959 -0.5157
10863TIP3   OH254003   0.884   1.089  16.064  0.3406 -0.4627  0.2731
10863TIP3    H154004   0.878   1.048  16.151  1.6189 -1.1232  0.0810
10863TIP3    H254005   0.923   1.175  16.081  1.3350 -0.8974  0.3087
10864TIP3   OH254006   0.364   3.706  15.003  0.1787  0.2778  0.3970
10864TIP3    H154007   0.340   3.798  14.999  0.0059  0.1827 -1.7621
10864TIP3    H254008   0.284   3.661  15.031  0.3389  0.7590  1.7325
10865TIP3   OH254009   0.975   6.163  11.862 -0.0641 -0.1032  0.6051
10865TIP3    H154010   0.882   6.186  11.865 -0.2342 -0.6604 -0.2471
10865TIP3    H254011   0.995   6.153  11.769 -0.0407 -3.4808  0.8726
10866TIP3   OH254012   1.770   5.988  13.120 -0.3638 -0.1725  0.1106
10866TIP3    H154013   1.774   6.056  13.188 -0.1524  0.4141 -0.4816
10866TIP3    H254014   1.685   6.003  13.077 -1.2806 -1.6102  1.3234
10867TIP3   OH254015   3.189   3.458  12.110  0.5909 -0.1872 -0.4465
10867TIP3    H154016   3.239   3.420  12.182  2.1516 -0.4979 -1.6344
10867TIP3    H254017   3.144   3.383  12.071 -3.0298  0.3736  2.1101
10868TIP3   OH254018   2.687   3.059   3.176 -0.0262 -0.8085  0.1271
10868TIP3    H154019   2.730   2.991   3.227  2.0254  0.0064 -0.4197
10868TIP3    H254020   2.652   3.120   3.241  0.1964 -1.1699  0.5879
10869TIP3   OH254021   5.380   6.641   2.782 -0.4847 -0.2394 -0.0621
10869TIP3    H154022   5.431   6.688   2.848 -1.5881 -0.8904  1.3419
10869TIP3    H254023   5.432   6.646   2.702  1.2820 -0.0430  1.0381
10870TIP3   OH254024   1.334   4.225   4.322  0.2884  0.5960  0.1751
10870TIP3    H154025   1.397   4.296   4.329 -0.1738  1.0414 -0.1103
10870TIP3    H254026   1.262   4.250   4.380 -0.1663  0.6778 -0.4106
10871TIP3   OH254027   4.118   5.892  14.885  0.0763 -0.2986 -0.3704
10871TIP3    H154028   4.066   5.919  14.961  0.0047 -2.3664  0.3726
10871TIP3    H254029   4.159   5.810  14.911  1.1249 -0.3889 -2.1169
10872TIP3   OH254030   4.064   2.743  14.026  0.3427 -0.1180  0.2472
10872TIP3    H154031   4.003   2.793  13.971 -0.0509  0.3750  1.1182
10872TIP3    H254032   4.008   2.682  14.074  0.6682 -0.4256  0.2359
10873TIP3   OH254033   5.033   0.240  16.264 -0.6174 -0.3877  0.1154
10873TIP3    H154034   5.066   0.295  16.336 -1.4757  0.5348 -0.1649
10873TIP3    H254035   4.998   0.163  16.307  0.2281 -0.5377  0.5594
10874TIP3   OH254036   1.936   1.239   5.167  0.2625  0.5569  0.2673
10874TIP3    H154037   1.984   1.206   5.243 -1.0716  2.7557  2.1876
10874TIP3    H254038   2.003   1.250   5.099  1.7619 -0.0848  1.5897
10875TIP3   OH254039   0.591   3.364   5.063  0.5934  0.1080  0.5044
10875TIP3    H154040   0.515   3.308   5.051 -0.0684  1.0930 -0.0254
10875TIP3    H254041   0.662   3.318   5.018  0.3040 -0.7810  0.9389
10876TIP3   OH254042   5.615   3.923   1.722 -0.1360  0.3788 -0.4327
10876TIP3    H154043   5.616   3.998   1.662  1.1565  0.8554  0.1389
10876TIP3    H254044   5.636   3.961   1.807 -2.0711 -0.2802  0.3679
10877TIP3   OH254045   6.114   1.059   5.901 -0.8669  0.0391  0.9217
10877TIP3    H154046   6.032   1.026   5.938 -1.1325  0.6526  0.8956
10877TIP3    H254047   6.094   1.074   5.809 -0.1235 -1.7623  0.4375
10878TIP3   OH254048   2.849   2.239  15.453 -0.4388 -0.5515 -0.1789
10878TIP3    H154049   2.858   2.331  15.430 -1.1652 -0.6839 -1.0575
10878TIP3    H254050   2.925   2.196  15.413  0.4171 -0.2233  1.0236
10879TIP3   OH254051   2.838   0.824  12.812 -0.3889  0.6665 -0.3424
10879TIP3    H154052   2.752   0.788  12.790  0.1937 -1.0706  0.0418
10879TIP3    H254053   2.871   0.766  12.880  1.9302  0.0536 -1.8841
10880TIP3   OH254054   3.286   0.651   1.418 -0.2542 -0.0006  0.5150
10880TIP3    H154055   3.298   0.678   1.509 -0.6167  0.2872  0.4801
10880TIP3    H254056   3.233   0.721   1.379 -0.1975 -0.1785  0.1130
10881TIP3   OH254057   4.453   1.371   0.821  0.2396  0.1395  0.4743
10881TIP3    H154058   4.466   1.329   0.906  0.1949 -1.9306 -0.4970
10881TIP3    H254059   4.522   1.335   0.766  1.1967  2.5581 -0.0458
10882TIP3   OH254060   4.455   2.441  11.967  0.6337 -0.2568  0.5084
10882TIP3    H154061   4.401   2.481  12.035  1.3464  0.0362  0.9148
10882TIP3    H254062   4.429   2.484  11.886 -0.5730 -0.9576  0.4999
10883TIP3   OH254063   3.366   3.385  16.869  0.9569 -0.2685 -0.1863
10883TIP3    H154064   3.285   3.436  16.859  0.2859 -1.3517 -0.3486
10883TIP3    H254065   3.417   3.435  16.933  0.7282  1.1110 -1.0491
10884TIP3   OH254066   2.002   0.038   0.115 -0.0090 -0.1354 -0.1566
10884TIP3    H154067   2.081   0.089   0.132 -0.6510  0.7947  0.1049
10884TIP3    H254068   1.951   0.091   0.054 -1.7468  0.6865  1.8635
10885TIP3   OH254069   2.349   4.377  10.846 -0.7356 -0.3921 -0.0124
10885TIP3    H154070   2.406   4.342  10.778 -1.1413  1.7139 -1.5633
10885TIP3    H254071   2.266   4.394  10.801 -1.0960  0.8619  1.0478
10886TIP3   OH254072   3.783   4.063   2.394  0.1359 -0.2561  0.2976
10886TIP3    H154073   3.771   4.158   2.403  0.5978  0.1000 -2.1061
10886TIP3    H254074   3.774   4.029   2.483  0.2974  2.0779  1.2822
10887TIP3   OH254075   4.996   3.841  16.842 -0.7348  0.3116  0.5633
10887TIP3    H154076   4.956   3.886  16.916 -0.4765  0.2308  0.7509
10887TIP3    H254077   5.084   3.876  16.837 -0.4882 -0.2547  0.7841
10888TIP3   OH254078   2.979   3.063  10.474 -0.0783  0.2210  0.2030
10888TIP3    H154079   2.931   3.137  10.438 -1.5420 -1.3853 -1.3639
10888TIP3    H254080   2.948   2.988  10.423  0.6817 -1.6070  2.2836
10889TIP3   OH254081   1.980   6.458  13.116  0.1111 -0.2993  0.1358
10889TIP3    H154082   1.900   6.509  13.120 -0.7914 -1.6397 -0.1249
10889TIP3    H254083   2.050   6.523  13.115 -0.9732  0.9060 -0.0395
10890TIP3   OH254084   2.851   2.838   5.876  0.6325 -0.0586  0.8136
10890TIP3    H154085   2.799   2.918   5.876  1.7655  0.7095  0.4809
10890TIP3    H254086   2.919   2.853   5.809  0.1767 -1.7636 -0.1098
10891TIP3   OH254087   4.985   6.775   5.460  0.0804 -0.0548 -0.0256
10891TIP3    H154088   4.971   6.831   5.383 -0.4462  0.8295  0.6976
10891TIP3    H254089   4.952   6.689   5.432 -1.2735  0.5510 -0.3947
10892TIP3   OH254090   5.151   0.854  13.297  0.0425 -0.2832  0.4128
10892TIP3    H154091   5.222   0.916  13.283  0.1650 -0.3666  0.6653
10892TIP3    H254092   5.104   0.888  13.374  0.4493 -0.8119  0.9001
10893TIP3   OH254093   4.887   6.720  12.705  0.6502  0.1510  0.2593
10893TIP3    H154094   4.812   6.777  12.686 -0.0140 -1.0595 -0.9651
10893TIP3    H254095   4.894   6.722  12.800 -1.8626 -0.7916  0.5538
10894TIP3   OH254096   5.846   6.227   2.322  0.7783  0.5963 -0.2131
10894TIP3    H154097   5.790   6.234   2.400  2.2066  1.3839  0.7976
10894TIP3    H254098   5.806   6.158   2.270  1.2171 -1.9320  2.4962
10895TIP3   OH254099   4.867   0.330   4.380 -0.0026 -1.0391 -0.2134
10895TIP3    H154100   4.792   0.390   4.377  0.1800 -0.7195  1.0077
10895TIP3    H254101   4.943   0.387   4.390  0.2700 -1.4290 -0.0294
10896TIP3   OH254102   4.752   3.031   5.317  0.4889  0.0005 -0.4877
10896TIP3    H154103   4.803   2.977   5.377 -0.7913 -2.4557 -1.4519
10896TIP3    H254104   4.666   3.039   5.359 -0.5744 -2.1410 -2.0720
10897TIP3   OH254105   3.914   0.018   3.917  0.1431 -0.2977  0.5220
10897TIP3    H154106   3.916   0.105   3.877 -0.5046 -0.4333  0.1733
10897TIP3    H254107   3.963   0.028   3.999  1.1967  0.0633 -0.1442
10898TIP3   OH254108   2.895   1.738   1.266  0.7619 -0.0882  0.6122
10898TIP3    H154109   2.821   1.710   1.319 -1.1539  1.1217 -1.2858
10898TIP3    H254110   2.931   1.813   1.314 -1.5886  1.6503 -0.1901
10899TIP3   OH254111   2.189   0.347   5.533  0.5357  0.7788  0.0931
10899TIP3    H154112   2.205   0.263   5.576  0.9427  0.5003 -0.5935
10899TIP3    H254113   2.275   0.387   5.525  0.5956  0.4163 -1.2874
10900TIP3   OH254114   6.598   0.343  10.466 -0.5731  0.0122 -0.4122
10900TIP3    H154115   6.532   0.387  10.412 -4.1074 -0.0851  3.2887
10900TIP3    H254116   6.567   0.253  10.475  0.0197 -0.0696  1.3850
10901TIP3   OH254117   1.194   1.464   4.992 -0.1601 -0.3683 -0.8026
10901TIP3    H154118   1.202   1.543   5.046  0.4742 -0.5976 -0.5488
10901TIP3    H254119   1.124   1.484   4.931  2.1184  1.7081 -2.9651
10902TIP3   OH254120   1.640   2.187   0.601  0.4287 -0.0777  0.4796
10902TIP3    H154121   1.687   2.140   0.533 -2.3563  1.3879 -2.7775
10902TIP3    H254122   1.675   2.276   0.598 -1.8896  0.9138 -1.6831
10903TIP3   OH254123   1.919   1.686   6.290 -0.0968  0.0937  0.0564
10903TIP3    H154124   1.857   1.746   6.250 -0.2322  0.2288  0.4680
10903TIP3    H254125   1.908   1.604   6.242 -0.9480 -0.0331  0.4567
10904TIP3   OH254126   1.207   2.475   4.829  0.0357  0.0339  0.0548
10904TIP3    H154127   1.236   2.410   4.765 -1.3354  0.2163 -0.7797
10904TIP3    H254128   1.284   2.489   4.885  0.9856 -0.7757 -1.0025
10905TIP3   OH254129   6.635   5.674  11.331 -0.1129 -0.4414 -0.6226
10905TIP3    H154130   6.556   5.721  11.303 -0.4416 -1.0441 -0.7103
10905TIP3    H254131   6.707   5.730  11.302 -0.5100  0.9298  0.8486
10906TIP3   OH254132   1.370   3.516   4.485 -0.1129 -0.0125 -0.1252
10906TIP3    H154133   1.422   3.511   4.405 -0.4358 -0.3223 -0.3181
10906TIP3    H254134   1.281   3.532   4.454 -0.2780 -0.3700  0.1576
10907TIP3   OH254135   5.772   0.642  12.822 -0.2872 -0.2280 -0.0171
10907TIP3    H154136   5.755   0.702  12.894 -0.7789 -0.6942  0.2614
10907TIP3    H254137   5.686   0.607  12.799  0.1547 -1.9821  0.8373
10908TIP3   OH254138   3.885   0.806   1.851  0.3984  0.6653  0.4348
10908TIP3    H154139   3.899   0.813   1.757  1.6861 -0.0774  0.5342
10908TIP3    H254140   3.794   0.830   1.865  0.0178  0.1395 -1.0713
10909TIP3   OH254141   4.869   0.162   5.957 -0.3786  0.8262  0.4120
10909TIP3    H154142   4.924   0.083   5.959 -1.2597  0.0010 -2.7363
10909TIP3    H254143   4.795   0.141   6.015 -0.9542 -1.0199 -0.8910
10910TIP3   OH254144   1.846   4.345  10.845 -0.7316 -0.0438 -0.4885
10910TIP3    H154145   1.785   4.276  10.872  0.4299 -0.4407  1.3093
10910TIP3    H254146   1.864   4.326  10.753 -3.1649  0.0138 -1.0472
10911TIP3   OH254147   0.095   0.435   2.489  0.4905  0.4326 -0.3850
10911TIP3    H154148   0.102   0.510   2.549 -3.5194  0.4687  0.2952
10911TIP3    H254149   0.121   0.360   2.542  1.4338  0.9706 -0.0671
10912TIP3   OH254150   4.988   1.751   3.097 -0.3416 -0.8218 -0.3127
10912TIP3    H154151   4.905   1.705   3.087 -0.6836 -0.5279  0.9636
10912TIP3    H254152   5.004   1.791   3.012 -1.6359 -0.6931 -0.5092
10913TIP3   OH254153   4.880   5.631  16.463  0.8039 -0.2843 -0.3209
10913TIP3    H154154   4.898   5.672  16.378  0.9678  0.2594 -0.0246
10913TIP3    H254155   4.785   5.618  16.463  0.6810  0.5769 -0.2024
10914TIP3   OH254156   3.906   2.285   2.264 -0.1359  0.8615  0.4206
10914TIP3    H154157   3.903   2.286   2.168 -0.6292 -1.2354  0.3748
10914TIP3    H254158   3.986   2.334   2.285  0.7295  0.1955 -1.1225
10915TIP3   OH254159   2.028   5.357   2.314  0.4598  0.3669 -0.2336
10915TIP3    H154160   1.980   5.274   2.305  0.1686  0.4406  0.5882
10915TIP3    H254161   1.960   5.422   2.331  0.7352  0.7023 -0.4076
10916TIP3   OH254162   5.552   4.295  12.985  0.9525  0.2192 -0.0211
10916TIP3    H154163   5.511   4.318  12.901  0.2407  0.6681  0.4464
10916TIP3    H254164   5.531   4.203  12.997 -1.2000  0.7805  0.9042
10917TIP3   OH254165   2.607   5.577  13.262  0.7471 -0.0952  0.4226
10917TIP3    H154166   2.593   5.483  13.262 -2.1648  0.2129  1.9624
10917TIP3    H254167   2.701   5.588  13.248  0.8504 -3.0830 -2.2676
10918TIP3   OH254168   5.400   4.272   6.226  0.0487 -0.1912  0.2531
10918TIP3    H154169   5.465   4.202   6.222  0.5204  0.3144 -2.2627
10918TIP3    H254170   5.318   4.229   6.251  0.4856 -1.5293 -0.5703
10919TIP3   OH254171   2.187   3.499   3.465  0.5231  0.5548  0.1497
10919TIP3    H154172   2.190   3.589   3.435  1.8731  0.2700 -0.6855
10919TIP3    H254173   2.219   3.502   3.556 -1.3211  1.1288  0.8154
10920TIP3   OH254174   5.390   2.431   6.341  0.3201 -0.5033 -0.2341
10920TIP3    H154175   5.338   2.390   6.409 -0.2028  0.1324 -0.2388
10920TIP3    H254176   5.336   2.426   6.262 -0.4010  1.4271  0.0679
10921TIP3   OH254177   6.475   4.701  14.137 -0.1970  0.5859 -0.0561
10921TIP3    H154178   6.425   4.712  14.218 -0.0305  2.1451 -0.1391
10921TIP3    H254179   6.502   4.790  14.113 -0.5119  0.2007 -2.0034
10922TIP3   OH254180   0.065   2.209   5.713  0.6548  0.0335 -0.3997
10922TIP3    H154181   0.065   2.266   5.636  0.9918 -0.0146 -0.4354
10922TIP3    H254182   0.108   2.129   5.683 -0.8873 -0.7293 -0.7076
10923TIP3   OH254183   4.899   0.575   3.705  0.2123  0.5307 -0.0444
10923TIP3    H154184   4.985   0.565   3.665 -0.0111  0.8051 -0.6141
10923TIP3    H254185   4.912   0.639   3.775  0.3749  0.9298 -0.4371
10924TIP3   OH254186   4.787   4.171  11.551 -0.2376 -0.1618 -0.9065
10924TIP3    H154187   4.694   4.166  11.573  0.0834 -1.4006  0.3109
10924TIP3    H254188   4.792   4.141  11.461 -1.0234  0.0234 -1.0174
10925TIP3   OH254189   0.411   5.071  13.332  0.2657 -0.3469  0.5795
10925TIP3    H154190   0.396   5.144  13.393  1.8964  1.4074 -0.9692
10925TIP3    H254191   0.487   5.026  13.368 -0.2002 -0.7529  1.0675
10926TIP3   OH254192   4.380   5.462  16.165 -0.7042 -0.1983  0.3376
10926TIP3    H154193   4.344   5.525  16.102  0.5034  0.4675  0.2885
10926TIP3    H254194   4.318   5.389  16.164 -0.5261 -0.3740 -1.9090
10927TIP3   OH254195   6.229   5.823   3.663  0.4071  0.0519  0.4278
10927TIP3    H154196   6.300   5.784   3.612  0.4116 -0.8113  1.0648
10927TIP3    H254197   6.196   5.895   3.609  1.3901  0.0976 -0.1197
10928TIP3   OH254198   2.913   2.981   4.030  0.0983  0.3509  0.0731
10928TIP3    H154199   2.902   3.018   4.118 -1.3028 -0.1986  0.1608
10928TIP3    H254200   2.848   2.911   4.026 -0.6254  1.0740 -1.7900
10929TIP3   OH254201   3.083   4.208   4.601 -0.1502 -0.5245  0.2943
10929TIP3    H154202   3.124   4.270   4.541  0.9711 -0.0360  1.5099
10929TIP3    H254203   3.127   4.125   4.582 -0.9936 -0.7633 -0.6930
10930TIP3   OH254204   6.710   2.030   6.249  0.2111 -0.4785  0.5303
10930TIP3    H154205   6.782   1.977   6.213  1.0732 -0.4119  2.0781
10930TIP3    H254206   6.639   2.020   6.185  1.6509 -0.3754 -1.1540
10931TIP3   OH254207   4.294   4.527   3.748  0.0280  0.1934  0.4584
10931TIP3    H154208   4.362   4.468   3.783 -0.4614 -3.0102 -3.2515
10931TIP3    H254209   4.214   4.502   3.794  0.6066  1.3328  2.1701
10932TIP3   OH254210   5.561   6.390   2.914  0.0026 -0.5053  0.2304
10932TIP3    H154211   5.641   6.376   2.965 -0.1816  1.4620  1.1369
10932TIP3    H254212   5.543   6.483   2.923 -2.1459 -0.8245 -0.3658
10933TIP3   OH254213   0.234   1.430  13.220 -0.0173 -0.3769 -0.3139
10933TIP3    H154214   0.309   1.462  13.270  2.5297 -2.3052 -2.5732
10933TIP3    H254215   0.183   1.379  13.283  2.8968 -2.4986  0.5721
10934TIP3   OH254216   3.173   2.181  16.677  0.4058  0.2139 -0.1885
10934TIP3    H154217   3.208   2.141  16.757 -0.4918 -0.3022 -0.0476
10934TIP3    H254218   3.079   2.181  16.689  0.3240  1.2863 -0.7143
10935TIP3   OH254219   0.537   2.802   0.204 -0.3992  0.4353  0.2663
10935TIP3    H154220   0.567   2.769   0.120 -0.4624  0.6340  0.1665
10935TIP3    H254221   0.458   2.752   0.223  0.6452 -0.9886  1.1146
10936TIP3   OH254222   1.808   2.595   1.004 -0.1280 -0.1898  0.5036
10936TIP3    H154223   1.769   2.566   1.086  1.8903 -4.2876  0.2750
10936TIP3    H254224   1.785   2.527   0.941  1.4151  0.9497 -1.4202
10937TIP3   OH254225   6.328   0.303   2.381 -0.1976 -0.3851  0.0036
10937TIP3    H154226   6.242   0.343   2.393 -0.2833 -0.5759  0.0234
10937TIP3    H254227   6.325   0.222   2.431 -0.3550 -0.8952 -0.8115
10938TIP3   OH254228   3.587   5.702  14.918  0.0992 -0.1336  0.1535
10938TIP3    H154229   3.612   5.612  14.895 -1.0667 -0.1379 -1.2162
10938TIP3    H254230   3.645   5.757  14.865 -0.6691 -0.1100 -0.6697
10939TIP3   OH254231   2.236   2.070   3.230  0.4270  0.2735 -0.6115
10939TIP3    H154232   2.213   1.988   3.187 -1.1259  1.7782 -2.8338
10939TIP3    H254233   2.329   2.082   3.210  0.6413 -0.8374 -0.3585
10940TIP3   OH254234   5.269   3.941   4.717  0.3682 -0.1843  0.8797
10940TIP3    H154235   5.311   3.952   4.632 -1.3698  0.1844  0.0149
10940TIP3    H254236   5.311   4.005   4.774  0.0812  1.0852 -0.2936
10941TIP3   OH254237   5.237   5.125   3.532  0.6360  0.3431  0.2974
10941TIP3    H154238   5.175   5.176   3.479  1.6012  2.0053  0.7147
10941TIP3    H254239   5.220   5.034   3.507 -1.4742  0.8052 -0.1173
10942TIP3   OH254240   2.404   3.741   2.220 -0.0574  0.2728 -0.0412
10942TIP3    H154241   2.450   3.760   2.138  2.3144 -1.2362  0.8136
10942TIP3    H254242   2.468   3.760   2.288 -1.2181 -0.5491  1.3351
10943TIP3   OH254243   2.458   4.031   0.912  0.3745 -0.2563  0.2651
10943TIP3    H154244   2.545   4.064   0.934  0.7760 -1.7942  1.1565
10943TIP3    H254245   2.403   4.109   0.908  1.1553  0.5242  2.6985
10944TIP3   OH254246   1.921   0.941  14.681 -0.0579  0.0085 -0.0560
10944TIP3    H154247   1.951   0.855  14.710 -1.9650 -0.6141  0.2554
10944TIP3    H254248   1.882   0.925  14.595 -0.1118  0.6169 -0.1492
10945TIP3   OH254249   0.082   4.067   4.064  0.0779 -0.3400  0.5002
10945TIP3    H154250   0.013   4.089   4.002 -0.7669 -0.8988  1.2059
10945TIP3    H254251   0.155   4.125   4.041 -1.4160  1.9723  1.1872
10946TIP3   OH254252   4.262   3.752  13.791  0.4121 -0.0821 -0.1352
10946TIP3    H154253   4.289   3.765  13.882 -1.3687  0.1629  0.3927
10946TIP3    H254254   4.309   3.673  13.764  0.4507 -0.5592  1.2296
10947TIP3   OH254255   1.474   6.030  15.752  0.3654  0.1216  0.3049
10947TIP3    H154256   1.471   6.116  15.710 -0.3154 -0.7131 -1.4650
10947TIP3    H254257   1.392   5.988  15.727  0.7685 -1.1250  0.9693
10948TIP3   OH254258   3.803   4.456  10.868  0.3051 -0.9348 -0.4144
10948TIP3    H154259   3.877   4.402  10.840  0.6203 -0.1018 -1.2397
10948TIP3    H254260   3.844   4.532  10.909 -0.0496  0.0001 -1.7395
10949TIP3   OH254261   5.060   6.283  16.506  0.1381  0.0548 -0.3676
10949TIP3    H154262   5.104   6.355  16.461 -0.2095  0.0663 -0.6986
10949TIP3    H254263   5.011   6.238  16.437  1.3419 -1.2728 -0.4084
10950TIP3   OH254264   5.504   2.620   5.118 -0.1759 -0.1923  0.4539
10950TIP3    H154265   5.539   2.562   5.185  0.8523  1.4460  1.4022
10950TIP3    H254266   5.562   2.696   5.119  0.4928 -0.5016 -3.0145
10951TIP3   OH254267   5.001   4.509  13.697 -0.2005  0.0980 -0.3151
10951TIP3    H154268   4.991   4.435  13.636 -2.3513  0.4117 -0.4209
10951TIP3    H254269   5.093   4.505  13.724 -0.3669 -3.0174  0.1926
10952TIP3   OH254270   6.655   0.901   2.212  0.2244 -1.0808  0.6188
10952TIP3    H154271   6.681   0.847   2.137  0.7298 -0.6741  0.5014
10952TIP3    H254272   6.679   0.848   2.288 -1.2603 -1.9714  0.5210
10953TIP3   OH254273   0.769   3.677  13.361  0.0485  0.3973  0.4067
10953TIP3    H154274   0.830   3.619  13.407  0.8988  1.4838  0.6871
10953TIP3    H254275   0.766   3.756  13.414 -0.5619  0.8755 -0.3217
10954TIP3   OH254276   5.531   0.799   3.737 -0.6340 -0.2699  0.1032
10954TIP3    H154277   5.578   0.790   3.820  0.2315 -0.9662 -0.4528
10954TIP3    H254278   5.474   0.875   3.751  1.4208  1.3091  0.4285
10955TIP3   OH254279   2.228   4.041  13.604 -0.2533  0.0227  0.1598
10955TIP3    H154280   2.251   4.041  13.697 -0.0298 -0.2406  0.1048
10955TIP3    H254281   2.170   4.117  13.594 -0.2615  0.0647  0.5095
10956TIP3   OH254282   0.492   6.474   3.159 -0.0099 -0.5726 -0.1714
10956TIP3    H154283   0.403   6.486   3.124 -0.4777 -0.8689  0.9037
10956TIP3    H254284   0.539   6.552   3.129 -0.7638 -0.1683 -0.3364
10957TIP3   OH254285   2.210   2.573   2.074  0.2215  0.0627 -0.3562
10957TIP3    H154286   2.269   2.595   2.002  0.1061 -0.5505 -0.6440
10957TIP3    H254287   2.126   2.557   2.031  0.4331 -1.4896 -0.2328
10958TIP3   OH254288   4.505   6.046  11.989 -0.4642 -0.3894 -0.0225
10958TIP3    H154289   4.433   6.051  11.926 -0.8595  0.2728  0.4760
10958TIP3    H254290   4.582   6.073  11.939 -0.5855 -0.8786 -0.4934
10959TIP3   OH254291   0.747   5.603  12.959 -0.7555 -0.2924 -0.1632
10959TIP3    H154292   0.652   5.607  12.964 -0.6999  0.3005  0.5995
10959TIP3    H254293   0.774   5.693  12.945 -0.2287 -0.1396  1.5208
10960TIP3   OH254294   0.806   3.410   5.440  0.2201 -0.3744 -0.3358
10960TIP3    H154295   0.862   3.430   5.364  1.4969 -0.3175  0.5832
10960TIP3    H254296   0.856   3.441   5.515 -0.7224 -1.0358  0.5923
10961TIP3   OH254297   1.884   0.854   4.972 -0.1041  0.0580  0.6033
10961TIP3    H154298   1.797   0.881   4.943 -0.3858 -1.0910  0.3469
10961TIP3    H254299   1.925   0.817   4.894 -0.1679 -1.3236  1.2071
10962TIP3   OH254300   4.188   5.168  12.297 -0.3492 -0.0244  0.3713
10962TIP3    H154301   4.116   5.107  12.283  1.4986 -1.9467 -1.6437
10962TIP3    H254302   4.213   5.154  12.388  1.0764 -3.7745 -0.3765
10963TIP3   OH254303   6.493   5.882   2.606 -0.9909 -0.4926  0.5005
10963TIP3    H154304   6.447   5.830   2.671 -0.9761 -0.6262  0.4041
10963TIP3    H254305   6.431   5.892   2.534 -0.8575 -0.7023  0.3555
10964TIP3   OH254306   5.058   5.199   0.745  0.3247 -0.0735  0.1441
10964TIP3    H154307   5.088   5.109   0.752  1.0753  0.2319  0.9669
10964TIP3    H254308   5.084   5.240   0.827 -0.9772  0.6195  0.2409
10965TIP3   OH254309   1.371   3.589   3.015 -0.0789  0.3818  0.4461
10965TIP3    H154310   1.324   3.612   2.936 -1.7847  0.4806  1.4413
10965TIP3    H254311   1.319   3.626   3.086 -0.1699 -2.1022  1.8006
10966TIP3   OH254312   4.162   1.733   5.582 -0.0213 -0.4356  0.4028
10966TIP3    H154313   4.204   1.648   5.595  2.1418  0.5480  0.2121
10966TIP3    H254314   4.224   1.796   5.618 -1.9415  1.0521  1.2855
10967TIP3   OH254315   2.751   1.193   1.346 -0.3643 -0.1206 -0.2926
10967TIP3    H154316   2.769   1.115   1.294 -0.0442  0.6491 -1.3695
10967TIP3    H254317   2.806   1.261   1.307 -1.3421  0.8767  0.0079
10968TIP3   OH254318   2.416   0.458   2.159  0.2634 -0.4770  0.2332
10968TIP3    H154319   2.345   0.399   2.134 -0.6725  0.1279  1.3650
10968TIP3    H254320   2.402   0.474   2.252  0.7213  1.2190  0.0370
10969TIP3   OH254321   2.782   2.755  15.215 -0.0627  0.4097 -0.0509
10969TIP3    H154322   2.716   2.804  15.263  0.3054  0.3596  0.5153
10969TIP3    H254323   2.733   2.683  15.173 -0.2454 -0.1200  1.0411
10970TIP3   OH254324   3.883   2.508  12.451 -0.6254  0.4996 -0.0910
10970TIP3    H154325   3.953   2.521  12.515  0.0109  1.3803 -0.9417
10970TIP3    H254326   3.803   2.506  12.504 -0.1285  1.3665  0.7356
10971TIP3   OH254327   1.294   6.537  11.512 -0.4743  0.2854 -0.8691
10971TIP3    H154328   1.262   6.614  11.465 -0.1524  0.3737 -0.9427
10971TIP3    H254329   1.218   6.478  11.516 -0.8664  0.8078 -0.3813
10972TIP3   OH254330   2.540   5.391  13.765 -0.1416  0.4011 -0.0952
10972TIP3    H154331   2.465   5.332  13.774 -0.8741  1.1811 -0.8610
10972TIP3    H254332   2.534   5.423  13.675  1.7872 -0.3966 -0.5465
10973TIP3   OH254333   5.833   0.990  12.767 -0.4356  0.8053 -0.0406
10973TIP3    H154334   5.832   1.084  12.751 -0.2047  0.7222 -0.5413
10973TIP3    H254335   5.874   0.952  12.689 -1.7561  0.1631 -0.4445
10974TIP3   OH254336   3.842   6.356   4.187  0.3010  0.3200 -0.2534
10974TIP3    H154337   3.840   6.451   4.190 -0.4950  0.3043 -0.1251
10974TIP3    H254338   3.782   6.333   4.116  0.2949 -0.0949 -0.1156
10975TIP3   OH254339   5.476   5.595  10.359  0.1765 -0.4660  0.5574
10975TIP3    H154340   5.457   5.504  10.340 -0.9727  0.3385 -3.0185
10975TIP3    H254341   5.562   5.611  10.320 -1.0265  0.6127 -1.9106
10976TIP3   OH254342   0.225   5.851   4.822  0.9573 -0.1503  0.2030
10976TIP3    H154343   0.160   5.870   4.889 -0.9132  0.2364 -1.5945
10976TIP3    H254344   0.285   5.789   4.863 -0.5414 -0.5181  1.9581
10977TIP3   OH254345   3.230   2.601   0.493 -0.3813 -0.0961 -0.1292
10977TIP3    H154346   3.305   2.543   0.480 -0.0382  0.1748  0.6098
10977TIP3    H254347   3.211   2.635   0.405  0.8409  0.4146 -0.2124
10978TIP3   OH254348   0.239   1.312  13.698  0.6365  0.0228  0.2100
10978TIP3    H154349   0.148   1.339  13.683  0.9034 -0.1891 -2.1679
10978TIP3    H254350   0.281   1.389  13.736  0.0198  1.0084 -1.0420
10979TIP3   OH254351   1.114   2.425   2.822  0.4582  0.1632 -1.0061
10979TIP3    H154352   1.074   2.473   2.749 -0.5225 -0.6017 -0.9974
10979TIP3    H254353   1.041   2.377   2.861  0.9098  0.7964  0.6872
10980TIP3   OH254354   6.330   6.754   3.617 -0.7591 -0.6814  0.1349
10980TIP3    H154355   6.347   6.761   3.711 -2.4759  1.2711  0.3549
10980TIP3    H254356   6.241   6.718   3.612 -1.5067  1.1620 -0.6466
10981TIP3   OH254357   1.692   4.160  14.846  0.4438 -0.3372  0.1077
10981TIP3    H154358   1.616   4.103  14.850 -0.6051  1.0323  0.6491
10981TIP3    H254359   1.683   4.207  14.763  0.8901 -0.4044  0.0157
10982TIP3   OH254360   6.804   6.122   0.757 -0.1440  0.1588 -0.2415
10982TIP3    H154361   6.862   6.071   0.700  0.0168 -0.8531  0.7957
10982TIP3    H254362   6.798   6.208   0.715  1.0311 -0.1483 -1.0704
10983TIP3   OH254363   3.186   1.896  16.466 -0.0769 -0.6710  0.1839
10983TIP3    H154364   3.138   1.965  16.512  1.8872  0.2829  0.9667
10983TIP3    H254365   3.133   1.818  16.477 -1.9518  0.5259  0.0198
10984TIP3   OH254366   6.504   0.756  13.104  0.0199  0.6290  0.0619
10984TIP3    H154367   6.576   0.700  13.134 -0.7119 -0.7221 -0.6181
10984TIP3    H254368   6.548   0.827  13.056  0.8715 -1.1106 -1.8595
10985TIP3   OH254369   0.265   1.260  12.461  0.4093 -0.3008  0.1113
10985TIP3    H154370   0.176   1.253  12.494  0.4852 -0.7037  0.2407
10985TIP3    H254371   0.274   1.351  12.434  0.0031 -0.2270  0.2222
10986TIP3   OH254372   6.538   4.503   2.400 -0.3866  0.2653  0.0945
10986TIP3    H154373   6.506   4.509   2.310 -0.1372  3.8550  0.1017
10986TIP3    H254374   6.633   4.515   2.393 -0.6037  3.2427  0.8794
10987TIP3   OH254375   4.415   1.060   3.146  0.1826 -0.5721  0.3276
10987TIP3    H154376   4.369   0.980   3.173 -0.9719 -0.6724 -1.6947
10987TIP3    H254377   4.348   1.128   3.150  1.0132  0.1970  1.4794
10988TIP3   OH254378   4.047   4.737  16.809 -0.6604  0.0748 -0.2699
10988TIP3    H154379   4.096   4.771  16.884  0.2886  1.9805 -1.6784
10988TIP3    H254380   4.114   4.713  16.746 -1.4738 -0.6498 -0.8832
10989TIP3   OH254381   6.255   0.161   3.480 -0.0036 -0.2510 -0.0312
10989TIP3    H154382   6.290   0.085   3.527  2.8522  1.3574  0.7079
10989TIP3    H254383   6.192   0.200   3.541 -0.1253 -0.9952  0.3354
10990TIP3   OH254384   2.153   0.466  14.862 -0.5721 -0.1147  0.1859
10990TIP3    H154385   2.224   0.421  14.815  1.3428  4.0725 -1.5082
10990TIP3    H254386   2.157   0.432  14.951  3.9993  0.0747  0.3008
10991TIP3   OH254387   3.611   2.881  15.749  0.2244  0.8505 -0.3614
10991TIP3    H154388   3.561   2.954  15.785  0.5582  1.9039 -1.9269
10991TIP3    H254389   3.548   2.832  15.697 -0.1327 -0.3608  1.1325
10992TIP3   OH254390   6.745   1.946   4.806  0.6062  1.0113 -0.2562
10992TIP3    H154391   6.768   2.032   4.771  1.8587  0.9073  0.2686
10992TIP3    H254392   6.806   1.886   4.764 -0.5521  0.2834 -0.9639
10993TIP3   OH254393   1.308   0.137  13.466  0.3456  0.1680  0.1210
10993TIP3    H154394   1.318   0.116  13.373  0.7349  0.1781  0.1609
10993TIP3    H254395   1.332   0.230  13.472 -1.2149  0.6135 -0.0318
10994TIP3   OH254396   6.480   5.676   3.832 -0.3741  0.2985 -0.2530
10994TIP3    H154397   6.452   5.732   3.905  0.9157  1.5800 -0.6732
10994TIP3    H254398   6.572   5.700   3.819 -0.2142 -0.8819 -1.4343
10995TIP3   OH254399   2.704   0.262  16.116  0.2388  0.4349 -0.4821
10995TIP3    H154400   2.743   0.180  16.086  1.5521  0.1444  1.8030
10995TIP3    H254401   2.764   0.330  16.086  2.0091  0.0827  1.9198
10996TIP3   OH254402   2.786   6.559   1.014  0.2595  0.7342  0.0097
10996TIP3    H154403   2.851   6.499   1.050 -0.5151  0.1728  0.4986
10996TIP3    H254404   2.746   6.511   0.942 -2.3650 -0.5817  2.1325
10997TIP3   OH254405   3.223   0.829  14.183  0.0453  0.7463 -0.2056
10997TIP3    H154406   3.169   0.902  14.213 -1.5569 -0.0711 -0.9951
10997TIP3    H254407   3.206   0.758  14.245 -0.1890  0.3220 -0.7482
10998TIP3   OH254408   6.815   4.997   0.260  0.0497  0.2711 -0.3266
10998TIP3    H154409   6.798   5.038   0.175  1.6805 -0.5387 -1.0920
10998TIP3    H254410   6.763   4.917   0.258  1.3302 -0.5885 -1.3110
10999TIP3   OH254411   3.307   3.010   0.845 -0.1842  0.0650 -0.0413
10999TIP3    H154412   3.233   3.062   0.814 -1.8741 -3.2049 -2.0721
10999TIP3    H254413   3.358   2.991   0.766  1.4926  0.2327  0.9546
11000TIP3   OH254414   0.711   1.256  14.428 -0.2530  0.1215  0.4302
11000TIP3    H154415   0.745   1.171  14.404  2.0940  0.7035  1.4293
11000TIP3    H254416   0.728   1.264  14.522 -2.1206  0.9756  0.7572
11001TIP3   OH254417   0.697   6.043   0.232 -0.2349 -0.6868 -0.8578
11001TIP3    H154418   0.781   6.017   0.193  0.6127 -0.7124  0.9133
11001TIP3    H254419   0.642   5.965   0.225  0.5066 -1.2558 -0.3893
11002TIP3   OH254420   2.672   0.428   5.937 -0.2018  0.6057 -0.5567
11002TIP3    H154421   2.751   0.432   5.992 -0.5167 -0.1296 -0.0388
11002TIP3    H254422   2.599   0.437   5.998 -0.5552 -0.1898 -0.8475
11003TIP3   OH254423   6.420   3.455  13.845  0.0756 -0.1653 -0.6929
11003TIP3    H154424   6.366   3.464  13.924 -0.9799 -2.3095 -1.1001
11003TIP3    H254425   6.482   3.385  13.867  0.5456  0.0401 -1.3552
11004TIP3   OH254426   4.137   5.257  10.214  0.0568 -0.1606  0.2606
11004TIP3    H154427   4.207   5.319  10.196  1.0255 -1.2141  0.3254
11004TIP3    H254428   4.177   5.190  10.269 -1.6021  0.4047  2.2548
11005TIP3   OH254429   1.146   1.860  13.259  0.1324 -0.1947 -0.5233
11005TIP3    H154430   1.215   1.799  13.285 -1.7664 -2.3697 -0.3201
11005TIP3    H254431   1.179   1.946  13.285  3.0787 -1.0137 -1.1404
11006TIP3   OH254432   6.626   5.345  15.449  0.2864 -0.5102  0.4150
11006TIP3    H154433   6.606   5.322  15.359 -1.5483  0.8557  0.4118
11006TIP3    H254434   6.681   5.423  15.443 -0.2079 -0.1513  0.4570
11007TIP3   OH254435   2.768   0.027  11.778  0.0038 -0.5977  0.3508
11007TIP3    H154436   2.715  -0.036  11.728 -1.2025 -0.2610  1.1528
11007TIP3    H254437   2.858   0.009  11.752 -0.3535 -2.3205  0.1943
11008TIP3   OH254438   3.429   2.318   0.556 -0.0378  0.6663 -0.3298
11008TIP3    H154439   3.453   2.377   0.626  0.9176 -0.3421  0.2245
11008TIP3    H254440   3.481   2.239   0.571 -0.9152 -0.1463 -1.3104
11009TIP3   OH254441   0.260   1.727  16.550 -0.7127 -0.0007 -0.1890
11009TIP3    H154442   0.319   1.802  16.556  0.2007 -0.4697 -2.2757
11009TIP3    H254443   0.312   1.654  16.584 -1.1983  0.0993  0.7905
11010TIP3   OH254444   3.171   5.245   0.166 -0.3966  0.2087  0.4772
11010TIP3    H154445   3.126   5.161   0.170  0.8651 -0.4852  0.7114
11010TIP3    H254446   3.185   5.260   0.072  1.7627 -1.2277  0.4864
11011TIP3   OH254447   1.667   2.226  13.186  0.1508 -0.2140 -0.1927
11011TIP3    H154448   1.585   2.191  13.151 -0.0030 -0.9793  0.8777
11011TIP3    H254449   1.675   2.186  13.273  2.5189 -1.5721 -0.9338
11012TIP3   OH254450   2.133   5.938   2.599 -0.4344  0.6286 -0.1948
11012TIP3    H154451   2.189   5.862   2.613 -2.3343 -1.0062 -0.9658
11012TIP3    H254452   2.094   5.955   2.685  3.4361  3.8571  1.2530
11013TIP3   OH254453   0.120   0.114  11.576  0.4347  0.3567  0.0306
11013TIP3    H154454   0.039   0.165  11.584 -0.7486 -0.7946 -3.0202
11013TIP3    H254455   0.189   0.179  11.566 -0.4381  1.3656  0.4276
11014TIP3   OH254456   6.700   5.632  13.039 -0.2090  0.5628 -0.0057
11014TIP3    H154457   6.718   5.538  13.031  0.7385  0.6081  1.3370
11014TIP3    H254458   6.624   5.647  12.982  0.1447 -0.8468 -0.8903
11015TIP3   OH254459   4.207   2.783  12.116 -0.1319  0.0834  0.0024
11015TIP3    H154460   4.127   2.736  12.140 -0.7284  0.6083 -0.9068
11015TIP3    H254461   4.236   2.824  12.198 -0.8823  0.0281  0.3017
11016TIP3   OH254462   3.697   6.315  12.549 -0.0715  0.4603 -0.3240
11016TIP3    H154463   3.724   6.256  12.620 -1.8691 -0.3069 -0.2404
11016TIP3    H254464   3.726   6.271  12.469 -1.1804 -0.4383 -0.2468
11017TIP3   OH254465   1.936   4.995  15.137 -0.3801 -0.2579  0.2397
11017TIP3    H154466   1.908   4.984  15.046  1.9501  1.8171 -0.8450
11017TIP3    H254467   2.008   4.933  15.148  0.1255  0.3254  0.2677
11018TIP3   OH254468   0.343   0.102  14.258  0.0545 -0.0243 -0.4423
11018TIP3    H154469   0.406   0.172  14.240 -0.2447  0.5853  0.7634
11018TIP3    H254470   0.280   0.142  14.318  0.1615 -1.4690  0.6933
11019TIP3   OH254471   6.612   4.256  11.489  0.2675 -0.1822  0.4222
11019TIP3    H154472   6.632   4.162  11.496  2.4189  0.2958  1.4435
11019TIP3    H254473   6.519   4.259  11.465  0.5807 -2.5999 -1.5027
11020TIP3   OH254474   1.883   1.884   1.928 -0.1659 -0.1034 -0.0849
11020TIP3    H154475   1.963   1.841   1.897  1.3881  1.6721  1.2849
11020TIP3    H254476   1.903   1.977   1.927 -1.9454  0.3422  1.0862
11021TIP3   OH254477   1.120   1.321   3.366  0.3638  0.0049  0.1053
11021TIP3    H154478   1.098   1.257   3.299 -1.8565  1.5977 -0.8042
11021TIP3    H254479   1.036   1.352   3.399  1.3790  0.9877  1.9703
11022TIP3   OH254480   0.948   6.717   1.049 -0.6748 -0.0916  0.0653
11022TIP3    H154481   0.911   6.800   1.079  2.0931  0.4406  2.3947
11022TIP3    H254482   0.925   6.654   1.117 -0.8660 -0.7566 -0.5966
11023TIP3   OH254483   4.012   2.076   0.904 -0.1916  0.8978 -0.7076
11023TIP3    H154484   4.023   2.068   0.809  1.4333 -1.2103 -0.4294
11023TIP3    H254485   4.099   2.098   0.936  0.2861 -2.2475  0.5273
11024TIP3   OH254486   4.916   1.835  10.758 -0.1304  0.3628 -0.0452
11024TIP3    H154487   4.981   1.878  10.703  0.3959 -1.1062 -0.6139
11024TIP3    H254488   4.895   1.900  10.825  1.2584  1.1865 -0.3649
11025TIP3   OH254489   4.413   2.441   4.490 -0.1579 -0.2410  0.6940
11025TIP3    H154490   4.380   2.354   4.514  0.0534 -0.2233  1.0451
11025TIP3    H254491   4.335   2.495   4.482 -0.3096 -0.5129  0.2618
11026TIP3   OH254492   3.534   6.792  13.022 -0.6428 -0.3122 -0.3535
11026TIP3    H154493   3.529   6.723  13.087  0.0373  0.2779  0.3482
11026TIP3    H254494   3.444   6.807  12.995 -1.1183  0.3255  1.4327
11027TIP3   OH254495   1.389   3.044   2.482 -0.4690 -0.0902  0.7890
11027TIP3    H154496   1.385   3.110   2.413 -1.0186 -0.6922  0.2361
11027TIP3    H254497   1.303   3.048   2.524 -0.2487  0.0483  1.2290
11028TIP3   OH254498   2.431   4.093  13.405  0.4034  0.3607 -0.0773
11028TIP3    H154499   2.374   4.050  13.469 -0.4901  0.0844 -1.0320
11028TIP3    H254500   2.372   4.122  13.336  1.6456 -1.9868 -2.2716
11029TIP3   OH254501   3.959   6.191  16.306 -0.5645 -0.2814  0.8370
11029TIP3    H154502   3.925   6.181  16.217  3.3343 -2.1950 -0.6822
11029TIP3    H254503   4.019   6.266  16.300 -0.9441  0.1484  2.1350
11030TIP3   OH254504   2.449   1.145   5.867  0.0079 -0.0471 -0.0253
11030TIP3    H154505   2.437   1.230   5.824  1.9316 -0.1240 -0.8447
11030TIP3    H254506   2.499   1.093   5.803  0.8373 -1.0016  1.3422
11031TIP3   OH254507   5.867   0.006  15.205 -0.5028 -0.3978  0.8595
11031TIP3    H154508   5.887   0.075  15.142 -1.8737 -0.9755 -0.2515
11031TIP3    H254509   5.778   0.026  15.235 -1.7108 -2.6237 -0.8852
11032TIP3   OH254510   0.237   4.280   1.164 -0.2601  0.2023  0.1954
11032TIP3    H154511   0.156   4.320   1.197 -0.4996  0.6015 -0.8108
11032TIP3    H254512   0.234   4.297   1.070  1.3220  0.7963  0.2317
11033TIP3   OH254513   4.122   5.992   0.724 -0.4385 -0.0642  0.2027
11033TIP3    H154514   4.157   6.009   0.812  0.8553 -2.7716  0.3018
11033TIP3    H254515   4.097   5.900   0.725 -0.5096 -0.1358 -2.2437
11034TIP3   OH254516   5.958   1.531  13.895 -0.0092  0.2518 -0.3570
11034TIP3    H154517   5.866   1.540  13.920  0.1834  0.8006  0.1757
11034TIP3    H254518   5.970   1.593  13.823  0.6663  2.4982  1.5683
11035TIP3   OH254519   5.865   1.969   0.179  0.4579  0.2093  0.3127
11035TIP3    H154520   5.799   1.906   0.209  0.1544  0.3741  0.0048
11035TIP3    H254521   5.933   1.967   0.246  0.3095 -0.2288  0.4547
11036TIP3   OH254522   4.572   0.414  11.820  0.0531 -0.0144 -0.1101
11036TIP3    H154523   4.481   0.387  11.831  0.0871 -0.0345  0.1390
11036TIP3    H254524   4.609   0.410  11.909 -0.0028  1.0641 -0.0256
11037TIP3   OH254525   5.985   3.363  14.330  0.3301  0.4044  0.1143
11037TIP3    H154526   5.916   3.342  14.267 -0.2549 -1.2274  1.2144
11037TIP3    H254527   6.049   3.293  14.319  0.8726  0.8573  0.3957
11038TIP3   OH254528   0.210   1.253  11.920 -0.0771 -0.0868  0.0542
11038TIP3    H154529   0.205   1.328  11.979 -0.4701  1.5860 -1.9746
11038TIP3    H254530   0.301   1.226  11.923 -0.3053 -0.8184  2.2501
11039TIP3   OH254531   1.619   1.612  11.606 -0.2020  0.5709  0.1605
11039TIP3    H154532   1.663   1.601  11.522  0.0306  1.5848  0.1439
11039TIP3    H254533   1.606   1.523  11.638  1.3190  0.2321 -0.1165
11040TIP3   OH254534   3.285   6.214  13.485 -0.6250  0.8872  0.0410
11040TIP3    H154535   3.277   6.178  13.573 -0.4918 -0.0668 -0.3238
11040TIP3    H254536   3.289   6.309  13.498  0.3352  0.7205  1.1338
11041TIP3   OH254537   0.480   2.987   5.229 -0.4063  0.9214  0.2112
11041TIP3    H154538   0.553   2.942   5.271 -1.0865 -0.6050 -0.1478
11041TIP3    H254539   0.510   3.077   5.218  1.3493  0.3792  0.2269
11042TIP3   OH254540   5.423   0.085  14.669  0.1656  0.2110  0.2197
11042TIP3    H154541   5.505   0.070  14.716  0.6186 -0.7403 -0.8274
11042TIP3    H254542   5.396  -0.002  14.640  0.3984  0.8570 -2.0813
11043TIP3   OH254543   5.833   5.325  14.987 -0.6997  0.3866 -0.4594
11043TIP3    H154544   5.813   5.412  14.951  1.7828  0.9732 -0.6136
11043TIP3    H254545   5.753   5.299  15.033 -1.5730  2.6897 -0.5392
11044TIP3   OH254546   1.988   6.652   0.901 -0.4184  0.3988  0.2554
11044TIP3    H154547   1.963   6.570   0.942 -1.1283  0.6756  0.3800
11044TIP3    H254548   1.939   6.654   0.819 -2.2157  1.7381  1.2848
11045TIP3   OH254549   3.059   4.312   1.771 -0.3501 -0.4256  0.2955
11045TIP3    H154550   3.083   4.394   1.729 -1.2933 -1.2249 -1.9153
11045TIP3    H254551   2.963   4.309   1.767 -0.3114 -1.8370 -0.1123
11046TIP3   OH254552   1.332   2.050  13.363 -0.0575  0.6618  0.0972
11046TIP3    H154553   1.319   2.049  13.457 -1.5419  1.1928 -0.0869
11046TIP3    H254554   1.362   2.139  13.344 -0.7897  0.8813 -0.0523
11047TIP3   OH254555   6.393   4.950  14.457  0.0317  0.3043  0.2000
11047TIP3    H154556   6.366   4.876  14.511  0.9636  0.0668  0.3613
11047TIP3    H254557   6.488   4.944  14.454  0.1268  1.5471  0.2825
11048TIP3   OH254558   4.297   1.947  13.857  0.2796  0.0422 -0.2244
11048TIP3    H154559   4.222   1.983  13.809 -0.0822 -1.4960 -0.8498
11048TIP3    H254560   4.304   2.003  13.935 -1.0028  0.7080 -0.5530
11049TIP3   OH254561   2.219   5.669  13.456 -0.0447 -0.4859 -0.3234
11049TIP3    H154562   2.270   5.740  13.417  0.6014  0.9817  2.8545
11049TIP3    H254563   2.128   5.692  13.440  0.1490  1.3058  0.9078
11050TIP3   OH254564   4.409   1.392  12.217  0.4923 -0.0157  0.2201
11050TIP3    H154565   4.450   1.315  12.257  0.3941  0.6106  1.6028
11050TIP3    H254566   4.430   1.464  12.277 -0.1909  0.8603 -0.5589
11051TIP3   OH254567   0.478   2.515  12.261 -0.1551 -0.7493  0.4753
11051TIP3    H154568   0.422   2.569  12.317 -0.8180 -1.1059  0.1774
11051TIP3    H254569   0.566   2.529  12.294 -0.4821 -0.5879  1.3054
11052TIP3   OH254570   6.413   2.882  14.960 -0.1613 -0.4626  0.1563
11052TIP3    H154571   6.491   2.902  14.909  0.1113 -1.2238  0.2543
11052TIP3    H254572   6.344   2.936  14.921  0.2045 -0.5030 -0.5664
11053TIP3   OH254573   0.612   2.605   1.971 -0.5926 -0.3153 -0.0831
11053TIP3    H154574   0.570   2.688   1.949  0.7054  0.1614 -0.8958
11053TIP3    H254575   0.639   2.616   2.063 -0.7675  0.0146 -0.0674
11054TIP3   OH254576   3.412   3.966   6.621 -0.1043  0.4262 -0.2289
11054TIP3    H154577   3.430   3.875   6.600  0.4844  1.0073 -2.5482
11054TIP3    H254578   3.415   4.011   6.536 -1.0217  2.4940  0.7699
11055TIP3   OH254579   6.756   5.697  12.408 -0.1859  0.0150  0.1369
11055TIP3    H154580   6.678   5.659  12.368 -0.4604 -1.1281  1.6652
11055TIP3    H254581   6.829   5.645  12.375 -0.3839 -0.7376  0.8346
11056TIP3   OH254582   3.775   6.760   4.526  0.1531  0.0335 -0.0232
11056TIP3    H154583   3.693   6.806   4.544 -0.1036 -0.5805  0.4432
11056TIP3    H254584   3.804   6.793   4.441 -0.3944  0.5137 -0.0283
11057TIP3   OH254585   2.922   0.065   6.413 -0.5526  0.2248  0.1048
11057TIP3    H154586   2.997   0.099   6.462  0.5618 -0.7814 -0.8410
11057TIP3    H254587   2.957  -0.010   6.365 -2.3071 -0.6128  0.0625
11058TIP3   OH254588   6.623   0.939  15.273  0.1068  0.1036 -0.0533
11058TIP3    H154589   6.660   0.889  15.346  0.7604  0.1675 -0.3346
11058TIP3    H254590   6.668   1.024  15.278  0.3643  0.0098 -0.7027
11059TIP3   OH254591   6.650   6.587   4.519 -0.3549  0.0442 -0.3232
11059TIP3    H154592   6.691   6.623   4.598 -0.8214 -0.9342  0.3860
11059TIP3    H254593   6.719   6.534   4.479 -0.4057 -0.2178 -0.0637
11060TIP3   OH254594   1.639   0.436   4.754  0.4118  0.1472  0.5513
11060TIP3    H154595   1.668   0.479   4.674 -1.9009  0.4198 -0.2168
11060TIP3    H254596   1.561   0.387   4.728  0.3198 -0.7584  2.3886
11061TIP3   OH254597   5.056   1.161  11.090 -0.3230  0.2610  0.2052
11061TIP3    H154598   5.104   1.235  11.052  1.5220 -0.9380  0.0730
11061TIP3    H254599   5.061   1.092  11.024 -0.7157 -0.4744  0.9233
11062TIP3   OH254600   2.096   1.168  16.826 -0.3025 -0.4738 -0.1890
11062TIP3    H154601   2.127   1.089  16.782 -0.7427 -0.4118 -0.6229
11062TIP3    H254602   2.007   1.180  16.793 -0.5888 -0.3329  0.6007
11063TIP3   OH254603   1.684   3.724   6.008  0.1856  0.0356 -0.6143
11063TIP3    H154604   1.747   3.667   6.054 -0.4372  0.3952  0.7235
11063TIP3    H254605   1.626   3.663   5.962  0.5153 -0.3541 -0.5179
11064TIP3   OH254606   5.809   3.649  16.798  0.0892  0.2483  0.1188
11064TIP3    H154607   5.869   3.606  16.736  0.9659  2.5079 -0.6873
11064TIP3    H254608   5.728   3.662  16.749  0.9702  2.5627 -0.8677
11065TIP3   OH254609   0.305   0.612  11.394 -0.5675 -0.2236 -0.5126
11065TIP3    H154610   0.383   0.618  11.337 -1.0908 -0.5799 -1.2822
11065TIP3    H254611   0.297   0.699  11.432  1.0425 -0.5594  0.7089
11066TIP3   OH254612   4.036   4.158   0.026 -0.0215 -0.4700 -0.5872
11066TIP3    H154613   4.032   4.253   0.035 -2.3345 -0.6709  1.6143
11066TIP3    H254614   4.013   4.142  -0.065  0.7049  1.0593 -1.0756
11067TIP3   OH254615   5.111   5.186  14.993 -0.2720  0.0420 -0.0424
11067TIP3    H154616   5.177   5.189  14.924  0.1191  2.9053  0.3298
11067TIP3    H254617   5.028   5.188  14.947 -0.1110 -1.5241 -0.4600
11068TIP3   OH254618   4.113   3.169  12.031  0.2438  0.5175 -0.2855
11068TIP3    H154619   4.038   3.146  11.976 -0.2085  0.0572  0.5043
11068TIP3    H254620   4.189   3.164  11.972  0.2054 -3.0810 -0.2152
11069TIP3   OH254621   0.129   6.565  11.206 -0.3804 -0.1055 -0.0029
11069TIP3    H154622   0.073   6.520  11.142 -3.8248 -0.0780  2.6928
11069TIP3    H254623   0.117   6.658  11.188  3.5981  0.0851 -3.0146
11070TIP3   OH254624   5.180   0.565   3.718  0.3611 -0.1935 -0.3038
11070TIP3    H154625   5.188   0.490   3.776  0.7408 -1.0328 -1.4056
11070TIP3    H254626   5.251   0.555   3.655  1.8764  2.3110  0.8306
11071TIP3   OH254627   2.429   6.644   3.829 -0.0679  0.6642 -0.5476
11071TIP3    H154628   2.458   6.735   3.820 -0.7819  0.9739  0.1130
11071TIP3    H254629   2.333   6.650   3.836 -0.0964 -0.1056 -0.1985
11072TIP3   OH254630   5.268   4.591   4.262 -0.1899 -0.2410  0.2871
11072TIP3    H154631   5.331   4.659   4.237  0.3576 -0.0732  1.9675
11072TIP3    H254632   5.198   4.639   4.306  0.5798 -0.7911  2.1947
11073TIP3   OH254633   5.518   0.386   2.664  0.4400 -0.2755 -0.0035
11073TIP3    H154634   5.530   0.417   2.754  0.1142 -0.5534  0.1403
11073TIP3    H254635   5.522   0.466   2.611  2.0360 -0.2515  0.0988
11074TIP3   OH254636   2.268   1.537   0.823 -0.4793  0.0636  0.1451
11074TIP3    H154637   2.236   1.604   0.883 -0.0562  0.2509  0.1691
11074TIP3    H254638   2.270   1.456   0.875 -1.7463 -0.1542 -0.1031
11075TIP3   OH254639   5.063   1.840  13.774  0.9321  0.9555  0.0306
11075TIP3    H154640   5.115   1.854  13.695 -2.6355 -0.7144 -2.9051
11075TIP3    H254641   5.044   1.927  13.807  2.6451  1.6908 -0.8418
11076TIP3   OH254642   2.199   2.525  14.003  0.4680 -0.3458  0.2140
11076TIP3    H154643   2.223   2.605  13.956  0.3874  0.0430  0.8207
11076TIP3    H254644   2.103   2.525  14.004  0.4737 -0.0745  0.8421
11077TIP3   OH254645   5.771   5.332  12.527 -0.1372 -0.4647 -0.0901
11077TIP3    H154646   5.683   5.311  12.559 -0.6053 -0.7396 -1.5015
11077TIP3    H254647   5.803   5.250  12.491 -1.4921  0.7020 -4.5457
11078TIP3   OH254648   1.387   2.560   4.502 -0.2917 -0.4864  0.1286
11078TIP3    H154649   1.447   2.578   4.430 -1.5955  0.4467 -0.7977
11078TIP3    H254650   1.301   2.554   4.460 -1.5267  2.7953  1.8270
11079TIP3   OH254651   4.934   4.893   3.843 -0.3340 -0.3701 -0.0430
11079TIP3    H154652   4.858   4.905   3.901  0.3387 -0.2744  0.8311
11079TIP3    H254653   4.946   4.798   3.839  0.6875 -0.3360  1.4197
11080TIP3   OH254654   0.088   5.661  12.076 -0.0369 -0.2318  1.2264
11080TIP3    H154655   0.165   5.619  12.112 -0.7109 -1.8677  0.8401
11080TIP3    H254656   0.095   5.649  11.981 -1.1305 -1.0773  1.2386
11081TIP3   OH254657   3.365   0.096   0.938  0.1177  0.0317 -0.4084
11081TIP3    H154658   3.389   0.018   0.886 -1.0742 -0.1735 -0.6703
11081TIP3    H254659   3.309   0.062   1.007  0.8285  0.4636  0.3937
11082TIP3   OH254660   4.185   4.182   3.114 -0.4643  0.2402 -0.5541
11082TIP3    H154661   4.255   4.169   3.049  0.5638  1.9401  0.1236
11082TIP3    H254662   4.135   4.256   3.079 -0.6106  0.4063  0.0059
11083TIP3   OH254663   0.352   1.478  16.676 -0.2508 -0.6251  0.4683
11083TIP3    H154664   0.322   1.513  16.760 -0.5069 -1.8245  0.8900
11083TIP3    H254665   0.386   1.391  16.696  1.0859 -0.3381 -0.4403
11084TIP3   OH254666   1.335   0.844   5.750  0.0295  0.0469 -0.4907
11084TIP3    H154667   1.315   0.782   5.820 -2.7192  1.5382  0.2084
11084TIP3    H254668   1.430   0.857   5.755  0.0764 -0.8274  2.1350
11085TIP3   OH254669   0.217   0.872   5.750 -0.8823 -0.0562  0.3234
11085TIP3    H154670   0.190   0.833   5.667  0.9623 -0.6919 -0.0397
11085TIP3    H254671   0.253   0.957   5.726  1.1804 -0.8976  0.1624
11086TIP3   OH254672   3.604   6.688   0.087  0.0037 -0.0122  0.7560
11086TIP3    H154673   3.632   6.606   0.048  0.3842  0.5784 -0.2345
11086TIP3    H254674   3.680   6.745   0.080 -0.3090  0.4796  1.2905
11087TIP3   OH254675   0.278   1.835   4.433  0.3013  0.5169  0.3267
11087TIP3    H154676   0.210   1.793   4.381  0.0134 -0.6747  1.6079
11087TIP3    H254677   0.236   1.913   4.469  0.1326  0.6862 -0.2329
11088TIP3   OH254678   6.668   6.329   4.856 -0.7966  0.4695 -0.1876
11088TIP3    H154679   6.689   6.292   4.770 -0.0146 -0.0525  0.2134
11088TIP3    H254680   6.576   6.309   4.869 -1.8681  3.3708 -2.2943
11089TIP3   OH254681   4.469   1.023  13.699  0.1492  0.5514  0.0797
11089TIP3    H154682   4.449   1.052  13.610  0.7036 -1.1344 -0.6284
11089TIP3    H254683   4.540   1.081  13.727 -0.5895  1.6509 -0.2241
11090TIP3   OH254684   2.641   0.692  11.573  0.6896  0.0125 -0.5803
11090TIP3    H154685   2.610   0.759  11.634  1.1279 -0.8190  0.5953
11090TIP3    H254686   2.688   0.741  11.505  1.6937  0.8727  0.6746
11091TIP3   OH254687   3.752   4.704   2.529 -0.2005 -0.2943 -0.5335
11091TIP3    H154688   3.765   4.618   2.569  1.6307  1.1588  2.3146
11091TIP3    H254689   3.678   4.742   2.576  1.0822  0.9090  0.5703
11092TIP3   OH254690   2.009   0.484  11.140 -0.1382  0.2628  0.4131
11092TIP3    H154691   2.097   0.512  11.166  0.3538 -0.3829 -0.5082
11092TIP3    H254692   1.979   0.553  11.081 -1.2900  1.7745  2.5917
11093TIP3   OH254693   5.718   4.751   3.987  0.2548 -0.0582 -0.5235
11093TIP3    H154694   5.752   4.793   4.066 -0.8811 -0.0790  0.0007
11093TIP3    H254695   5.714   4.822   3.922 -0.7020  0.4482  0.0560
11094TIP3   OH254696   1.950   5.695   5.178  0.4177  0.0783  0.2939
11094TIP3    H154697   1.941   5.675   5.085 -1.3594 -0.3919  0.5209
11094TIP3    H254698   1.898   5.627   5.222  1.7081 -0.0570  1.6767
11095TIP3   OH254699   4.572   4.803  13.180  0.1752  0.0394  0.3308
11095TIP3    H154700   4.564   4.887  13.136 -1.3845  0.1901  0.8296
11095TIP3    H254701   4.595   4.741  13.111  0.4340  0.7153 -0.1974
11096TIP3   OH254702   2.421   2.090  13.688  0.0492  0.4157  0.1328
11096TIP3    H154703   2.343   2.125  13.731 -1.0811 -0.0143 -1.4869
11096TIP3    H254704   2.487   2.159  13.699 -1.0901  1.5689  0.0185
11097TIP3   OH254705   1.021   0.363   6.307 -0.5362  0.3523  0.0663
11097TIP3    H154706   0.936   0.319   6.305 -0.4871  0.2769 -0.8189
11097TIP3    H254707   1.027   0.401   6.395 -0.9405 -0.6925  0.5626
11098TIP3   OH254708   4.333   2.656   9.203  0.6150 -0.2408 -0.1875
11098TIP3    H154709   4.345   2.577   9.256  0.4739  0.3228  0.7154
11098TIP3    H254710   4.414   2.705   9.215 -0.2214  0.8836  1.2691
11099TIP3   OH254711   6.741   0.614   5.316 -0.2108  0.2700 -0.5022
11099TIP3    H154712   6.806   0.558   5.273 -0.9647 -1.5402  0.6300
11099TIP3    H254713   6.682   0.553   5.361 -3.1542  1.7817 -2.0299
11100TIP3   OH254714   2.160   4.078  10.805 -0.0241 -0.4699 -0.2598
11100TIP3    H154715   2.206   4.055  10.725  0.0711 -1.5690  0.0951
11100TIP3    H254716   2.079   4.120  10.775 -0.5599 -1.9454 -0.9730
11101TIP3   OH254717   2.707   2.727  16.460 -0.2886 -0.1880 -0.5778
11101TIP3    H154718   2.695   2.678  16.378 -1.8156 -0.3371 -0.3086
11101TIP3    H254719   2.628   2.780  16.467  0.6610  1.1921 -0.0905
11102TIP3   OH254720   1.944   0.872   0.721 -0.3831 -0.3287 -0.6307
11102TIP3    H154721   1.904   0.925   0.790  1.1030  0.2445 -0.1440
11102TIP3    H254722   1.916   0.914   0.640  2.4000  2.7143 -0.2656
11103TIP3   OH254723   3.304   2.964  13.177 -0.3882  0.2847 -0.5201
11103TIP3    H154724   3.250   2.940  13.253  1.6484  0.9208  1.2316
11103TIP3    H254725   3.291   3.058  13.168 -0.0263  0.3431 -0.4433
11104TIP3   OH254726   3.755   3.924  17.004 -0.0652  0.1000 -0.0769
11104TIP3    H154727   3.678   3.911  16.949  0.5120  0.1086 -0.9005
11104TIP3    H254728   3.800   3.999  16.966 -0.5239  1.1933  1.4205
11105TIP3   OH254729   0.008   4.555   1.908  0.1318  0.3772 -0.1898
11105TIP3    H154730   0.032   4.634   1.956 -0.5901 -0.2477  1.2623
11105TIP3    H254731  -0.087   4.559   1.901  0.1634  0.0334 -0.8157
11106TIP3   OH254732   2.169   5.188  13.264 -0.5325 -0.5808 -0.3861
11106TIP3    H154733   2.113   5.115  13.293 -0.3740 -0.8498 -0.7426
11106TIP3    H254734   2.226   5.149  13.197 -0.0194 -0.2721 -0.1296
11107TIP3   OH254735   0.820   0.444  11.284  0.0431 -0.3894  0.3657
11107TIP3    H154736   0.822   0.457  11.190 -0.0126  3.1145  0.7279
11107TIP3    H254737   0.910   0.459  11.313 -0.2270  0.0778  0.9912
11108TIP3   OH254738   2.725   5.488  11.169 -0.1755 -0.3592 -0.0418
11108TIP3    H154739   2.654   5.520  11.224 -1.3328 -2.2804 -0.3350
11108TIP3    H254740   2.786   5.446  11.229  0.9328  1.5287  0.2441
11109TIP3   OH254741   0.689   3.294   2.336 -0.5420 -0.6146 -0.0450
11109TIP3    H154742   0.635   3.280   2.258 -0.0978 -0.4967 -0.3745
11109TIP3    H254743   0.725   3.382   2.325 -1.1184 -0.2698  0.6862
11110TIP3   OH254744   1.679   0.375   3.382  0.7776  0.1358 -0.5798
11110TIP3    H154745   1.746   0.323   3.426  0.0514 -1.0781 -0.8715
11110TIP3    H254746   1.647   0.435   3.450  1.1963 -0.2120 -0.0713
11111TIP3   OH254747   3.855   1.409  14.057 -0.4243  0.5293 -0.0117
11111TIP3    H154748   3.924   1.344  14.060  1.2201  2.1860 -0.0630
11111TIP3    H254749   3.776   1.359  14.038  1.1051 -1.2097 -2.4043
11112TIP3   OH254750   5.037   6.397  12.278 -0.2929  0.3921 -0.0360
11112TIP3    H154751   4.969   6.462  12.299  0.0015  0.9865 -0.8953
11112TIP3    H254752   5.066   6.365  12.363 -3.4134 -1.7502  0.3774
11113TIP3   OH254753   0.136   4.317  16.153 -0.4008 -0.2420  0.2104
11113TIP3    H154754   0.073   4.383  16.180  0.6531  0.2490  1.6056
11113TIP3    H254755   0.085   4.254  16.102 -1.7074  0.8792  0.0755
11114TIP3   OH254756   5.736   4.229   5.830 -0.2467  0.1901  0.1418
11114TIP3    H154757   5.797   4.237   5.904 -0.0819  1.9869 -0.1347
11114TIP3    H254758   5.788   4.189   5.760  0.3030  0.6665  0.2684
11115TIP3   OH254759   5.338   2.392  15.229 -0.4547  0.3077 -0.0004
11115TIP3    H154760   5.314   2.376  15.138  0.9571 -2.0826 -0.0370
11115TIP3    H254761   5.427   2.428  15.225 -0.6061  0.7522  0.4393
11116TIP3   OH254762   4.529   2.676  16.710  0.1925 -0.0749 -0.3739
11116TIP3    H154763   4.439   2.687  16.740  0.1462 -1.9257  0.2856
11116TIP3    H254764   4.543   2.582  16.709  1.5681  0.0951 -2.2044
11117TIP3   OH254765   4.474   0.709  11.372 -0.1184 -0.1702  0.1792
11117TIP3    H154766   4.439   0.798  11.372  0.7464  0.2019 -1.3331
11117TIP3    H254767   4.569   0.720  11.362 -0.0788 -1.2619 -1.0152
11118TIP3   OH254768   5.696   3.753   1.495 -0.1190 -0.4215 -0.2745
11118TIP3    H154769   5.730   3.668   1.522  2.8780  1.2090  1.6656
11118TIP3    H254770   5.686   3.802   1.577  0.1356  1.7141 -1.4334
11119TIP3   OH254771   0.190   4.091  13.534 -0.3386  0.4540  0.3948
11119TIP3    H154772   0.244   4.164  13.564  0.1313  1.1629 -1.9793
11119TIP3    H254773   0.203   4.089  13.439 -1.2825 -1.9787  0.2519
11120TIP3   OH254774   4.353   4.978   3.106  0.1431 -0.5766 -0.1570
11120TIP3    H154775   4.422   4.933   3.058  0.8016  2.1131 -1.9166
11120TIP3    H254776   4.397   5.053   3.147 -1.6538  1.1528 -1.2353
11121TIP3   OH254777   3.429   3.617   4.078  1.2167  0.5576  0.8000
11121TIP3    H154778   3.475   3.561   4.141  1.0525 -0.2234  0.2474
11121TIP3    H254779   3.467   3.594   3.994 -1.5330 -1.6582  0.0237
11122TIP3   OH254780   0.186   5.434  11.159 -0.5202 -0.1472 -0.0985
11122TIP3    H154781   0.094   5.415  11.140 -1.4276  0.9008  2.6848
11122TIP3    H254782   0.203   5.387  11.241  1.4087 -0.1874 -0.4824
11123TIP3   OH254783   4.175   3.924  16.534 -0.1116  0.2137  0.2592
11123TIP3    H154784   4.163   4.016  16.510 -0.3078 -0.3074 -1.8525
11123TIP3    H254785   4.100   3.904  16.591 -1.4798  0.7654 -1.2549
11124TIP3   OH254786   2.193   4.958   3.271  0.5897  0.3710  0.0324
11124TIP3    H154787   2.183   5.009   3.191  0.2429  0.4899  0.1491
11124TIP3    H254788   2.154   4.873   3.250  0.6543  0.3441  0.0205
11125TIP3   OH254789   2.308   5.760  12.857 -0.0722 -0.0416 -0.2791
11125TIP3    H154790   2.236   5.742  12.917 -1.2085 -0.3799 -1.6702
11125TIP3    H254791   2.375   5.803  12.910 -1.5586  0.8671  0.9255
11126TIP3   OH254792   0.421   4.236   0.318  0.1506  0.1139 -0.1801
11126TIP3    H154793   0.354   4.170   0.298 -1.7755  1.0427  2.6366
11126TIP3    H254794   0.409   4.303   0.251 -0.8383 -0.3501 -0.4863
11127TIP3   OH254795   3.563   4.737  15.939 -0.4977 -0.0803  0.1190
11127TIP3    H154796   3.544   4.675  15.868  1.9054 -2.7640  1.5940
11127TIP3    H254797   3.653   4.764  15.923 -0.8509  1.4871  0.6773
11128TIP3   OH254798   5.818   3.641  11.828  0.1905 -0.5943 -0.3936
11128TIP3    H154799   5.865   3.723  11.845  0.5362 -1.2195  2.0224
11128TIP3    H254800   5.737   3.668  11.785 -0.1480  1.1546  1.2153
11129TIP3   OH254801   4.402   4.806  11.326  0.2774 -0.0643 -0.0635
11129TIP3    H154802   4.448   4.835  11.405  1.2195 -0.6151 -0.3931
11129TIP3    H254803   4.312   4.833  11.340 -0.2275 -2.5429  2.4921
11130TIP3   OH254804   2.941   0.534   0.486 -0.0338 -1.0593  0.2483
11130TIP3    H154805   3.031   0.519   0.514  0.3696 -1.8957 -1.3730
11130TIP3    H254806   2.888   0.499   0.557  0.9015 -0.7294  1.1392
11131TIP3   OH254807   3.359   5.428   4.981 -0.6737  0.6117  0.2255
11131TIP3    H154808   3.392   5.516   4.967 -2.2624  1.3147  0.6512
11131TIP3    H254809   3.399   5.400   5.064  0.4271  0.6042 -0.2909
11132TIP3   OH254810   1.883   4.965   5.327  0.2494 -0.2311 -0.2637
11132TIP3    H154811   1.802   4.927   5.293  1.0816 -2.2527 -0.1208
11132TIP3    H254812   1.953   4.920   5.280  1.3629 -0.9742  1.9228
11133TIP3   OH254813   2.883   0.058  15.086  0.1637 -0.1934  0.3735
11133TIP3    H154814   2.927  -0.022  15.058  0.8784 -0.1576  1.3437
11133TIP3    H254815   2.813   0.028  15.144  1.1090 -0.0942  1.6160
11134TIP3   OH254816   4.127   4.867  12.069 -0.0613 -0.3494 -0.2386
11134TIP3    H154817   4.088   4.911  12.144  0.8995  1.1182 -0.5509
11134TIP3    H254818   4.058   4.870  12.002  0.7488  3.0999 -1.1124
11135TIP3   OH254819   2.694   5.377   0.008 -0.0896  0.1783 -0.3715
11135TIP3    H154820   2.751   5.420  -0.055 -0.4449  1.7555  0.3325
11135TIP3    H254821   2.628   5.443   0.030 -1.7468 -1.3333 -0.5862
11136TIP3   OH254822   0.473   1.866   0.538 -0.2351 -0.0801 -0.1101
11136TIP3    H154823   0.378   1.860   0.527 -0.0858 -1.0610 -1.0870
11136TIP3    H254824   0.505   1.778   0.516  0.8257 -0.0370  1.1162
11137TIP3   OH254825   5.113   2.759   4.667  0.3076  0.0599  0.1924
11137TIP3    H154826   5.181   2.827   4.663  1.2743 -0.9282 -0.9702
11137TIP3    H254827   5.154   2.688   4.716 -0.3420 -0.0905  0.5278
11138TIP3   OH254828   1.204   5.044   0.898  0.2575  0.4692 -0.2273
11138TIP3    H154829   1.182   5.038   0.991 -1.1079  0.0706 -0.5445
11138TIP3    H254830   1.238   4.957   0.876 -0.0267  0.3559 -0.2311
11139TIP3   OH254831   0.958   4.807  15.099 -0.0495  0.5151 -0.3058
11139TIP3    H154832   0.870   4.841  15.084 -0.4318  0.2805  1.3003
11139TIP3    H254833   0.945   4.723  15.143  0.9612 -0.1195 -1.1429
11140TIP3   OH254834   2.730   5.544  12.704  0.1047 -0.2719  0.4238
11140TIP3    H154835   2.707   5.634  12.681  2.2325  0.3709  0.6244
11140TIP3    H254836   2.770   5.508  12.625  0.3830 -0.6187  0.7191
11141TIP3   OH254837   0.393   1.750   2.399 -0.9590 -0.1826  0.5087
11141TIP3    H154838   0.391   1.827   2.455 -0.7842 -0.0395  0.3184
11141TIP3    H254839   0.466   1.698   2.432  0.3446  0.7632 -0.7106
11142TIP3   OH254840   3.746   6.484  17.001 -0.1602 -0.1925 -0.1117
11142TIP3    H154841   3.839   6.507  16.997 -0.2251  0.3138  0.9410
11142TIP3    H254842   3.723   6.461  16.911  0.6007  1.1977 -0.6966
11143TIP3   OH254843   4.609   3.557   3.595  0.8492  0.3521  0.7005
11143TIP3    H154844   4.682   3.501   3.568  0.0622 -1.5755  2.3579
11143TIP3    H254845   4.595   3.536   3.687 -0.9468  1.6703  0.7738
11144TIP3   OH254846   1.768   3.963  16.430  0.2761  0.2828  0.0588
11144TIP3    H154847   1.762   3.874  16.395 -0.1790  0.3355  0.0046
11144TIP3    H254848   1.708   4.015  16.377  1.3974  0.8759 -0.6855
11145TIP3   OH254849   4.634   3.136   3.813 -0.4512 -0.2664  0.1746
11145TIP3    H154850   4.618   3.183   3.731 -2.1138  1.2448  1.2739
11145TIP3    H254851   4.654   3.046   3.786  1.1621  0.6535 -1.9477
11146TIP3   OH254852   5.568   2.231   1.143  0.1702  0.9586 -0.3064
11146TIP3    H154853   5.622   2.221   1.064  1.5062  2.3950  0.3805
11146TIP3    H254854   5.601   2.163   1.203  0.4897  1.1384 -0.2772
11147TIP3   OH254855   2.079   6.272   4.623 -0.3776 -0.0982 -0.9721
11147TIP3    H154856   1.999   6.228   4.596 -0.6678 -0.8806  0.9943
11147TIP3    H254857   2.060   6.305   4.711  1.4348 -0.2716 -0.4730
11148TIP3   OH254858   3.754   6.130  11.889 -0.2522  0.0287 -0.7080
11148TIP3    H154859   3.814   6.182  11.836 -0.1530  1.8626  1.0947
11148TIP3    H254860   3.680   6.112  11.831  0.0785  1.5201 -1.6333
11149TIP3   OH254861   6.086   6.730   0.473  0.2054  0.2830  0.0926
11149TIP3    H154862   6.033   6.750   0.550  0.2483 -2.7118  1.0236
11149TIP3    H254863   6.172   6.707   0.509  0.4419 -0.4422 -0.8965
11150TIP3   OH254864   3.742   1.507   5.217  0.2853  0.5501 -0.0346
11150TIP3    H154865   3.703   1.594   5.224  0.0671  0.6508 -1.8812
11150TIP3    H254866   3.835   1.523   5.207  0.0811  0.7832 -2.3571
11151TIP3   OH254867   4.460   2.805   1.283  0.0452 -0.1733  0.5245
11151TIP3    H154868   4.515   2.857   1.224  0.0537 -1.1300 -0.3338
11151TIP3    H254869   4.494   2.825   1.371  2.5267 -1.5199 -0.0139
11152TIP3   OH254870   3.006   6.071   3.246 -0.3888 -0.2390 -0.0900
11152TIP3    H154871   3.039   6.141   3.190  0.8978 -1.3738 -0.8104
11152TIP3    H254872   2.922   6.104   3.279  0.2387  1.6799 -0.2774
11153TIP3   OH254873   4.920   4.746   3.118  0.5216 -0.0943  1.0171
11153TIP3    H154874   4.858   4.817   3.108  0.0266 -0.7405 -1.1773
11153TIP3    H254875   4.869   4.674   3.156 -0.4120 -0.8874 -1.5079
11154TIP3   OH254876   1.157   3.106   3.457 -0.3290  0.1800  0.4647
11154TIP3    H154877   1.159   3.141   3.368 -1.8053  1.8383  1.0213
11154TIP3    H254878   1.230   3.044   3.460  0.6198  1.1101 -1.4714
11155TIP3   OH254879   3.695   4.950   2.347 -0.7222 -0.4204  0.4580
11155TIP3    H154880   3.686   4.860   2.377 -1.3345  0.2247  2.3458
11155TIP3    H254881   3.606   4.984   2.345 -0.3338  0.9005  2.4035
11156TIP3   OH254882   6.434   1.566  13.769  0.6890  0.4182 -0.1566
11156TIP3    H154883   6.486   1.519  13.703  0.1523 -1.0498  0.4319
11156TIP3    H254884   6.356   1.595  13.721  0.2672 -0.7049 -0.1863
11157TIP3   OH254885   2.184   0.501   5.236  0.0374 -0.0686 -0.0663
11157TIP3    H154886   2.177   0.485   5.330  0.1562 -1.9557 -0.3465
11157TIP3    H254887   2.104   0.465   5.199 -0.4112  1.4155 -0.6490
11158TIP3   OH254888   3.251   6.009  14.138  0.5891 -0.0742  0.0087
11158TIP3    H154889   3.308   5.933  14.120  0.3792 -0.2618  0.1361
11158TIP3    H254890   3.295   6.054  14.210 -0.0169 -0.8639  0.9064
11159TIP3   OH254891   4.514   0.192   1.333  0.0377 -0.7766  0.0585
11159TIP3    H154892   4.516   0.098   1.350 -0.9415 -0.9799 -0.8705
11159TIP3    H254893   4.491   0.231   1.417 -1.6766 -1.5386 -0.0199
11160TIP3   OH254894   2.355   5.570  12.656 -0.3997  0.3684  0.3260
11160TIP3    H154895   2.352   5.603  12.567 -0.8304  0.1598  0.2608
11160TIP3    H254896   2.355   5.648  12.711  2.0014  0.5870  0.1238
11161TIP3   OH254897   2.984   5.056   4.839  1.0320 -0.8075  0.0939
11161TIP3    H154898   3.020   5.070   4.927  1.7004  2.7713 -0.5621
11161TIP3    H254899   3.005   5.137   4.792 -1.2674 -1.6649 -2.7008
11162TIP3   OH254900   5.653   2.932   6.339 -0.2854 -0.0411  0.7199
11162TIP3    H154901   5.729   2.904   6.288 -0.0163 -1.3544  1.7977
11162TIP3    H254902   5.628   2.855   6.389 -0.9551  1.0101  2.0629
11163TIP3   OH254903   1.991   2.609   3.418  0.0815  0.2042 -1.0474
11163TIP3    H154904   2.011   2.690   3.465 -0.8607  0.5114 -1.1379
11163TIP3    H254905   1.908   2.580   3.456 -0.0372 -0.2415 -1.6279
11164TIP3   OH254906   6.204   1.804  11.981  0.0282 -0.4106 -0.5063
11164TIP3    H154907   6.186   1.719  11.941  3.6296 -0.0773 -3.2997
11164TIP3    H254908   6.139   1.864  11.943 -0.7342 -1.3242 -0.6793
11165TIP3   OH254909   5.779   0.053  10.859  0.2997  0.1754  0.0949
11165TIP3    H154910   5.765  -0.040  10.843 -1.8058  0.0357  2.1983
11165TIP3    H254911   5.853   0.057  10.919  2.5644  0.1730 -2.5022
11166TIP3   OH254912   4.661   5.560  15.695  0.5974 -0.1105 -0.1915
11166TIP3    H154913   4.747   5.560  15.653  0.0232  0.7015 -1.4496
11166TIP3    H254914   4.671   5.616  15.772  1.1295  0.2086 -0.4886
11167TIP3   OH254915   2.661   6.358  13.356  0.3167 -0.1622 -0.1737
11167TIP3    H154916   2.710   6.414  13.295 -0.2825 -0.0271 -0.5405
11167TIP3    H254917   2.728   6.320  13.413  1.0821 -1.5556 -1.9158
11168TIP3   OH254918   6.419   0.253   4.893 -0.8151  0.5348  0.0947
11168TIP3    H154919   6.379   0.198   4.961  1.4507 -1.1663  0.1518
11168TIP3    H254920   6.466   0.320   4.942  2.6765 -1.9607  0.5261
11169TIP3   OH254921   3.599   1.887  12.362 -0.3037  0.0797 -0.3286
11169TIP3    H154922   3.528   1.926  12.311 -0.5659 -0.5736 -0.4779
11169TIP3    H254923   3.606   1.797  12.329 -1.3830 -0.8080  1.6899
11170TIP3   OH254924   0.340   2.373  13.508 -0.0249  0.1948  0.1075
11170TIP3    H154925   0.384   2.416  13.582  0.7132 -1.1956  0.5211
11170TIP3    H254926   0.308   2.445  13.454  0.7964  1.2545  0.9783
11171TIP3   OH254927   5.061   3.038  16.753 -0.2017 -0.5532  0.7534
11171TIP3    H154928   5.046   2.988  16.833 -1.0842 -1.1909  0.2031
11171TIP3    H254929   5.142   3.003  16.718 -0.5571 -1.2619  0.6317
11172TIP3   OH254930   3.701   4.332   1.814  0.1543 -0.1786  0.1372
11172TIP3    H154931   3.654   4.406   1.774  0.9899  1.3032  1.7443
11172TIP3    H254932   3.793   4.349   1.794  0.4113 -0.4011  1.0848
11173TIP3   OH254933   4.916   2.938   2.928 -0.1913  0.4658 -0.1443
11173TIP3    H154934   4.918   2.970   3.019 -0.3004 -0.2738  0.1294
11173TIP3    H254935   4.822   2.926   2.909 -0.2326  1.5866 -0.7159
11174TIP3   OH254936   2.807   3.840   3.315 -0.0598  0.5465 -0.0646
11174TIP3    H154937   2.774   3.873   3.398  2.2662  1.1582  0.6885
11174TIP3    H254938   2.902   3.837   3.326  0.1532 -2.6657 -1.4752
11175TIP3   OH254939   3.645   5.015   1.280 -0.2269  0.0980  0.1293
11175TIP3    H154940   3.668   5.044   1.192 -1.9545  0.6087 -0.1911
11175TIP3    H254941   3.589   4.939   1.267  0.7306 -0.7596  0.8580
11176TIP3   OH254942   0.246   5.477  10.489  0.1839  0.0724  0.2422
11176TIP3    H154943   0.339   5.459  10.505 -0.0419  0.1794  1.8592
11176TIP3    H254944   0.245   5.561  10.445  0.8112  0.8299  1.6227
11177TIP3   OH254945   3.921   2.991  12.726 -0.0602  0.1180  0.0260
11177TIP3    H154946   3.896   3.032  12.809 -1.6939 -1.2001  0.2543
11177TIP3    H254947   3.954   3.063  12.672 -0.8855  1.3606  1.1198
11178TIP3   OH254948   0.870   5.905  14.836  0.3388 -0.7101  0.3342
11178TIP3    H154949   0.858   5.998  14.856  1.1463 -0.1389 -1.5906
11178TIP3    H254950   0.822   5.860  14.905 -1.5964  1.1673  0.3384
11179TIP3   OH254951   5.107   0.291  13.445 -0.9660 -0.2715  0.0000
11179TIP3    H154952   5.129   0.219  13.506  0.7949  0.2037 -0.0060
11179TIP3    H254953   5.162   0.274  13.368 -0.7286  0.9262 -0.1086
11180TIP3   OH254954   4.303   4.596   4.774  0.5192 -0.2260  0.1241
11180TIP3    H154955   4.211   4.593   4.802  0.5114 -0.6745  0.0580
11180TIP3    H254956   4.352   4.608   4.855  0.5100 -1.7531  0.3906
11181TIP3   OH254957   3.111   0.914  13.708 -0.2983  0.4332 -0.4080
11181TIP3    H154958   3.133   0.823  13.726 -0.5468  0.1052 -1.6524
11181TIP3    H254959   3.063   0.944  13.786  2.8103  0.6133  1.5788
11182TIP3   OH254960   2.855   2.891  14.652  0.2438  0.4796  0.2165
11182TIP3    H154961   2.908   2.856  14.723  0.4108  1.4190  0.5573
11182TIP3    H254962   2.822   2.813  14.607  2.6101 -0.1322 -0.5615
11183TIP3   OH254963   2.682   4.670  12.156  0.5069  0.1248 -0.7026
11183TIP3    H154964   2.750   4.698  12.218 -1.4059  0.8215  1.2298
11183TIP3    H254965   2.668   4.747  12.100 -0.5899  1.0469  0.7465
11184TIP3   OH254966   6.486   0.140  11.991  0.0836  0.4937 -0.1048
11184TIP3    H154967   6.556   0.089  11.951 -0.7082 -2.0281  1.4991
11184TIP3    H254968   6.405   0.103  11.956 -0.5306  0.0373  1.6876
11185TIP3   OH254969   3.407   0.808  15.411 -0.2753 -0.5851  0.1887
11185TIP3    H154970   3.417   0.786  15.504  2.0084  2.4774  0.8419
11185TIP3    H254971   3.462   0.885  15.399 -0.3752 -0.9412 -3.8034
11186TIP3   OH254972   0.354   0.028  15.134  0.3162  0.6445 -0.8431
11186TIP3    H154973   0.340  -0.058  15.173 -3.2823  0.8772 -1.2244
11186TIP3    H254974   0.346   0.089  15.207  0.2385  0.7643 -0.9505
11187TIP3   OH254975   0.620   2.180  12.658  0.0620 -0.0929  0.0779
11187TIP3    H154976   0.595   2.254  12.603 -2.7745 -0.2571  0.9826
11187TIP3    H254977   0.612   2.212  12.747 -1.3034 -1.4622  0.4889
11188TIP3   OH254978   0.528   2.636   2.256  0.2921  0.1033 -0.8897
11188TIP3    H154979   0.514   2.675   2.342  0.1589 -2.4670  0.3416
11188TIP3    H254980   0.460   2.569   2.248  1.2880 -0.8075 -2.3042
11189TIP3   OH254981   4.322   1.147  15.114 -0.4250  0.2204  0.0700
11189TIP3    H154982   4.411   1.164  15.080 -0.3251 -1.8895 -0.8980
11189TIP3    H254983   4.278   1.231  15.107  0.5871  0.6439 -2.3948
11190TIP3   OH254984   4.236   0.836   0.563 -0.0241 -0.1911 -0.5449
11190TIP3    H154985   4.317   0.879   0.591  0.3128 -0.1465 -1.5699
11190TIP3    H254986   4.169   0.904   0.571 -1.0256 -1.3135  4.7392
11191TIP3   OH254987   5.690   4.420   6.317 -0.1800  0.0469  0.5763
11191TIP3    H154988   5.606   4.466   6.322 -1.1342 -1.5218 -0.2574
11191TIP3    H254989   5.678   4.343   6.373  1.3324  0.6514  1.8301
11192TIP3   OH254990   6.094   4.837  14.461 -0.0031 -1.0823  0.2184
11192TIP3    H154991   6.054   4.752  14.480 -1.2231 -0.8558 -1.2110
11192TIP3    H254992   6.106   4.877  14.547 -1.5859 -1.7347  0.7867
11193TIP3   OH254993   5.894   5.301  14.236 -0.3553  0.0521  0.3419
11193TIP3    H154994   5.978   5.316  14.192 -0.6353 -0.7533 -0.4914
11193TIP3    H254995   5.837   5.266  14.168 -1.3119  0.3735  0.9569
11194TIP3   OH254996   5.976   6.483  15.977 -0.2740 -0.2493  0.8399
11194TIP3    H154997   5.972   6.502  15.883 -0.5323 -1.2789  0.6221
11194TIP3    H254998   5.894   6.438  15.995 -0.4085  0.3086  1.6595
11195TIP3   OH254999   5.751   0.326  11.145  0.6950 -0.4232  0.6748
11195TIP3    H155000   5.723   0.234  11.149 -1.9966  0.3146  0.9169
11195TIP3    H255001   5.670   0.375  11.134  2.1921  1.8759 -1.0756
11196TIP3   OH255002   2.041   3.107  16.591  0.4248  0.0521 -0.1537
11196TIP3    H155003   1.962   3.068  16.629 -1.0432  1.4144 -1.6617
11196TIP3    H255004   2.052   3.190  16.638 -0.2725  0.8224 -1.2898
11197TIP3   OH255005   3.317   2.949   6.193 -0.2125 -0.1683  0.3105
11197TIP3    H155006   3.224   2.964   6.214  0.1232  2.6148  0.2383
11197TIP3    H255007   3.364   2.986   6.268  0.8487  0.2839 -0.5593
11198TIP3   OH255008   5.372   4.953  14.772 -0.4081 -0.3085  0.4629
11198TIP3    H155009   5.351   4.894  14.699 -0.6016 -0.3706  0.5675
11198TIP3    H255010   5.358   5.041  14.736 -0.6881 -0.3445  0.4809
11199TIP3   OH255011   2.765   5.962  16.433  0.0336  0.0526 -0.3850
11199TIP3    H155012   2.753   5.935  16.524  0.0887  1.1493 -0.0353
11199TIP3    H255013   2.851   5.927  16.409 -0.3134 -0.8967 -0.2712
11200TIP3   OH255014   1.370   0.090  16.268 -0.3448 -0.3048  0.0262
11200TIP3    H155015   1.291   0.041  16.245 -0.3195 -0.5113  0.3724
11200TIP3    H255016   1.416   0.035  16.332  1.1681 -1.1978 -1.7417
11201TIP3   OH255017   2.320   3.325  15.117 -0.4278 -0.1166  0.9149
11201TIP3    H155018   2.256   3.277  15.064 -0.0736 -0.1496  0.5049
11201TIP3    H255019   2.318   3.283  15.203 -0.3308 -0.6835  0.6479
11202TIP3   OH255020   6.542   1.969  16.990 -0.3753 -0.3067  0.2742
11202TIP3    H155021   6.598   2.026  16.939 -2.3213  0.3448 -1.2595
11202TIP3    H255022   6.527   2.017  17.072  0.1127  0.1710  0.0873
11203TIP3   OH255023   6.068   4.310   0.189 -0.1737 -0.0253  0.2309
11203TIP3    H155024   6.072   4.348   0.277 -0.2936  0.7930 -0.1040
11203TIP3    H255025   6.153   4.269   0.177 -0.2348 -0.3334  0.8087
11204TIP3   OH255026   3.892   2.572  14.207 -0.3563  0.0567 -0.2373
11204TIP3    H155027   3.923   2.482  14.214 -1.1662 -0.1149  1.9626
11204TIP3    H255028   3.799   2.568  14.228 -0.7374  1.2504 -1.5099
11205TIP3   OH255029   3.490   2.642   5.483 -0.2962  0.6429  0.2425
11205TIP3    H155030   3.527   2.561   5.449  0.0800  0.8702  0.0946
11205TIP3    H255031   3.564   2.688   5.522 -0.0722  1.8004 -1.3955
11206TIP3   OH255032   2.550   0.427  11.263  0.3518 -0.2777  0.2790
11206TIP3    H155033   2.460   0.407  11.285  0.6807 -0.9493  1.0435
11206TIP3    H255034   2.544   0.483  11.185 -0.6517 -1.8370 -0.8177
11207TIP3   OH255035   5.423   3.869   5.618 -0.4041  0.1431 -0.3359
11207TIP3    H155036   5.495   3.903   5.564 -0.7993  1.8053  0.0998
11207TIP3    H255037   5.457   3.873   5.707 -0.9459  0.7737 -0.1468
11208TIP3   OH255038   3.699   2.373  15.874  0.2734  0.4635  0.4717
11208TIP3    H155039   3.704   2.430  15.950  2.3621  0.0090  0.7384
11208TIP3    H255040   3.750   2.295  15.898  1.4564  0.5268 -1.5125
11209TIP3   OH255041   5.184   0.855  11.827  0.0404  0.1395  0.1139
11209TIP3    H155042   5.181   0.880  11.735  0.5821 -0.9331 -0.2190
11209TIP3    H255043   5.277   0.841  11.844 -0.2822 -2.8046 -0.0962
11210TIP3   OH255044   2.261   2.390  15.028  0.2790 -0.4070 -0.0310
11210TIP3    H155045   2.340   2.343  15.000 -0.5768 -1.9089 -0.0799
11210TIP3    H255046   2.235   2.440  14.951  0.6816 -0.6261 -0.3194
11211TIP3   OH255047   6.411   2.467  16.309  0.1816 -0.5022 -0.1881
11211TIP3    H155048   6.413   2.559  16.335  0.8235 -0.2722 -1.0077
11211TIP3    H255049   6.356   2.465  16.231 -0.6395 -0.9800  0.3839
11212TIP3   OH255050   3.397   5.213   1.219 -0.2254  0.5840  0.0244
11212TIP3    H155051   3.333   5.282   1.240 -0.7924 -0.1389  0.7243
11212TIP3    H255052   3.465   5.222   1.285 -0.3555  0.3998  0.1829
11213TIP3   OH255053   3.070   0.592  16.523  0.4277  0.1199 -0.0427
11213TIP3    H155054   3.081   0.687  16.522  0.5813  0.1154  0.6740
11213TIP3    H255055   3.158   0.558  16.539  0.6626 -0.2148 -1.8737
11214TIP3   OH255056   2.467   5.225   3.112  0.1517 -0.8410  0.0138
11214TIP3    H155057   2.414   5.164   3.060  1.4057  1.2153 -4.1187
11214TIP3    H255058   2.404   5.268   3.170 -1.2308 -3.7635  0.9341
11215TIP3   OH255059   0.181   5.507  16.330 -0.1690  0.2690 -0.1996
11215TIP3    H155060   0.134   5.590  16.331 -0.1616  0.2856 -0.8519
11215TIP3    H255061   0.271   5.531  16.307  0.5973  0.4372  2.6205
11216TIP3   OH255062   0.847   3.739  14.026 -0.0140 -0.1631 -0.3224
11216TIP3    H155063   0.843   3.699  14.113 -0.6733  0.7751  0.0967
11216TIP3    H255064   0.843   3.833  14.042  0.8129  0.0627 -1.3257
11217TIP3   OH255065   2.240   4.340   4.742  0.0957 -0.6504  0.7396
11217TIP3    H155066   2.262   4.338   4.649  2.5959  1.2121  1.1615
11217TIP3    H255067   2.274   4.257   4.777  2.5469  0.1916  0.5362
11218TIP3   OH255068   5.744   3.416  15.147 -0.2802 -0.1580  0.3028
11218TIP3    H155069   5.708   3.504  15.161  0.0141 -0.0698  0.5285
11218TIP3    H255070   5.746   3.378  15.235 -1.0648 -0.6522  0.1142
11219TIP3   OH255071   5.605   2.685   6.443  0.1490  0.2620  0.2080
11219TIP3    H155072   5.566   2.666   6.358  1.0317 -0.1336 -0.1150
11219TIP3    H255073   5.637   2.600   6.474 -0.0929  0.4197  0.8987
11220TIP3   OH255074   6.581   5.171   3.387 -0.7488  0.5849 -0.3923
11220TIP3    H155075   6.610   5.205   3.302 -0.2210  0.9680 -0.0656
11220TIP3    H255076   6.488   5.154   3.376 -1.0699  2.2669 -0.5403
11221TIP3   OH255077   4.503   3.166  14.805 -0.1977  0.3278  0.3257
11221TIP3    H155078   4.499   3.225  14.881 -0.9931 -0.1087  0.6404
11221TIP3    H255079   4.430   3.105  14.819 -0.6941  0.5766 -1.0723
11222TIP3   OH255080   2.817   5.244   1.037  0.1439 -0.2128  0.7148
11222TIP3    H155081   2.727   5.213   1.048  0.3857 -1.3906 -0.4076
11222TIP3    H255082   2.862   5.172   0.992  1.2733  0.9422 -0.0673
11223TIP3   OH255083   6.495   0.639   6.094 -0.0127  0.0218 -1.1260
11223TIP3    H155084   6.415   0.692   6.092 -0.5784 -0.8161 -2.0177
11223TIP3    H255085   6.464   0.548   6.101  0.8957 -0.2621 -0.5631
11224TIP3   OH255086   5.521   4.297  12.039 -0.0911  0.1226 -0.2787
11224TIP3    H155087   5.615   4.309  12.023  0.3679 -0.0165  1.8975
11224TIP3    H255088   5.516   4.276  12.133 -2.3301  0.3922 -0.2875
11225TIP3   OH255089   0.258   0.928  15.317 -0.0679  0.2682  0.0321
11225TIP3    H155090   0.288   0.900  15.404  0.2975 -0.3914 -0.2960
11225TIP3    H255091   0.210   0.852  15.283 -1.9836  1.2193  0.4550
11226TIP3   OH255092   4.104   6.577  11.708  0.1093 -0.1073  0.0917
11226TIP3    H155093   4.061   6.660  11.686 -0.3469 -0.5178 -0.5904
11226TIP3    H255094   4.179   6.572  11.649  1.2499  0.6868  1.3923
11227TIP3   OH255095   5.492   1.090  14.778  0.5565 -0.4484 -0.0673
11227TIP3    H155096   5.563   1.062  14.836 -0.6930 -3.7105  0.0993
11227TIP3    H255097   5.436   1.146  14.833  1.8130  0.3524  0.4289
11228TIP3   OH255098   3.808   2.073  12.308 -0.8901 -0.1148  0.1308
11228TIP3    H155099   3.777   2.160  12.283 -1.0136 -0.7329 -2.0010
11228TIP3    H255100   3.729   2.020  12.315 -0.9750  0.1999  2.9160
11229TIP3   OH255101   2.209   0.396   3.618 -0.7824  0.1626 -0.0036
11229TIP3    H155102   2.267   0.470   3.602 -1.7126  1.0594  0.6169
11229TIP3    H255103   2.129   0.436   3.654 -0.8571 -1.2457  1.4995
11230TIP3   OH255104   3.768   2.718   1.501  0.1273 -0.7119  0.0990
11230TIP3    H155105   3.805   2.634   1.472  0.4797 -0.5454  0.0541
11230TIP3    H255106   3.747   2.764   1.420 -0.7662 -1.0547  0.1277
11231TIP3   OH255107   1.022   2.623  12.111 -0.2127 -0.6443  0.2175
11231TIP3    H155108   1.053   2.579  12.191  3.0480 -0.0502 -0.5866
11231TIP3    H255109   1.027   2.716  12.132 -0.2916 -0.5068 -0.3724
11232TIP3   OH255110   6.456   2.639   5.417  0.3624  0.0201  0.2106
11232TIP3    H155111   6.506   2.582   5.476 -0.0715 -0.2546  0.3192
11232TIP3    H255112   6.497   2.724   5.426  0.1763  0.0279  1.0777
11233TIP3   OH255113   0.676   5.443  11.599  0.2257 -0.3268 -0.1562
11233TIP3    H155114   0.771   5.442  11.581 -0.0390 -1.6237 -1.6778
11233TIP3    H255115   0.642   5.366  11.554 -1.3277 -0.9456  1.9303
11234TIP3   OH255116   2.939   1.305  12.234 -0.3444  0.0230 -0.0313
11234TIP3    H155117   2.884   1.365  12.184  1.2257  2.2468  0.7815
11234TIP3    H255118   2.882   1.273  12.305 -1.0552  1.0100 -0.1444
11235TIP3   OH255119   0.507   5.521   0.417  0.4336  0.5476 -0.6477
11235TIP3    H155120   0.450   5.502   0.343 -1.4899  0.0924  0.8701
11235TIP3    H255121   0.479   5.607   0.448 -0.2936 -0.1931  0.8380
11236TIP3   OH255122   0.756   1.406   3.989 -0.1566 -0.8668 -0.2798
11236TIP3    H155123   0.719   1.346   3.925 -2.2035 -2.3690  2.1216
11236TIP3    H255124   0.726   1.373   4.074 -0.4052  2.8524  1.2877
11237TIP3   OH255125   1.102   5.431   1.882 -0.7473  0.0795  0.1123
11237TIP3    H155126   1.166   5.364   1.859 -2.6483 -0.9604 -2.7276
11237TIP3    H255127   1.088   5.420   1.976  1.7189 -0.9258  0.4445
11238TIP3   OH255128   4.643   0.746   3.828 -0.3668  0.7039 -0.5643
11238TIP3    H155129   4.599   0.830   3.821 -1.7266  0.1299  0.6013
11238TIP3    H255130   4.735   0.768   3.844 -0.5499  1.9395 -1.1302
11239TIP3   OH255131   5.296   5.429   0.514 -0.0409 -0.0840  0.2349
11239TIP3    H155132   5.332   5.344   0.540  0.2321  0.1857  0.7728
11239TIP3    H255133   5.368   5.473   0.469  0.0753  0.1689  0.6612
11240TIP3   OH255134   1.887   4.211  13.049  0.0516 -0.7140 -0.1657
11240TIP3    H155135   1.811   4.269  13.037  0.4363 -0.0660  0.4588
11240TIP3    H255136   1.871   4.168  13.134  0.1384 -0.9555 -0.2712
11241TIP3   OH255137   5.045   6.746  14.639 -0.0584 -0.6391 -0.1330
11241TIP3    H155138   4.950   6.748  14.647 -0.0971  1.4377 -0.4828
11241TIP3    H255139   5.062   6.676  14.577 -1.3404 -1.1534  0.0597
11242TIP3   OH255140   0.071   4.339  13.044  0.2873 -0.0753  0.6173
11242TIP3    H155141   0.064   4.430  13.070  1.1084 -0.1867  1.2440
11242TIP3    H255142   0.029   4.336  12.958  1.3718  1.1493  0.0088
11243TIP3   OH255143   2.027   6.406   1.418  0.1226  0.2927  0.2158
11243TIP3    H155144   1.950   6.358   1.385  0.1428 -0.9254  1.8325
11243TIP3    H255145   2.043   6.473   1.351  0.1034 -1.9277 -2.1886
11244TIP3   OH255146   4.825   0.152   4.864 -0.0229 -0.0247  0.0172
11244TIP3    H155147   4.846   0.159   4.771 -0.5531 -1.7044 -0.2714
11244TIP3    H255148   4.740   0.109   4.866  0.6532 -1.3970  1.2754
11245TIP3   OH255149   5.636   3.903   3.524  0.3859  0.4014  0.1384
11245TIP3    H155150   5.662   3.814   3.549  0.0571  0.2793  0.0559
11245TIP3    H255151   5.659   3.909   3.431  0.1988  0.3212  0.0858
11246TIP3   OH255152   2.488   1.838  12.443  0.4105 -0.3974 -0.2816
11246TIP3    H155153   2.396   1.861  12.455  0.3597 -1.3437  1.4002
11246TIP3    H255154   2.492   1.744  12.461  1.4139 -0.7762 -2.1983
11247TIP3   OH255155   5.441   1.949   2.922  0.3964  0.2422 -0.1357
11247TIP3    H155156   5.457   1.855   2.923 -0.1045  0.1585  0.8711
11247TIP3    H255157   5.473   1.980   3.006 -0.9011  0.7110  0.2125
11248TIP3   OH255158   3.112   2.267  11.362  0.0198  0.2775 -0.0800
11248TIP3    H155159   3.124   2.182  11.318 -0.3729 -0.2721  0.8509
11248TIP3    H255160   3.079   2.245  11.449  0.9752  1.3461  0.5767
11249TIP3   OH255161   3.572   0.696   5.132 -0.3458 -0.7388  0.0920
11249TIP3    H155162   3.499   0.640   5.105  0.4293 -1.5474 -0.3737
11249TIP3    H255163   3.614   0.722   5.050  0.1130 -0.5972  0.3681
11250TIP3   OH255164   5.856   4.155  11.672  0.1784 -0.1510 -0.3565
11250TIP3    H155165   5.824   4.204  11.596 -0.4259 -1.8054 -1.2405
11250TIP3    H255166   5.949   4.142  11.655  0.2027  0.1490 -0.4465
11251TIP3   OH255167   4.033   2.376  11.774  0.4469 -0.0268 -0.1272
11251TIP3    H155168   4.103   2.314  11.755  0.1116 -0.0714 -1.2408
11251TIP3    H255169   3.980   2.333  11.841 -0.2500 -1.3225 -1.4606
11252TIP3   OH255170   4.863   5.366   4.665 -0.3530 -0.7713 -0.0466
11252TIP3    H155171   4.785   5.321   4.631  0.0983 -1.3684 -0.3043
11252TIP3    H255172   4.902   5.407   4.588 -0.0280 -1.0654 -0.0418
11253TIP3   OH255173   6.724   3.273   5.136  0.2016  0.0225 -0.1522
11253TIP3    H155174   6.656   3.291   5.200 -0.3450  1.7050 -1.1472
11253TIP3    H255175   6.733   3.178   5.137 -1.6519 -0.1857  0.5245
11254TIP3   OH255176   3.769   2.065  10.297  0.3068  0.5007  0.1178
11254TIP3    H155177   3.783   2.104  10.383  0.4331 -0.9127  0.7665
11254TIP3    H255178   3.807   2.128  10.235  2.7462  0.3035  1.2795
11255TIP3   OH255179   1.217   3.799   2.547 -0.2185 -0.0213  0.4300
11255TIP3    H155180   1.219   3.728   2.612 -0.4443  0.7739  1.3185
11255TIP3    H255181   1.301   3.791   2.502  0.9997  0.8108  2.3910
11256TIP3   OH255182   1.173   1.959   1.584 -0.4011 -0.0082 -0.5424
11256TIP3    H155183   1.093   1.949   1.532  0.4520 -2.7433 -1.5098
11256TIP3    H255184   1.230   2.013   1.529 -0.0612 -1.6200 -1.8307
11257TIP3   OH255185   2.571   1.275  13.224  0.4237  0.3823  0.1282
11257TIP3    H155186   2.525   1.299  13.144  0.0996  0.9846  0.4809
11257TIP3    H255187   2.643   1.338  13.230  0.1887  0.6225  0.5252
11258TIP3   OH255188   1.830   4.970   2.395 -0.5507 -0.2429 -0.2410
11258TIP3    H155189   1.902   5.017   2.352 -0.8039  0.3506 -0.0284
11258TIP3    H255190   1.839   4.879   2.365 -0.4096  0.0567 -1.1308
11259TIP3   OH255191   4.293   3.143   0.019  0.3692 -0.3289 -0.2414
11259TIP3    H155192   4.337   3.097  -0.053  2.9298 -1.1537  1.7072
11259TIP3    H255193   4.271   3.075   0.082 -0.5466  0.5400  0.4206
11260TIP3   OH255194   3.029   4.175  10.707 -0.1432 -0.1637 -0.1139
11260TIP3    H155195   2.944   4.178  10.663 -0.1458 -0.8492 -0.1623
11260TIP3    H255196   3.039   4.261  10.746 -0.1117  0.5071 -1.5134
11261TIP3   OH255197   2.002   6.609  13.703 -0.0978  0.3741  0.4556
11261TIP3    H155198   1.986   6.603  13.609 -2.6889 -1.2050  0.9101
11261TIP3    H255199   2.020   6.702  13.718 -1.0358  0.9147 -1.4190
11262TIP3   OH255200   5.690   2.934  12.395 -0.3571  0.1307 -0.0953
11262TIP3    H155201   5.762   2.871  12.390 -1.2227 -0.8225 -1.1840
11262TIP3    H255202   5.708   2.986  12.473  0.8922 -0.8437  0.2877
11263TIP3   OH255203   4.884   5.651  15.552 -0.2607 -0.2376  0.0318
11263TIP3    H155204   4.967   5.605  15.542 -1.3799 -2.2884 -0.1681
11263TIP3    H255205   4.866   5.688  15.465  0.9380  1.1803  0.3479
11264TIP3   OH255206   2.774   0.854   5.217 -0.1102  0.3851  0.6000
11264TIP3    H155207   2.777   0.896   5.131 -0.0413 -0.5844  0.1258
11264TIP3    H255208   2.695   0.890   5.257  1.0554  2.6100  1.0781
11265TIP3   OH255209   2.529   5.189  11.033 -0.1533 -0.0151 -0.2757
11265TIP3    H155210   2.562   5.107  10.996  0.3511  0.8959 -1.9285
11265TIP3    H255211   2.591   5.209  11.104  0.5504 -0.3507 -0.7799
11266TIP3   OH255212   3.926   2.092   0.415  0.0900 -0.4121  0.3500
11266TIP3    H155213   3.835   2.109   0.393 -0.6967 -1.0082  2.7801
11266TIP3    H255214   3.949   2.012   0.368 -0.9221 -0.7038  0.3434
11267TIP3   OH255215   6.730   1.743   0.556 -0.4512  0.0966 -0.3236
11267TIP3    H155216   6.682   1.762   0.475 -0.3249  0.2052 -0.3736
11267TIP3    H255217   6.667   1.695   0.611 -0.6556  0.3529 -0.3356
11268TIP3   OH255218   2.726   6.569  15.108 -0.2299  0.5141 -0.4115
11268TIP3    H155219   2.662   6.539  15.044  0.2809 -1.4475 -0.0493
11268TIP3    H255220   2.810   6.539  15.074  0.0463 -0.6361  1.1910
11269TIP3   OH255221   5.196   1.452  13.509 -0.0955 -0.4349 -0.4579
11269TIP3    H155222   5.125   1.492  13.559  0.9834  0.7462  0.1845
11269TIP3    H255223   5.206   1.508  13.432 -0.8326 -1.4650 -1.3390
11270TIP3   OH255224   0.093   3.211   1.678 -0.4157 -0.4429  0.0026
11270TIP3    H155225   0.105   3.119   1.655  0.6106 -0.1862 -0.5910
11270TIP3    H255226   0.129   3.259   1.603  1.4611  0.4369  1.3755
11271TIP3   OH255227   3.360   1.542  16.626  0.2879  0.0565 -0.1969
11271TIP3    H155228   3.267   1.553  16.604 -0.1298  0.6312  1.6955
11271TIP3    H255229   3.396   1.630  16.624  0.5532 -0.0459  0.0073
11272TIP3   OH255230   5.872   1.334   0.579 -0.5913 -1.1525 -0.1158
11272TIP3    H155231   5.842   1.421   0.552  1.0807 -0.7175 -0.6655
11272TIP3    H255232   5.822   1.315   0.659 -0.8873  0.3773  0.0942
11273TIP3   OH255233   1.812   0.683  11.924  0.0357 -0.2494  0.5307
11273TIP3    H155234   1.857   0.682  12.008 -0.9888 -1.3384  1.1086
11273TIP3    H255235   1.840   0.602  11.881 -0.6658 -0.5018  0.5300
11274TIP3   OH255236   0.673   5.103   1.808 -0.3393  0.1631 -0.4723
11274TIP3    H155237   0.713   5.121   1.892  1.0466  2.3720 -1.5239
11274TIP3    H255238   0.598   5.163   1.803 -2.8150 -2.5748  0.6556
11275TIP3   OH255239   4.661   2.179  12.569  0.1921 -0.2185  0.1377
11275TIP3    H155240   4.682   2.198  12.478  0.0277  1.3559  0.3865
11275TIP3    H255241   4.746   2.166  12.611  0.2496 -1.3592 -0.2986
11276TIP3   OH255242   5.775   3.471  16.401 -0.0908 -0.4873 -0.3187
11276TIP3    H155243   5.766   3.561  16.370  1.9301 -0.5799 -1.3468
11276TIP3    H255244   5.816   3.480  16.487  1.2241 -0.4313 -0.9328
11277TIP3   OH255245   1.974   6.666  14.561  0.2806  0.6968 -0.4478
11277TIP3    H155246   1.978   6.757  14.533 -0.5596  1.2891  1.2413
11277TIP3    H255247   1.897   6.630  14.516  0.3454  0.9432 -0.7591
11278TIP3   OH255248   2.175   6.308   0.914  0.2307 -0.5722 -0.5047
11278TIP3    H155249   2.234   6.260   0.856 -0.6381 -0.5604 -1.4282
11278TIP3    H255250   2.129   6.369   0.856 -1.8928 -1.7232 -0.1515
11279TIP3   OH255251   4.633   0.629  11.620 -0.3236 -0.2483 -0.1556
11279TIP3    H155252   4.631   0.557  11.684  0.5246 -0.3872 -0.2657
11279TIP3    H255253   4.656   0.586  11.537 -1.4910 -0.0800 -0.5831
11280TIP3   OH255254   1.295   6.143   3.222  0.7135  0.0338  0.6550
11280TIP3    H155255   1.375   6.151   3.170  1.4839  0.0558  1.8012
11280TIP3    H255256   1.226   6.125   3.158  1.0677  2.9625 -0.6958
11281TIP3   OH255257   3.757   4.882   0.100 -0.6057  1.1993 -0.3497
11281TIP3    H155258   3.705   4.954   0.063  1.5786  3.0825  0.0054
11281TIP3    H255259   3.846   4.915   0.101  0.1152 -0.4866  2.4158
11282TIP3   OH255260   0.538   3.647  10.599 -0.2212 -0.3448 -0.0313
11282TIP3    H155261   0.604   3.679  10.537  0.5509 -1.1060  0.3767
11282TIP3    H255262   0.524   3.556  10.574 -0.5356 -0.4174  0.3897
11283TIP3   OH255263   1.864   0.724  13.881 -0.1535  0.4315  0.7242
11283TIP3    H155264   1.874   0.745  13.974  0.0157  1.8357  0.4146
11283TIP3    H255265   1.952   0.698  13.853  0.6323  3.2765  0.2343
11284TIP3   OH255266   1.303   6.643  15.139 -0.4927 -0.1875  0.0383
11284TIP3    H155267   1.325   6.639  15.232 -1.1515  0.2263  0.2191
11284TIP3    H255268   1.367   6.704  15.102 -0.5237  0.0181  0.3184
11285TIP3   OH255269   6.201   5.088   4.881 -0.3467 -0.3502 -0.0882
11285TIP3    H155270   6.110   5.063   4.865 -0.1303 -1.3907  0.2143
11285TIP3    H255271   6.238   5.102   4.794 -1.1542  1.5526 -0.1913
11286TIP3   OH255272   0.194   1.418   3.652 -0.8400 -0.3806 -0.2083
11286TIP3    H155273   0.137   1.466   3.593 -0.2467 -0.6995 -1.0685
11286TIP3    H255274   0.157   1.330   3.655 -1.8604  0.0709  1.2749
11287TIP3   OH255275   5.382   5.626  12.943  0.0465 -0.7872  0.3924
11287TIP3    H155276   5.298   5.667  12.965 -1.3636 -1.3509 -3.2491
11287TIP3    H255277   5.418   5.682  12.874  3.1554 -0.1610  2.3199
11288TIP3   OH255278   0.108   2.913  12.039 -0.1445  0.1100 -0.0817
11288TIP3    H155279   0.190   2.876  12.071 -0.1966  0.9071  1.0403
11288TIP3    H255280   0.079   2.852  11.971  0.7674 -0.8079  0.3222
11289TIP3   OH255281   3.333   4.811  15.052 -0.3673  0.1335  0.1646
11289TIP3    H155282   3.279   4.858  14.989 -2.1939  0.0176  1.5636
11289TIP3    H255283   3.420   4.809  15.012 -0.1810  4.4438 -0.1105
11290TIP3   OH255284   3.491   3.702   0.208  0.0303  0.9253 -0.2717
11290TIP3    H155285   3.529   3.790   0.207 -1.3488  1.5833  1.1958
11290TIP3    H255286   3.406   3.713   0.166 -0.2283  0.3315  0.0883
11291TIP3   OH255287   5.833   2.745  11.974 -0.1301  0.0093  0.6650
11291TIP3    H155288   5.867   2.697  12.049 -0.9244  0.0280  1.0443
11291TIP3    H255289   5.770   2.807  12.011  1.6310  2.1317  0.3337
11292TIP3   OH255290   1.008   2.124  10.357  0.0773 -0.0744  0.0543
11292TIP3    H155291   1.052   2.205  10.384 -0.5818 -0.4076  2.3019
11292TIP3    H255292   0.927   2.122  10.407  0.6429 -2.7230  1.0473
11293TIP3   OH255293   5.345   6.685  14.490 -0.7503  0.4629  0.2580
11293TIP3    H155294   5.385   6.695  14.404 -1.4329 -1.5000 -0.3336
11293TIP3    H255295   5.251   6.691  14.473 -0.9079 -0.4290  0.7760
11294TIP3   OH255296   4.064   1.653   2.032 -0.8962  0.1663  0.2699
11294TIP3    H155297   3.999   1.708   1.989  0.1740  0.0455 -1.6297
11294TIP3    H255298   4.082   1.698   2.114 -2.3508  0.9255  0.2087
11295TIP3   OH255299   6.696   3.169   5.663 -0.7039  0.3759  0.2949
11295TIP3    H155300   6.673   3.077   5.654 -2.7801  0.8315  0.3260
11295TIP3    H255301   6.714   3.181   5.756  0.7104 -0.1962  0.1222
11296TIP3   OH255302   6.644   3.745   4.988  0.0361 -0.4769 -0.6685
11296TIP3    H155303   6.664   3.653   4.969  1.0527 -0.3581 -0.2327
11296TIP3    H255304   6.680   3.760   5.076 -0.8788  0.1090 -0.3885
11297TIP3   OH255305   5.177   6.650   2.467 -0.5026  0.7359 -0.4070
11297TIP3    H155306   5.191   6.665   2.373 -0.5786  2.0979 -0.2227
11297TIP3    H255307   5.250   6.695   2.510 -1.4883  1.7573  0.2540
11298TIP3   OH255308   5.436   4.148  13.306  0.1544  0.3210 -0.6286
11298TIP3    H155309   5.408   4.113  13.221  0.3626  0.0940 -0.6060
11298TIP3    H255310   5.528   4.171  13.293  0.5302 -0.8218 -0.1343
11299TIP3   OH255311   2.897   2.490  14.884  0.8226  0.2395  0.7443
11299TIP3    H155312   2.935   2.446  14.960  0.2255  0.5032  1.2050
11299TIP3    H255313   2.963   2.555  14.859  0.4565  1.0798  1.8836
11300TIP3   OH255314   0.895   4.871   2.156  0.6386 -0.4223 -0.2605
11300TIP3    H155315   0.827   4.916   2.207  1.6268  3.7242 -2.1980
11300TIP3    H255316   0.851   4.795   2.118 -2.2760  0.8904  0.2777
11301TIP3   OH255317   5.087   2.260   3.607 -0.3492  0.1422 -0.4101
11301TIP3    H155318   5.096   2.203   3.530  2.2287 -0.4268  0.2034
11301TIP3    H255319   5.059   2.344   3.571  0.3530 -0.2460 -1.9559
11302TIP3   OH255320   6.618   0.510  15.915 -0.4300 -0.5783 -0.1913
11302TIP3    H155321   6.567   0.584  15.883 -0.1373 -0.1503  0.3136
11302TIP3    H255322   6.658   0.542  15.996  0.2401 -1.0613 -0.3232
11303TIP3   OH255323   3.271   3.065  11.874 -0.0475  0.0523  1.2495
11303TIP3    H155324   3.208   3.136  11.863  1.7392  1.6350  0.3865
11303TIP3    H255325   3.284   3.030  11.785  0.5823  0.0480  1.3368
11304TIP3   OH255326   1.643   3.323  10.812 -0.6882 -0.1574  0.7869
11304TIP3    H155327   1.555   3.309  10.849 -0.4529 -2.1993  0.6416
11304TIP3    H255328   1.676   3.236  10.792  1.0635  0.6204  0.0327
11305TIP3   OH255329   2.663   6.770   1.891 -0.3146 -0.1126  0.3633
11305TIP3    H155330   2.619   6.794   1.972 -0.0691  0.6784  0.2754
11305TIP3    H255331   2.723   6.843   1.874 -1.2457  0.3506 -1.1688
11306TIP3   OH255332   2.582   3.482  12.967  0.3473  0.2333  0.8035
11306TIP3    H155333   2.600   3.429  12.890  1.2569  0.4126  0.8804
11306TIP3    H255334   2.629   3.564  12.952 -0.2360  0.6393  1.1255
11307TIP3   OH255335   6.815   1.202   3.209 -0.0136 -0.1638  0.1198
11307TIP3    H155336   6.782   1.268   3.148  0.5102  0.0820  0.0979
11307TIP3    H255337   6.759   1.126   3.195 -0.4357  0.1768 -0.0629
11308TIP3   OH255338   6.559   5.600  12.069  0.1019 -0.4256  0.0418
11308TIP3    H155339   6.645   5.593  12.027  0.0841  1.5028 -0.4122
11308TIP3    H255340   6.503   5.542  12.019  1.0240 -1.3389  0.0310
11309TIP3   OH255341   0.975   5.952  15.142 -0.1193  0.1854  0.1341
11309TIP3    H155342   0.883   5.971  15.159 -0.5892 -2.1647  0.5034
11309TIP3    H255343   0.975   5.892  15.067  1.0864 -0.1127  0.3424
11310TIP3   OH255344   6.156   6.675   1.952  0.3183  1.0839  0.1150
11310TIP3    H155345   6.148   6.655   2.045  0.1327  3.8485  0.7876
11310TIP3    H255346   6.067   6.695   1.924  0.3294 -0.0331 -0.7588
11311TIP3   OH255347   3.816   0.236   0.254  0.0898  0.3707  0.4001
11311TIP3    H155348   3.896   0.215   0.207 -0.6580 -0.0970 -0.7219
11311TIP3    H255349   3.845   0.283   0.332  1.7150 -2.6108  1.7643
11312TIP3   OH255350   6.331   1.349   4.147  0.0915  0.4776 -0.6783
11312TIP3    H155351   6.254   1.380   4.099  0.3895  1.0257 -0.8112
11312TIP3    H255352   6.396   1.331   4.079  0.0736 -0.0282 -0.5705
11313TIP3   OH255353   0.077   4.555  11.684  0.6348  0.1345  0.1921
11313TIP3    H155354  -0.009   4.595  11.694  0.4141 -0.4753  0.7798
11313TIP3    H255355   0.062   4.477  11.631  0.7916 -0.0872  0.4708
11314TIP3   OH255356   1.893   3.689  11.445 -0.4158  0.3304  0.3890
11314TIP3    H155357   1.843   3.661  11.368 -0.2046  1.0838 -0.0253
11314TIP3    H255358   1.889   3.613  11.504  0.4033 -0.7207 -0.8402
11315TIP3   OH255359   3.414   3.404  13.032  0.0282  0.4122 -0.1075
11315TIP3    H155360   3.423   3.494  13.062  0.0978  1.2691 -2.4751
11315TIP3    H255361   3.370   3.411  12.947 -0.7041 -1.8619  0.0062
11316TIP3   OH255362   3.141   3.104   5.642  0.0787  0.3610  0.4287
11316TIP3    H155363   3.140   3.011   5.663 -1.2567  0.5655  1.3942
11316TIP3    H255364   3.147   3.107   5.547  1.0849 -0.6848  0.4387
11317TIP3   OH255365   2.968   4.355  14.642 -0.3685  0.0915 -0.0799
11317TIP3    H155366   2.929   4.342  14.555 -1.9129  1.4251  0.3506
11317TIP3    H255367   3.038   4.419  14.627 -0.8960  0.6290 -0.3042
11318TIP3   OH255368   0.525   4.242  16.994  0.0453 -0.0703 -0.7170
11318TIP3    H155369   0.609   4.253  17.039 -0.3896 -2.2396  0.7661
11318TIP3    H255370   0.549   4.228  16.902  1.2174  0.6020 -0.5298
11319TIP3   OH255371   4.041   0.626   4.305  0.4028 -0.1457  0.0954
11319TIP3    H155372   3.994   0.709   4.312  0.5489 -0.0060 -0.5859
11319TIP3    H255373   4.010   0.575   4.380 -0.9981 -0.1398 -0.4645
11320TIP3   OH255374   5.624   1.867   0.678 -0.7122 -0.0800  0.8742
11320TIP3    H155375   5.710   1.861   0.720  0.4459  0.8849 -1.1817
11320TIP3    H255376   5.571   1.918   0.739  1.0398  1.7009  1.0051
11321TIP3   OH255377   1.302   0.808   0.524  0.3433  0.2028  0.0273
11321TIP3    H155378   1.397   0.808   0.518  0.4143  0.2158  0.9993
11321TIP3    H255379   1.284   0.793   0.617 -0.6081 -0.4262 -0.2487
11322TIP3   OH255380   2.425   0.978  13.714  0.0588  0.0779 -0.2323
11322TIP3    H155381   2.416   0.885  13.734 -2.0941  0.3436  0.2448
11322TIP3    H255382   2.460   0.981  13.625 -0.4864 -1.1944 -0.4997
11323TIP3   OH255383   1.524   5.758   3.409 -0.5285 -0.5911 -0.3009
11323TIP3    H155384   1.618   5.739   3.411 -0.5408 -0.5958  1.8233
11323TIP3    H255385   1.519   5.853   3.406 -0.4721 -0.5897 -0.3645
11324TIP3   OH255386   3.383   5.481  16.253 -0.2269 -0.1117  0.3853
11324TIP3    H155387   3.381   5.421  16.179 -0.5878  0.2875  0.0650
11324TIP3    H255388   3.444   5.441  16.315  1.5198  0.4195 -0.8907
11325TIP3   OH255389   2.729   4.278   0.211  0.1808 -0.4688 -0.7300
11325TIP3    H155390   2.678   4.209   0.168 -3.1672  2.3300 -1.6709
11325TIP3    H255391   2.783   4.314   0.141 -0.3391 -0.2110 -1.0075
11326TIP3   OH255392   3.981   2.329   5.139 -0.1195 -0.1237 -0.5457
11326TIP3    H155393   3.951   2.265   5.074 -3.2002  1.7535 -1.1736
11326TIP3    H255394   3.983   2.412   5.092 -1.0022  1.0483  1.3842
11327TIP3   OH255395   4.060   5.181  13.499 -0.5583  0.3020 -0.2386
11327TIP3    H155396   4.040   5.205  13.409 -0.2068 -0.3473 -0.4969
11327TIP3    H255397   4.074   5.086  13.496 -0.0244  0.3525  0.4071
11328TIP3   OH255398   3.710   5.658  14.642 -0.0490  0.8258  0.1314
11328TIP3    H155399   3.802   5.685  14.649 -0.2763  2.0310 -1.0578
11328TIP3    H255400   3.714   5.569  14.607  0.6740  0.5963  0.7642
11329TIP3   OH255401   2.168   1.527   5.189  0.5955 -0.0404  0.2391
11329TIP3    H155402   2.137   1.585   5.120  1.6556  2.3934  1.6676
11329TIP3    H255403   2.187   1.444   5.145 -0.2708  0.9091 -2.0581
11330TIP3   OH255404   3.333   3.319   5.514  0.9687 -0.1538 -0.1003
11330TIP3    H155405   3.386   3.273   5.579 -0.4471  0.8265  1.8560
11330TIP3    H255406   3.243   3.302   5.540  0.3786  1.5329 -0.8828
11331TIP3   OH255407   3.456   4.582   0.626 -0.3195  0.0823  0.2957
11331TIP3    H155408   3.504   4.551   0.549  0.2096  2.0106 -0.1860
11331TIP3    H255409   3.364   4.574   0.601 -0.1447  1.0669 -0.7087
11332TIP3   OH255410   1.837   5.214   0.332  0.4006 -0.7496 -0.0563
11332TIP3    H155411   1.818   5.304   0.304 -0.6258 -0.0575  2.5105
11332TIP3    H255412   1.880   5.174   0.257  0.6019  1.7836 -1.4223
11333TIP3   OH255413   3.076   0.304   5.201 -0.0162  0.8113 -0.1995
11333TIP3    H155414   3.147   0.338   5.255  0.7057  0.5666 -0.9612
11333TIP3    H255415   3.012   0.375   5.196 -0.5223  0.5429  1.6641
11334TIP3   OH255416   5.166   6.363  13.290  0.2913  0.1032  0.0038
11334TIP3    H155417   5.196   6.357  13.381 -0.4811  1.1596  0.3482
11334TIP3    H255418   5.077   6.329  13.292  0.8519 -1.5168 -0.7151
11335TIP3   OH255419   3.550   1.724   0.374  0.1948 -0.1632  0.2623
11335TIP3    H155420   3.603   1.774   0.435 -0.8812  2.8381 -1.0465
11335TIP3    H255421   3.461   1.728   0.410  0.2615 -2.2738  0.7537
11336TIP3   OH255422   2.761   5.081   5.206  1.2405  0.0279  0.7954
11336TIP3    H155423   2.771   4.986   5.199  0.2487 -0.0533  0.2221
11336TIP3    H255424   2.688   5.101   5.147  0.5637  0.9811  1.9163
11337TIP3   OH255425   3.099   2.238   0.038 -0.2321 -0.0930  0.0432
11337TIP3    H155426   3.155   2.187  -0.020 -0.0296  0.1100  0.0600
11337TIP3    H255427   3.068   2.311  -0.016 -0.6111 -0.2923 -0.0132
11338TIP3   OH255428   0.963   4.554   1.802 -0.1274  0.4270  0.6938
11338TIP3    H155429   0.885   4.532   1.852 -1.0675  1.3331 -0.3037
11338TIP3    H255430   0.973   4.649   1.813  1.8385  0.1040  2.1580
11339TIP3   OH255431   1.463   3.316   4.620 -0.5793  0.3471  0.2427
11339TIP3    H155432   1.453   3.255   4.547  0.1911 -1.8379  1.8399
11339TIP3    H255433   1.437   3.401   4.585 -0.9630 -0.7498 -2.3220
11340TIP3   OH255434   2.059   0.337   1.843 -0.4491  0.3472  0.1876
11340TIP3    H155435   1.969   0.349   1.813 -0.2693  0.3320 -0.3743
11340TIP3    H255436   2.073   0.407   1.906 -0.7899  0.4611  0.1421
11341TIP3   OH255437   6.204   4.994  12.311 -0.1669 -0.2113 -0.2327
11341TIP3    H155438   6.260   4.924  12.344 -0.4744 -1.3422 -1.9515
11341TIP3    H255439   6.119   4.952  12.297 -0.1071  0.2047 -2.1928
11342TIP3   OH255440   5.322   2.790   3.607 -0.5391 -0.2703 -0.1870
11342TIP3    H155441   5.385   2.722   3.630  0.5471  0.5105 -0.7577
11342TIP3    H255442   5.287   2.819   3.691 -0.6179 -1.1406  0.0994
11343TIP3   OH255443   5.486   2.948   0.622 -0.0653 -0.5529 -0.4910
11343TIP3    H155444   5.511   2.876   0.679  0.0506  0.4089  0.7100
11343TIP3    H255445   5.537   2.934   0.542  0.3632 -1.4822 -0.0654
11344TIP3   OH255446   4.951   5.900  15.680  0.0898 -0.4747 -0.0377
11344TIP3    H155447   4.886   5.940  15.622 -0.5977 -0.0795  0.9755
11344TIP3    H255448   4.980   5.821  15.634 -2.1472 -1.4372  0.0922
11345TIP3   OH255449   6.012   4.628  12.674 -0.0246  0.0368  0.4613
11345TIP3    H155450   6.058   4.712  12.680  1.4231 -0.7022  0.1959
11345TIP3    H255451   6.015   4.606  12.581 -1.8544  0.4436  0.2725
11346TIP3   OH255452   3.515   1.506   2.027  0.0610  0.3909 -0.1559
11346TIP3    H155453   3.577   1.479   2.095  0.2482 -4.3431 -1.7956
11346TIP3    H255454   3.429   1.494   2.068  0.1615  1.7076  0.4774
11347TIP3   OH255455   6.572   5.645  11.611 -0.0310 -0.2160 -0.1765
11347TIP3    H155456   6.508   5.575  11.599  1.4144 -1.8088  0.9212
11347TIP3    H255457   6.627   5.641  11.533  1.2013 -1.6426  0.7029
11348TIP3   OH255458   4.511   3.171  13.126  0.8265 -0.2681  0.0711
11348TIP3    H155459   4.496   3.135  13.213 -2.2803 -0.0756 -0.3055
11348TIP3    H255460   4.470   3.258  13.128  2.5503  0.6395 -0.9953
11349TIP3   OH255461   3.107   3.570   4.583 -0.5870  0.3641 -0.5872
11349TIP3    H155462   3.050   3.516   4.638  0.4747  0.8838  1.0728
11349TIP3    H255463   3.188   3.579   4.633  1.1714 -0.6776 -3.0306
11350TIP3   OH255464   6.677   4.992   2.418  0.5903 -0.0908 -0.2838
11350TIP3    H155465   6.668   4.938   2.339  0.0393  1.3380 -1.2551
11350TIP3    H255466   6.668   4.931   2.491  1.7878 -1.5552 -1.3196
11351TIP3   OH255467   5.755   3.106  13.412  0.3660 -0.1117  0.0488
11351TIP3    H155468   5.826   3.165  13.388  0.6561 -0.8689 -1.0338
11351TIP3    H255469   5.692   3.161  13.457  0.8434  0.9228 -0.5207
11352TIP3   OH255470   2.677   0.545   2.965  0.1118  0.6709 -0.3002
11352TIP3    H155471   2.582   0.543   2.979  0.0796  2.4377  0.0374
11352TIP3    H255472   2.688   0.533   2.871 -0.2856 -1.6863 -0.0846
11353TIP3   OH255473   5.419   2.773   2.152 -0.1651 -0.2278  0.0088
11353TIP3    H155474   5.416   2.856   2.104 -0.8374  0.3233  0.9444
11353TIP3    H255475   5.394   2.797   2.242 -3.9314 -1.9195 -0.3841
11354TIP3   OH255476   5.083   4.293  16.373 -0.6658 -0.4786  0.0810
11354TIP3    H155477   5.060   4.330  16.458  1.2742 -0.4984  0.6628
11354TIP3    H255478   5.144   4.356  16.335 -0.6188 -1.0297 -0.7905
11355TIP3   OH255479   6.149   4.067  12.694  0.7196 -0.2172 -0.1874
11355TIP3    H155480   6.222   4.021  12.735  0.1613  0.0961  1.2317
11355TIP3    H255481   6.113   4.121  12.764  1.0640  2.0568 -1.6693
11356TIP3   OH255482   6.443   0.501  10.293  0.3659  0.0515 -0.2832
11356TIP3    H155483   6.467   0.588  10.261 -0.6741  1.4551  2.4358
11356TIP3    H255484   6.349   0.493  10.274  0.1853  0.0555  0.5937
11357TIP3   OH255485   0.944   0.329   1.825 -0.6356 -0.0948 -0.2970
11357TIP3    H155486   0.994   0.352   1.903  0.1563 -0.1076 -0.7818
11357TIP3    H255487   1.011   0.301   1.761 -1.2535  0.0038 -1.0049
11358TIP3   OH255488   4.550   0.624   2.460 -0.1914 -0.5289 -0.6490
11358TIP3    H155489   4.572   0.531   2.460 -0.7332 -0.6837 -1.7642
11358TIP3    H255490   4.483   0.632   2.392  0.6799  0.8678 -1.3817
11359TIP3   OH255491   6.297   4.188   1.575 -0.0387  0.3586  0.6314
11359TIP3    H155492   6.382   4.145   1.568 -0.1019 -0.2261  2.8383
11359TIP3    H255493   6.251   4.140   1.643 -1.9366  1.0447 -0.1021
11360TIP3   OH255494   1.181   2.804   2.846  0.2162 -0.3104  0.1472
11360TIP3    H155495   1.187   2.765   2.933  0.1411  1.7498  1.1428
11360TIP3    H255496   1.268   2.840   2.830 -0.1693  0.5800  0.0131
11361TIP3   OH255497   0.598   5.771   6.115  0.2289 -0.0653  0.2744
11361TIP3    H155498   0.676   5.814   6.149  0.4010  1.5570 -1.9622
11361TIP3    H255499   0.526   5.830   6.139  0.2287  0.5551 -1.1986
11362TIP3   OH255500   2.662   4.000   5.257 -0.2395 -0.5308  0.5128
11362TIP3    H155501   2.649   4.045   5.173  1.1738 -0.1727  0.4614
11362TIP3    H255502   2.720   4.058   5.307 -0.4399 -1.1043  1.4462
11363TIP3   OH255503   1.327   3.359  14.355  0.2637  0.3848  0.0934
11363TIP3    H155504   1.309   3.443  14.397  0.1700 -0.3557  1.5865
11363TIP3    H255505   1.389   3.315  14.413  0.6827 -0.3866 -0.9067
11364TIP3   OH255506   1.689   2.337   1.941 -0.0843  0.1915 -0.2184
11364TIP3    H155507   1.640   2.279   1.999  0.0013  1.8052  1.5830
11364TIP3    H255508   1.767   2.288   1.917 -0.0325 -0.4692  1.2227
11365TIP3   OH255509   0.985   1.461  16.989  0.2804 -0.2046  0.6227
11365TIP3    H155510   1.021   1.389  16.938  1.6477  1.0469 -0.2568
11365TIP3    H255511   1.046   1.472  17.062  2.0172  2.0825 -1.0069
11366TIP3   OH255512   4.502   2.031   1.090 -0.2336  0.2902  0.0184
11366TIP3    H155513   4.569   1.996   1.031 -2.0242 -1.0400 -1.3405
11366TIP3    H255514   4.488   1.962   1.154 -0.0998  0.7009  0.4989
11367TIP3   OH255515   0.943   0.934  15.432  0.2278  0.4641 -0.1003
11367TIP3    H155516   0.878   1.003  15.442  2.0079  2.2011 -0.0496
11367TIP3    H255517   0.931   0.903  15.342 -1.3734 -0.0707  0.2533
11368TIP3   OH255518   1.003   0.514   3.625 -0.2850 -0.5966 -0.0378
11368TIP3    H155519   0.954   0.554   3.553  0.1955 -0.6640 -0.4026
11368TIP3    H255520   0.956   0.543   3.704 -0.4480 -0.0123 -0.3399
11369TIP3   OH255521   2.644   4.663   2.918 -0.2386 -0.5703  0.1386
11369TIP3    H155522   2.617   4.572   2.927  0.7999 -0.7478  2.4072
11369TIP3    H255523   2.727   4.660   2.870  0.0901 -0.9067  0.7171
11370TIP3   OH255524   4.480   2.009   2.347 -0.0797 -0.1564  0.2193
11370TIP3    H155525   4.477   1.978   2.437 -1.2116 -0.0488  0.2247
11370TIP3    H255526   4.499   2.102   2.354  1.2255 -0.4069  0.2790
11371TIP3   OH255527   4.095   4.748   3.657 -0.2134  0.2932  0.5934
11371TIP3    H155528   4.138   4.814   3.602 -0.7521 -1.0313 -1.4841
11371TIP3    H255529   4.168   4.698   3.695  0.1447  0.0523 -0.3890
11372TIP3   OH255530   3.279   3.380   6.342 -0.4571  0.0052 -0.3819
11372TIP3    H155531   3.276   3.461   6.393 -1.1265  0.6951 -1.4691
11372TIP3    H255532   3.262   3.311   6.406 -1.0437  0.8235  0.3724
11373TIP3   OH255533   5.836   3.315   5.248 -0.0767 -0.1380 -0.0414
11373TIP3    H155534   5.893   3.325   5.172  1.0380  0.4453  0.8310
11373TIP3    H255535   5.829   3.404   5.284 -1.2351 -0.2689  0.0923
11374TIP3   OH255536   2.223   6.474   3.642  0.1108 -0.2882 -0.7708
11374TIP3    H155537   2.157   6.406   3.649 -0.2492  0.2187  1.7101
11374TIP3    H255538   2.207   6.531   3.717  1.9175  1.1680 -1.4087
11375TIP3   OH255539   0.483   3.191   3.865  0.2527  0.1998  0.4630
11375TIP3    H155540   0.543   3.204   3.791  1.8297 -0.6300  1.5286
11375TIP3    H255541   0.458   3.099   3.860  0.0838  0.2305  0.7600
11376TIP3   OH255542   4.170   1.440   5.530 -0.5569 -0.0821 -0.0521
11376TIP3    H155543   4.208   1.480   5.452 -0.3676  0.5110  0.3359
11376TIP3    H255544   4.096   1.390   5.498 -2.2732  2.4603 -0.3362
11377TIP3   OH255545   0.661   4.850   2.335 -0.1542 -0.1990 -0.3108
11377TIP3    H155546   0.647   4.876   2.426  0.3802  0.5214 -0.4316
11377TIP3    H255547   0.649   4.755   2.336  2.4559 -0.6048  1.0516
11378TIP3   OH255548   5.354   2.831  16.407 -0.2601  0.2809  0.1617
11378TIP3    H155549   5.305   2.906  16.442 -0.0090  1.0157 -1.0438
11378TIP3    H255550   5.419   2.869  16.349 -0.3661 -0.8914 -0.7584
11379TIP3   OH255551   1.459   2.605   1.025 -0.8669  0.3706 -0.0603
11379TIP3    H155552   1.414   2.532   1.067  1.3991 -0.4831  1.0800
11379TIP3    H255553   1.499   2.567   0.947  0.9496  0.1162  0.9298
11380TIP3   OH255554   3.668   5.571  14.245  0.4195 -0.0715  0.0107
11380TIP3    H155555   3.756   5.578  14.280  0.5699 -1.9553  0.0662
11380TIP3    H255556   3.679   5.563  14.150  0.4279 -1.7529  0.1275
11381TIP3   OH255557   4.964   6.799  15.026  0.4664  0.9921  0.2053
11381TIP3    H155558   4.899   6.860  14.993 -1.6457 -1.4216 -0.4607
11381TIP3    H255559   4.928   6.769  15.110  0.1739 -1.0301 -0.5796
11382TIP3   OH255560   2.600   6.563   2.196  0.1499  0.1963 -0.1246
11382TIP3    H155561   2.524   6.505   2.191 -0.1210  0.4050  1.2843
11382TIP3    H255562   2.651   6.530   2.270  0.2248  1.4574  0.4084
11383TIP3   OH255563   0.942   1.288   1.086  0.0345  0.2922 -0.0395
11383TIP3    H155564   1.005   1.315   1.153  0.3303  0.3175 -0.3258
11383TIP3    H255565   0.975   1.326   1.005 -0.5299  0.5869 -0.1400
11384TIP3   OH255566   2.190   0.206   3.426 -0.3362 -0.3701  0.0494
11384TIP3    H155567   2.217   0.256   3.503 -2.0443  0.9661 -0.1643
11384TIP3    H255568   2.185   0.116   3.456 -0.8840  0.1187  1.4975
11385TIP3   OH255569   2.584   2.245   5.682 -0.1557 -0.2399  0.3556
11385TIP3    H155570   2.668   2.224   5.641  0.5885  1.2708  1.0472
11385TIP3    H255571   2.539   2.161   5.688  1.1800 -1.0330 -0.2988
11386TIP3   OH255572   0.288   2.399  14.943  0.0035  0.0337  0.3162
11386TIP3    H155573   0.238   2.448  14.879 -2.6628 -1.3608  1.1502
11386TIP3    H255574   0.276   2.447  15.025  0.0224 -0.3265  0.5335
11387TIP3   OH255575   5.154   0.166  13.670  0.2678  0.2069 -0.1570
11387TIP3    H155576   5.227   0.157  13.731  0.2162  0.0472 -0.1179
11387TIP3    H255577   5.096   0.230  13.711  0.3416  0.2666 -0.1456
11388TIP3   OH255578   4.012   0.146   2.117  0.0422  0.2258  0.3719
11388TIP3    H155579   4.018   0.105   2.030  1.8417 -0.7619  0.9118
11388TIP3    H255580   3.940   0.099   2.160  0.4641 -0.6966  0.1021
11389TIP3   OH255581   1.731   5.780   0.300  0.3957 -0.5715  0.1828
11389TIP3    H155582   1.712   5.871   0.277 -0.0634 -0.3816  1.2678
11389TIP3    H255583   1.692   5.729   0.229  1.3141  0.0851 -0.8345
11390TIP3   OH255584   0.016   3.745   2.276 -0.1105  0.5843  0.3102
11390TIP3    H155585  -0.034   3.801   2.218  1.6367  1.1711 -0.7181
11390TIP3    H255586   0.012   3.788   2.361 -0.7467  0.9845  0.0832
11391TIP3   OH255587   2.898   3.040  13.980 -0.2576  0.2734  0.1051
11391TIP3    H155588   2.903   3.047  13.885  0.1146  1.5985  0.1993
11391TIP3    H255589   2.943   2.958  14.001 -2.3897 -1.2960 -1.0016
11392TIP3   OH255590   5.505   6.166  13.517 -0.1529 -0.4270  0.4430
11392TIP3    H155591   5.587   6.147  13.562 -1.0579 -0.9103  1.9785
11392TIP3    H255592   5.531   6.186  13.427  1.7457  0.6774  1.1661
11393TIP3   OH255593   4.736   1.294   3.919 -0.1331  0.0621 -0.4762
11393TIP3    H155594   4.736   1.221   3.981  0.6253  0.5897  0.1516
11393TIP3    H255595   4.719   1.371   3.972  0.9010  0.5717 -0.8537
11394TIP3   OH255596   6.352   1.601  14.916  0.5900  0.1655  0.0213
11394TIP3    H155597   6.379   1.693  14.914 -2.1833  1.0743 -1.8432
11394TIP3    H255598   6.273   1.601  14.970 -0.8759 -0.5962 -2.0138
11395TIP3   OH255599   3.228   1.712   4.871  0.6388  0.3639 -0.1380
11395TIP3    H155600   3.171   1.780   4.834  2.5851  0.4627 -3.4121
11395TIP3    H255601   3.249   1.743   4.959 -2.0213  1.6939  0.1414
11396TIP3   OH255602   4.632   6.302   4.389  0.1485  0.1056  0.1050
11396TIP3    H155603   4.556   6.353   4.362 -1.1941 -0.1930  2.9479
11396TIP3    H255604   4.640   6.318   4.483  3.2346 -0.4277  0.0459
11397TIP3   OH255605   3.707   0.718  15.719 -0.0909  0.1137  0.4896
11397TIP3    H155606   3.661   0.690  15.639 -1.4120  0.7552  0.9940
11397TIP3    H255607   3.766   0.645  15.738 -0.2483 -0.3581 -0.6880
11398TIP3   OH255608   5.137   1.184   5.974  0.1496  0.2056  0.2152
11398TIP3    H155609   5.072   1.133   6.023  0.4326 -0.2211  0.1553
11398TIP3    H255610   5.102   1.273   5.972 -0.0037  0.1712  0.9528
11399TIP3   OH255611   2.893   1.473   4.662 -0.3771  0.1423  0.2635
11399TIP3    H155612   2.806   1.500   4.692  0.1761  1.1322  1.0374
11399TIP3    H255613   2.927   1.550   4.617 -0.0057 -0.3378 -0.2822
11400TIP3   OH255614   5.997   1.815   2.146  1.0330  0.0486  0.4152
11400TIP3    H155615   5.904   1.796   2.138  1.2288 -0.0650 -2.4070
11400TIP3    H255616   6.034   1.737   2.188  0.0934 -0.5769  0.1054
11401TIP3   OH255617   1.554   3.561   1.529 -0.3978 -0.5378 -0.1209
11401TIP3    H155618   1.635   3.556   1.478 -0.5561  0.5246 -0.4908
11401TIP3    H255619   1.555   3.481   1.582  1.8285  0.2893  1.2364
11402TIP3   OH255620   1.116   2.012  15.129  0.1608 -0.3497  0.1993
11402TIP3    H155621   1.108   1.917  15.133  0.7682 -0.3657  1.7508
11402TIP3    H255622   1.120   2.032  15.036 -2.5339 -1.5945 -0.2656
11403TIP3   OH255623   5.794   5.473  13.570 -0.4577  0.0653  0.3818
11403TIP3    H155624   5.743   5.461  13.490  0.4139  0.7724 -0.3065
11403TIP3    H255625   5.755   5.550  13.612 -0.7094 -0.1092  0.4662
11404TIP3   OH255626   2.270   3.406   2.922  0.2882 -0.1768  0.7489
11404TIP3    H155627   2.197   3.371   2.974  0.2024 -0.1662  0.6375
11404TIP3    H255628   2.236   3.409   2.832  0.7743 -1.1671  0.5190
11405TIP3   OH255629   3.400   6.103  15.837  0.0294  0.4844 -0.1132
11405TIP3    H155630   3.445   6.018  15.838 -2.4067 -0.8943  0.8442
11405TIP3    H255631   3.363   6.111  15.925 -0.0375  2.4392 -0.2861
11406TIP3   OH255632   3.542   2.310  16.499  0.0035  0.9967 -0.3943
11406TIP3    H155633   3.502   2.258  16.569  0.6447  2.4829  1.1593
11406TIP3    H255634   3.554   2.248  16.427 -0.0114 -0.7941  1.0583
11407TIP3   OH255635   5.253   0.252   4.330 -0.1579  0.0368 -0.3606
11407TIP3    H155636   5.184   0.204   4.286  0.7581 -3.4812  1.6948
11407TIP3    H255637   5.208   0.326   4.371 -2.2818 -0.8682 -0.9207
11408TIP3   OH255638   1.904   0.370  16.716  0.4877  0.3213 -0.5332
11408TIP3    H155639   1.997   0.394  16.712  0.2407  1.2815 -0.6071
11408TIP3    H255640   1.900   0.285  16.672  1.6027 -0.6024  1.0329
11409TIP3   OH255641   1.757   2.436   0.574  0.1342  0.1718 -0.2583
11409TIP3    H155642   1.853   2.428   0.578  0.1188  0.3416  1.4157
11409TIP3    H255643   1.742   2.502   0.507  1.0969 -0.9842 -1.6588
11410TIP3   OH255644   3.469   0.695   2.490 -0.2748  0.1573 -0.2522
11410TIP3    H155645   3.457   0.759   2.560  0.1369  0.8576 -0.8120
11410TIP3    H255646   3.560   0.704   2.464 -0.2270 -0.6284 -0.3704
11411TIP3   OH255647   5.238   0.413   3.091  0.4550  0.1471  0.7769
11411TIP3    H155648   5.235   0.416   2.995  2.0473 -1.0328  0.6466
11411TIP3    H255649   5.243   0.505   3.117  0.1201  0.4778 -0.2787
11412TIP3   OH255650   1.653   0.952  13.841 -0.1833 -0.2390  0.0781
11412TIP3    H155651   1.651   0.936  13.935  0.0588  1.5086  0.4218
11412TIP3    H255652   1.741   0.928  13.814 -0.1398 -0.4101  0.3670
11413TIP3   OH255653   5.340   3.722   0.078  0.7675  0.0411  0.4916
11413TIP3    H155654   5.337   3.817   0.070 -3.5561  0.0775 -0.3555
11413TIP3    H255655   5.332   3.691  -0.012  2.1730 -1.1740  0.7538
11414TIP3   OH255656   2.484   3.170   0.385  0.3898  0.0784  0.0728
11414TIP3    H155657   2.514   3.084   0.355 -1.0717 -1.0881  1.7320
11414TIP3    H255658   2.564   3.220   0.401  1.3727 -1.7678  1.2229
11415TIP3   OH255659   5.751   3.944   1.108 -0.2281  0.4069  0.0565
11415TIP3    H155660   5.795   3.934   1.192 -0.0944 -0.5232 -0.1132
11415TIP3    H255661   5.773   4.033   1.080  0.7396  0.2944  0.4208
11416TIP3   OH255662   4.669   4.780   1.474 -0.5299 -0.0525  0.4793
11416TIP3    H155663   4.694   4.777   1.381  0.3874  0.2806  0.7036
11416TIP3    H255664   4.752   4.791   1.520 -0.9973 -0.0814  1.3361
11417TIP3   OH255665   2.998   3.560  13.598  0.2779  0.0942 -0.2159
11417TIP3    H155666   2.937   3.527  13.664 -0.5495  0.1420 -0.9283
11417TIP3    H255667   3.064   3.491  13.590 -0.5346 -0.6754 -0.5147
11418TIP3   OH255668   1.792   3.383  12.959 -0.1976 -0.0820 -0.3157
11418TIP3    H155669   1.853   3.403  12.887  0.5282 -0.3286  0.2225
11418TIP3    H255670   1.804   3.290  12.976 -0.6484 -0.1072 -0.1253
11419TIP3   OH255671   4.203   6.347   3.273 -0.2987 -0.4410 -0.2598
11419TIP3    H155672   4.151   6.412   3.321 -0.2077  0.0541 -0.8201
11419TIP3    H255673   4.247   6.398   3.205  2.2667 -0.5489  1.2176
11420TIP3   OH255674   3.406   6.394   3.850 -0.9177 -0.2980  0.6339
11420TIP3    H155675   3.372   6.456   3.785  0.8346  0.3086  0.2493
11420TIP3    H255676   3.355   6.314   3.836 -0.2799 -0.3545 -1.8311
11421TIP3   OH255677   3.980   3.163  15.870 -0.3421  0.0056 -0.3554
11421TIP3    H155678   3.944   3.212  15.944 -0.1138  0.0574 -0.2795
11421TIP3    H255679   4.066   3.202  15.855 -0.1381 -0.4091 -0.2631
11422TIP3   OH255680   1.580   2.219   0.227 -0.1881  0.0646 -0.6082
11422TIP3    H155681   1.632   2.152   0.273 -0.4631 -0.0977 -0.5281
11422TIP3    H255682   1.634   2.245   0.153  0.4005  0.5578 -0.0128
11423TIP3   OH255683   6.064   3.124   3.500 -0.6394 -0.0843 -0.5289
11423TIP3    H155684   6.025   3.045   3.538 -0.8888  0.6514  0.8147
11423TIP3    H255685   6.157   3.103   3.490 -0.2691  0.1426  1.8749
11424TIP3   OH255686   6.035   3.477  16.156 -0.4626 -0.6035 -0.2014
11424TIP3    H155687   6.011   3.389  16.128 -1.2453 -0.1125 -1.1640
11424TIP3    H255688   6.054   3.469  16.250  1.8852 -2.2401 -0.7430
11425TIP3   OH255689   1.873   4.738   2.008  0.1815 -0.0081  0.5127
11425TIP3    H155690   1.779   4.755   2.009 -0.0674 -1.0696 -1.1114
11425TIP3    H255691   1.882   4.654   1.963  1.8767 -0.2711  1.2421
11426TIP3   OH255692   3.627   0.369  12.560  0.1546 -0.1004 -0.3728
11426TIP3    H155693   3.586   0.288  12.528 -0.1643 -0.0328 -0.1392
11426TIP3    H255694   3.618   0.364  12.655 -1.1575  0.8794 -0.4187
11427TIP3   OH255695   1.507   3.532   5.904 -0.0246  0.1206 -0.7509
11427TIP3    H155696   1.481   3.533   5.812 -0.8127  1.4294 -0.5366
11427TIP3    H255697   1.428   3.557   5.952  1.0571  2.1434  0.0738
11428TIP3   OH255698   2.350   6.781   0.379  0.5536  0.3167  0.3017
11428TIP3    H155699   2.291   6.753   0.309  1.3755  0.4988 -0.4895
11428TIP3    H255700   2.408   6.845   0.337  0.9104  0.6043  1.2156
11429TIP3   OH255701   6.193   4.339  15.107  0.4729  0.0701  0.0040
11429TIP3    H155702   6.165   4.330  15.199  0.0627  1.4980  0.0427
11429TIP3    H255703   6.237   4.256  15.087  1.4894  0.1177  1.8071
11430TIP3   OH255704   5.559   4.308  15.416  0.3041  0.3707 -0.0927
11430TIP3    H155705   5.639   4.318  15.364 -0.5579 -0.7643 -1.7436
11430TIP3    H255706   5.569   4.369  15.489  2.2166  0.9729 -0.8106
11431TIP3   OH255707   6.400   3.999   5.475 -0.1951  0.2690  0.1466
11431TIP3    H155708   6.341   3.980   5.403  0.6046  0.3134 -0.5256
11431TIP3    H255709   6.460   3.924   5.479 -0.8203 -0.2019  1.3889
11432TIP3   OH255710   5.515   2.544   2.046 -0.2659 -0.6816  0.1530
11432TIP3    H155711   5.524   2.594   1.964 -0.8345 -1.8989 -0.6771
11432TIP3    H255712   5.522   2.610   2.115 -0.5045  0.4778 -0.8932
11433TIP3   OH255713   1.517   2.082  15.466  0.2704  0.3797  0.3985
11433TIP3    H155714   1.525   2.137  15.389 -1.6969 -0.3677 -0.4113
11433TIP3    H255715   1.428   2.048  15.462  1.0524 -2.0108  1.4318
11434TIP3   OH255716   2.002   3.652   0.393  0.0197  0.1696  0.2586
11434TIP3    H155717   2.013   3.714   0.465 -0.0248  0.6102 -0.1072
11434TIP3    H255718   1.924   3.683   0.347  0.9883  0.9144 -0.9746
11435TIP3   OH255719   2.100   5.205  12.828  0.4874 -0.6559 -0.5140
11435TIP3    H155720   2.032   5.169  12.770 -1.0675  0.8321  0.2997
11435TIP3    H255721   2.138   5.278  12.779  1.4861 -1.4176 -0.9222
11436TIP3   OH255722   2.580   5.197  16.289  0.2079 -0.0805 -0.1222
11436TIP3    H155723   2.606   5.222  16.200  0.2870 -1.4773 -0.5178
11436TIP3    H255724   2.545   5.277  16.327 -0.1603  0.4577 -1.5373
11437TIP3   OH255725   6.559   2.584  12.709  0.2146 -0.0724  0.5686
11437TIP3    H155726   6.571   2.610  12.800 -1.1613  0.1722  0.7122
11437TIP3    H255727   6.544   2.666  12.662  1.5677 -0.1359 -0.0098
11438TIP3   OH255728   5.068   4.441  13.199 -0.5126  0.4176  0.0705
11438TIP3    H155729   5.007   4.485  13.258 -0.4843  0.9917 -0.3166
11438TIP3    H255730   5.115   4.379  13.254 -1.2489  0.1641  0.4297
11439TIP3   OH255731   6.002   6.625  14.589 -0.1746  0.1886 -0.5255
11439TIP3    H155732   5.945   6.577  14.529 -0.6449 -0.7681  0.6480
11439TIP3    H255733   5.980   6.591  14.676  1.5680  0.4312  0.0548
11440TIP3   OH255734   5.036   4.788  13.663  0.2571  0.6411 -0.2914
11440TIP3    H155735   5.062   4.794  13.754 -0.5205 -0.0405 -0.0048
11440TIP3    H255736   5.016   4.695  13.650 -0.0326  0.7978 -1.0394
11441TIP3   OH255737   1.344   5.587  14.804 -0.6719 -0.6883  0.1592
11441TIP3    H155738   1.350   5.545  14.718  2.7132 -3.1667  1.3949
11441TIP3    H255739   1.407   5.659  14.801 -0.5639 -0.7622  0.5172
11442TIP3   OH255740   0.093   4.916   2.540  0.2704  0.0059 -0.5923
11442TIP3    H155741   0.056   4.962   2.465  0.6368 -0.4326 -1.0453
11442TIP3    H255742   0.186   4.939   2.538  0.1460  0.6265  0.1926
11443TIP3   OH255743   0.875   0.117  15.356 -0.0233 -0.6973  0.1584
11443TIP3    H155744   0.948   0.105  15.417 -0.8331 -0.8903  1.1218
11443TIP3    H255745   0.916   0.144  15.274  0.9359  2.6652  1.5701
11444TIP3   OH255746   5.476   3.124   1.547 -0.3636 -0.4258  0.0711
11444TIP3    H155747   5.461   3.147   1.455 -1.6716  0.5011  0.4824
11444TIP3    H255748   5.389   3.104   1.582 -0.2461  1.4993  1.6589
11445TIP3   OH255749   0.919   5.818   2.666 -0.0229  0.1419 -1.0337
11445TIP3    H155750   0.952   5.753   2.727  0.0195 -1.4911 -2.7061
11445TIP3    H255751   0.885   5.888   2.722  4.3298  1.0713  0.8508
11446TIP3   OH255752   3.682   6.087  16.178 -0.1156  0.2890  0.4821
11446TIP3    H155753   3.726   6.103  16.095 -1.4814  1.7272 -0.0056
11446TIP3    H255754   3.718   6.003  16.208 -0.0602 -0.5846 -1.8490
11447TIP3   OH255755   1.791   0.187   3.727 -0.2213 -0.1312 -0.5924
11447TIP3    H155756   1.788   0.108   3.781  1.4158  0.0056 -0.2433
11447TIP3    H255757   1.832   0.252   3.784 -0.5940  0.6768 -1.2348
11448TIP3   OH255758   2.850   1.749  14.811 -0.5010 -0.2407  0.0021
11448TIP3    H155759   2.898   1.690  14.869 -0.0031 -0.0865 -0.2506
11448TIP3    H255760   2.917   1.803  14.770 -0.8886 -0.0170 -0.3484
11449TIP3   OH255761   3.836   5.947   3.194  0.8432 -0.7316 -0.4261
11449TIP3    H155762   3.901   6.017   3.187 -0.3742  0.6071  1.0022
11449TIP3    H255763   3.776   5.975   3.263 -1.2139 -1.9484 -1.5781
11450TIP3   OH255764   0.978   6.332   1.567 -0.7002 -0.1183  0.0358
11450TIP3    H155765   1.028   6.401   1.525  0.9933  0.8504  3.3737
11450TIP3    H255766   0.888   6.366   1.569 -0.2683  1.0847 -0.1354
11451TIP3   OH255767   5.103   1.570  14.248  0.2303  0.3491  0.0901
11451TIP3    H155768   5.083   1.555  14.156  0.4941  1.0398 -0.0809
11451TIP3    H255769   5.196   1.593  14.249 -0.1662  2.0433  0.3254
11452TIP3   OH255770   5.658   1.183   6.922 -0.3840 -0.3873  0.5518
11452TIP3    H155771   5.618   1.138   6.847 -0.0389  0.7310 -0.3408
11452TIP3    H255772   5.749   1.152   6.923 -0.5197 -0.7828  0.8267
11453TIP3   OH255773   5.955   3.182  13.987 -0.4776 -0.3175  0.0717
11453TIP3    H155774   5.952   3.135  13.904  0.8427 -1.5814  0.7018
11453TIP3    H255775   6.030   3.240  13.980  0.3273 -1.2466  0.7730
11454TIP3   OH255776   4.834   2.638  15.594  0.0921  0.4492 -0.1348
11454TIP3    H155777   4.739   2.635  15.605  0.2461 -0.2651  1.1461
11454TIP3    H255778   4.855   2.732  15.592 -0.5067  0.6097  0.8513
11455TIP3   OH255779   2.864   2.586   1.152 -0.6602 -0.0881  0.4084
11455TIP3    H155780   2.786   2.637   1.129 -0.0164  1.1351  0.8496
11455TIP3    H255781   2.914   2.582   1.071  1.1100  3.3354  1.1134
11456TIP3   OH255782   0.622   0.363   3.966  0.1537  0.1331 -0.0656
11456TIP3    H155783   0.561   0.307   3.918 -0.9009 -0.5869  1.9915
11456TIP3    H255784   0.697   0.306   3.985  0.6301  0.4567 -0.9523
11457TIP3   OH255785   6.685   6.153  10.673  0.0074  0.5351 -0.3661
11457TIP3    H155786   6.735   6.093  10.729  0.6592  1.5005  0.1115
11457TIP3    H255787   6.745   6.175  10.602 -0.7900 -0.6211 -1.4368
11458TIP3   OH255788   2.222   1.300   3.676 -0.0435 -0.9515  0.6786
11458TIP3    H155789   2.142   1.295   3.624  0.2248 -0.6695  0.2244
11458TIP3    H255790   2.276   1.227   3.646  0.9335  0.3502 -0.8843
11459TIP3   OH255791   2.104   4.293  15.116  0.2187  0.5171 -0.1448
11459TIP3    H155792   2.117   4.279  15.210  0.1037  2.1530  0.1501
11459TIP3    H255793   2.192   4.289  15.079  0.2378 -0.4067 -0.0240
11460TIP3   OH255794   5.655   0.700   1.827  0.4680  0.1690 -0.0616
11460TIP3    H155795   5.731   0.757   1.816  1.3340 -0.8624  0.3621
11460TIP3    H255796   5.689   0.625   1.876 -0.7770 -0.4242 -0.0752
11461TIP3   OH255797   2.923   3.232   2.658  0.7221  0.4597 -0.0508
11461TIP3    H155798   2.988   3.191   2.716 -1.4230 -2.2051  0.6779
11461TIP3    H255799   2.895   3.161   2.600 -0.7467  1.8080 -1.0670
11462TIP3   OH255800   2.931   2.090   1.416 -0.0752 -0.1055 -0.3616
11462TIP3    H155801   2.994   2.129   1.476 -1.4650  1.3625  0.1939
11462TIP3    H255802   2.881   2.028   1.469  0.4670 -0.8308 -0.6690
11463TIP3   OH255803   2.429   4.757  12.881  0.3958 -0.0099 -0.3385
11463TIP3    H155804   2.375   4.834  12.860 -0.1862 -0.5011 -0.6923
11463TIP3    H255805   2.473   4.736  12.800 -1.7261 -1.8084 -1.1299
11464TIP3   OH255806   2.501   6.395   4.262  0.2307 -0.2842 -0.4406
11464TIP3    H155807   2.491   6.487   4.235  1.7041 -0.3233 -1.2879
11464TIP3    H255808   2.457   6.389   4.346 -0.2089  1.1187 -0.5445
11465TIP3   OH255809   2.363   2.193  10.897  0.3190 -0.2391 -0.3716
11465TIP3    H155810   2.355   2.284  10.867  0.1161  0.8297  2.6186
11465TIP3    H255811   2.454   2.186  10.927  0.0603 -0.7130  0.3165
11466TIP3   OH255812   3.681   3.818  14.900 -0.3939 -0.1694  0.5652
11466TIP3    H155813   3.702   3.789  14.989 -0.4631  1.8019  1.2752
11466TIP3    H255814   3.762   3.857  14.867  0.1133 -2.3139 -0.9047
11467TIP3   OH255815   3.598   5.074   5.144  0.4071  0.1623  0.2553
11467TIP3    H155816   3.597   5.170   5.148 -0.7637  0.1118  2.3625
11467TIP3    H255817   3.509   5.048   5.164  0.2898 -1.3992 -1.9332
11468TIP3   OH255818   0.860   1.501   5.388 -0.3805 -0.3608 -0.3374
11468TIP3    H155819   0.851   1.424   5.445 -0.5999 -0.0624  0.0412
11468TIP3    H255820   0.899   1.467   5.308 -0.7525 -0.9190 -0.2906
11469TIP3   OH255821   3.479   1.339   5.886  0.2760  0.0757  0.0020
11469TIP3    H155822   3.405   1.305   5.837  0.3375  0.3946 -0.3079
11469TIP3    H255823   3.518   1.261   5.927 -0.9724  0.0548  1.2073
11470TIP3   OH255824   3.027   3.233   3.899 -0.0188 -0.6467  0.0393
11470TIP3    H155825   3.022   3.138   3.910  0.7675 -0.5644  1.2900
11470TIP3    H255826   3.064   3.265   3.981  0.5695  0.6590 -0.6989
11471TIP3   OH255827   5.183   1.310  16.518 -0.0919 -0.0077  0.4741
11471TIP3    H155828   5.130   1.381  16.484  0.8186  0.3192 -0.3046
11471TIP3    H255829   5.207   1.338  16.607  1.3788  1.3307 -0.2848
11472TIP3   OH255830   5.762   6.060   0.350 -0.6910 -0.0204 -0.3986
11472TIP3    H155831   5.793   5.970   0.356  2.7499  1.1124  1.1133
11472TIP3    H255832   5.715   6.075   0.432  0.6857  0.1825  0.3675
11473TIP3   OH255833   2.180   6.345  14.335 -0.7304 -0.0353 -0.2214
11473TIP3    H155834   2.251   6.314  14.391 -0.2007  2.3668  0.5686
11473TIP3    H255835   2.167   6.275  14.271  2.4569 -0.5137 -0.5150
11474TIP3   OH255836   5.219   4.308   0.722 -0.5279  0.1852 -0.6281
11474TIP3    H155837   5.301   4.291   0.768 -1.2331  2.6549  1.8746
11474TIP3    H255838   5.172   4.225   0.727  0.0752 -0.1091  1.9866
11475TIP3   OH255839   5.276   2.553  13.417 -0.2570 -0.4943 -0.3507
11475TIP3    H155840   5.344   2.521  13.476 -0.9678  0.6907  1.2028
11475TIP3    H255841   5.218   2.478  13.404  0.1255 -0.8809  0.1384
11476TIP3   OH255842   4.589   0.465  14.162 -0.1044 -0.4866 -0.2581
11476TIP3    H155843   4.524   0.397  14.146  0.6844 -0.9449 -1.6245
11476TIP3    H255844   4.537   0.544  14.177 -0.9991 -1.0969 -0.0531
11477TIP3   OH255845   6.082   5.396  13.742  0.4880  0.1958 -0.1103
11477TIP3    H155846   6.163   5.415  13.790  0.1129 -0.3967  0.7841
11477TIP3    H255847   6.094   5.307  13.708  0.0323 -0.0765  0.4256
11478TIP3   OH255848   4.811   1.095  11.182  0.1430  0.2843  0.3991
11478TIP3    H155849   4.890   1.139  11.150 -0.6906  1.2227 -0.4468
11478TIP3    H255850   4.804   1.016  11.129  1.8731 -1.1865  2.1978
11479TIP3   OH255851   3.483   2.273   3.122  0.5458 -0.7842 -0.3366
11479TIP3    H155852   3.388   2.259   3.124  0.2449  1.0003 -0.1935
11479TIP3    H255853   3.509   2.252   3.033  0.2922 -2.7481  0.0142
11480TIP3   OH255854   2.552   1.579  17.026  0.1985  0.5569 -0.4104
11480TIP3    H155855   2.483   1.629  16.981  0.1479  1.1986  0.3491
11480TIP3    H255856   2.515   1.561  17.113  0.2457 -0.7728 -0.6514
11481TIP3   OH255857   3.873   1.606   3.259  0.1432  0.3128  0.0076
11481TIP3    H155858   3.803   1.665   3.231  0.9081  1.6502  0.7938
11481TIP3    H255859   3.875   1.614   3.354  3.5172  3.0272 -0.0921
11482TIP3   OH255860   2.256   0.177  11.754  0.7618 -0.1798 -0.4077
11482TIP3    H155861   2.317   0.204  11.823 -0.6201  1.5606  0.2185
11482TIP3    H255862   2.250   0.252  11.696  0.8119 -1.1122 -1.6668
11483TIP3   OH255863   5.978   0.342   6.470 -0.2207 -0.2658 -0.6111
11483TIP3    H155864   6.002   0.268   6.414 -1.8322 -1.1624 -0.1675
11483TIP3    H255865   5.900   0.379   6.430 -0.3751  0.1718  0.0657
11484TIP3   OH255866   5.667   3.091   3.634 -0.0114 -0.1273 -0.3508
11484TIP3    H155867   5.760   3.068   3.634 -0.4777 -2.2744 -1.1453
11484TIP3    H255868   5.662   3.169   3.689  2.1085 -0.5340  0.5414
11485TIP3   OH255869   4.101   1.494  13.248  0.2763 -0.7434  0.0887
11485TIP3    H155870   4.072   1.404  13.231  1.4459 -1.3216  1.0303
11485TIP3    H255871   4.082   1.541  13.166  0.8275 -2.1600 -0.8887
11486TIP3   OH255872   5.837   2.056   1.240 -0.1912  0.9224  0.7032
11486TIP3    H155873   5.858   2.065   1.333 -0.1906  0.6703  0.7273
11486TIP3    H255874   5.919   2.030   1.199 -0.5852 -0.7580  0.8976
11487TIP3   OH255875   0.481   1.704   1.404 -0.2681  0.0349  0.0454
11487TIP3    H155876   0.506   1.766   1.472 -2.3107  0.2647  0.6606
11487TIP3    H255877   0.522   1.736   1.324  0.1624  1.1585  0.7066
11488TIP3   OH255878   3.595   6.548  11.990 -0.1813 -1.0121  0.4374
11488TIP3    H155879   3.689   6.564  12.000 -0.4851  1.2419  0.1558
11488TIP3    H255880   3.584   6.530  11.897 -0.4089  2.6107 -0.4013
11489TIP3   OH255881   0.726   3.088   1.316  0.3137  0.3243 -0.0278
11489TIP3    H155882   0.767   3.165   1.276  0.0142 -0.0234 -1.0287
11489TIP3    H255883   0.770   3.014   1.276 -0.3860 -0.0403 -0.1337
11490TIP3   OH255884   6.261   6.203  14.958 -0.2433 -0.3183  0.1060
11490TIP3    H155885   6.267   6.204  14.862 -2.3165 -1.4314 -0.0930
11490TIP3    H255886   6.209   6.281  14.979 -1.5759 -1.1893  0.1225
11491TIP3   OH255887   5.654   5.173   3.611  0.3257  0.1600 -0.6938
11491TIP3    H155888   5.746   5.192   3.625  0.3545  0.0046 -0.6669
11491TIP3    H255889   5.609   5.256   3.624  0.5720  0.4629 -1.7066
11492TIP3   OH255890   4.401   4.522  11.344  0.3826 -0.1742  0.0013
11492TIP3    H155891   4.416   4.615  11.360  0.8614  0.2771 -2.6573
11492TIP3    H255892   4.470   4.478  11.394 -0.3700  0.7687  1.9968
11493TIP3   OH255893   0.272   0.627   0.620 -0.2122 -0.1731  0.1887
11493TIP3    H155894   0.309   0.707   0.659  0.0498 -0.2920  0.1881
11493TIP3    H255895   0.343   0.593   0.565 -0.3096 -0.4306  0.2234
11494TIP3   OH255896   1.065   1.918  16.076 -0.0702 -0.2686 -0.4154
11494TIP3    H155897   1.024   1.933  15.991 -0.6274 -0.6586 -0.2192
11494TIP3    H255898   1.001   1.950  16.140 -0.4161 -1.5859 -0.0729
11495TIP3   OH255899   5.769   5.918   5.680  0.0125  0.2472 -0.5031
11495TIP3    H155900   5.722   5.907   5.598 -0.3077 -0.5745 -0.2182
11495TIP3    H255901   5.709   5.968   5.736 -0.9678 -1.6261  0.1947
11496TIP3   OH255902   3.227   3.300   3.699  0.0095  0.5990 -0.3936
11496TIP3    H155903   3.248   3.208   3.713  0.3406  0.4383 -1.7679
11496TIP3    H255904   3.145   3.314   3.746  0.3479 -0.2006  0.4451
11497TIP3   OH255905   3.141   6.073  13.308  0.1583  0.0405  0.1049
11497TIP3    H155906   3.206   6.081  13.238 -0.0058 -1.4301 -0.2504
11497TIP3    H255907   3.174   6.129  13.378  1.1677  0.2721 -0.5343
11498TIP3   OH255908   3.782   1.452  16.325 -0.1417 -0.0249  0.0905
11498TIP3    H155909   3.839   1.508  16.273  1.1425 -0.7042  0.7066
11498TIP3    H255910   3.790   1.366  16.285  1.8819 -0.8675  2.0274
11499TIP3   OH255911   1.735   3.421  14.167 -0.2509 -0.2303  0.6123
11499TIP3    H155912   1.691   3.344  14.202  0.3254 -0.3680  1.0581
11499TIP3    H255913   1.734   3.484  14.240  3.6556 -1.5812  2.0882
11500TIP3   OH255914   1.830   4.574  11.337 -0.6138 -0.0443 -0.1441
11500TIP3    H155915   1.824   4.503  11.401  0.2935  0.0242  0.0318
11500TIP3    H255916   1.880   4.536  11.264  1.1302  0.8054  0.5548
11501TIP3   OH255917   1.921   1.461  15.158  0.1527  0.0471  0.0964
11501TIP3    H155918   1.964   1.430  15.237  0.8723  1.1373  0.1488
11501TIP3    H255919   1.989   1.458  15.090 -1.1153 -3.5175 -1.2373
11502TIP3   OH255920   1.243   4.430  15.288 -0.0464  0.1833 -0.2364
11502TIP3    H155921   1.208   4.362  15.231  0.7741 -2.0550  1.7277
11502TIP3    H255922   1.338   4.428  15.272 -0.1285  2.0065 -1.2406
11503TIP3   OH255923   0.121   1.163   3.988  0.5605  0.1302  0.1780
11503TIP3    H155924   0.079   1.077   3.978 -1.2377  0.5559  2.9989
11503TIP3    H255925   0.093   1.212   3.911 -1.7773 -0.5705  0.4968
11504TIP3   OH255926   6.721   2.628  16.443 -0.8163 -0.0597 -0.8792
11504TIP3    H155927   6.802   2.581  16.423 -0.9785  0.0652 -1.8932
11504TIP3    H255928   6.662   2.608  16.370 -0.8450  1.8048 -1.4330
11505TIP3   OH255929   1.799   1.020   0.265  0.2557 -0.3066  0.3244
11505TIP3    H155930   1.868   1.083   0.244 -0.7110  1.1746  1.3961
11505TIP3    H255931   1.814   0.998   0.357  0.4813 -1.5701  0.0146
11506TIP3   OH255932   4.947   2.857   3.849 -0.3069 -0.1456 -0.1067
11506TIP3    H155933   4.929   2.881   3.940 -0.7822  0.7164 -0.4076
11506TIP3    H255934   4.875   2.799   3.824 -0.3319 -0.1535 -0.0153
11507TIP3   OH255935   0.807   4.945  11.613  0.1849  0.4478  0.6244
11507TIP3    H155936   0.793   4.854  11.587 -0.4085  0.4462  0.9446
11507TIP3    H255937   0.744   4.960  11.684 -0.8107  1.5729 -0.4579
11508TIP3   OH255938   1.116   6.398  16.317  0.2314 -0.5029 -0.0345
11508TIP3    H155939   1.151   6.322  16.271  1.7194 -0.1296  0.4301
11508TIP3    H255940   1.131   6.379  16.409 -0.7145 -0.2639  0.1802
11509TIP3   OH255941   0.651   6.310  13.858 -0.0081 -0.2153  0.0304
11509TIP3    H155942   0.656   6.218  13.834 -1.5137 -0.5604  0.9652
11509TIP3    H255943   0.586   6.347  13.798 -1.0493 -0.2759  1.0811
11510TIP3   OH255944   4.965   6.589  12.493 -0.4561 -0.6982 -0.0339
11510TIP3    H155945   4.947   6.631  12.576 -1.0613  0.6284 -0.8102
11510TIP3    H255946   4.995   6.659  12.436  2.8267 -2.0147 -0.1694
11511TIP3   OH255947   5.822   4.912  13.248  0.1182 -0.3853 -0.0306
11511TIP3    H155948   5.840   4.855  13.174 -0.9146 -0.0020 -0.6031
11511TIP3    H255949   5.804   4.998  13.209 -1.6757 -0.4638  0.5314
11512TIP3   OH255950   5.071   2.517   2.723 -0.2792 -0.1189  0.5437
11512TIP3    H155951   5.161   2.499   2.750 -0.2153 -0.4863  0.0897
11512TIP3    H255952   5.060   2.611   2.738  0.7011  0.2681 -0.9198
11513TIP3   OH255953   6.329   3.348   1.919 -0.3129 -0.3954 -1.0060
11513TIP3    H155954   6.241   3.384   1.927 -0.6952 -1.5689  0.5699
11513TIP3    H255955   6.384   3.407   1.971 -0.5352 -0.7307 -0.3699
11514TIP3   OH255956   1.998   4.253  14.211 -0.3290  0.0402 -0.2598
11514TIP3    H155957   2.018   4.346  14.202 -0.2789  0.0088 -0.4606
11514TIP3    H255958   1.980   4.223  14.122  0.5861 -0.3592 -0.3241
11515TIP3   OH255959   1.479   3.575  14.770 -0.7305  0.4575  0.4163
11515TIP3    H155960   1.472   3.490  14.814  0.8193 -0.2710 -0.6664
11515TIP3    H255961   1.518   3.633  14.836  0.0629 -0.2085  0.5477
11516TIP3   OH255962   5.597   2.042   3.171  0.3697  0.0540  0.0472
11516TIP3    H155963   5.668   2.043   3.236 -0.5464 -1.0794  1.1215
11516TIP3    H255964   5.571   1.950   3.166  0.3098  0.1380 -1.8467
11517TIP3   OH255965   6.118   2.781   5.109 -0.1640  0.2078  0.1131
11517TIP3    H155966   6.045   2.839   5.132 -1.3533 -1.3525  0.4948
11517TIP3    H255967   6.078   2.695   5.100  1.4521 -0.4809 -0.9636
11518TIP3   OH255968   3.327   4.418   5.057  0.6646 -0.0765 -0.3921
11518TIP3    H155969   3.337   4.506   5.095  2.5804 -0.6856  0.6514
11518TIP3    H255970   3.314   4.433   4.964  1.6355  1.3311 -0.3322
11519TIP3   OH255971   6.124   6.408   5.459  0.0871 -0.4127  0.1177
11519TIP3    H155972   6.087   6.334   5.507 -0.8223  0.8428  1.4486
11519TIP3    H255973   6.198   6.438   5.512  1.0907 -0.9551 -0.9283
11520TIP3   OH255974   5.446   3.096  13.737  0.1437  0.1205 -0.2828
11520TIP3    H155975   5.394   3.094  13.817 -0.8895  0.3129 -0.9372
11520TIP3    H255976   5.526   3.048  13.759  0.1507  0.7258  1.0490
11521TIP3   OH255977   0.707   2.934   0.682  0.2592  0.4427  0.6056
11521TIP3    H155978   0.788   2.932   0.632  0.1764  0.4044  0.4714
11521TIP3    H255979   0.640   2.962   0.619  0.2788  1.1090  0.8746
11522TIP3   OH255980   3.146   1.739   3.369 -0.1908 -0.0159 -0.0537
11522TIP3    H155981   3.164   1.770   3.280 -0.5017 -0.2576 -0.2017
11522TIP3    H255982   3.225   1.763   3.419 -0.3928  0.9427 -0.1782
11523TIP3   OH255983   4.944   1.160   5.705 -0.1607  0.5263 -0.0810
11523TIP3    H155984   4.995   1.241   5.716  2.6560 -0.8427 -1.7751
11523TIP3    H255985   4.997   1.093   5.749 -0.8246 -0.8740 -1.3526
11524TIP3   OH255986   0.784   6.509  10.910  0.1152  0.6004 -0.4442
11524TIP3    H155987   0.710   6.462  10.949  0.4749  0.6076  0.2719
11524TIP3    H255988   0.788   6.478  10.820 -0.5181  0.3053 -0.3722
11525TIP3   OH255989   6.658   2.340  13.075  0.4570  0.4173 -0.3917
11525TIP3    H155990   6.632   2.321  13.166 -0.4989  0.9068 -0.5487
11525TIP3    H255991   6.752   2.320  13.072  0.3492 -0.2758  0.5191
11526TIP3   OH255992   1.213   0.925   0.808 -0.3458 -0.0479  0.1391
11526TIP3    H155993   1.200   0.872   0.887  0.9327 -0.4578  0.0885
11526TIP3    H255994   1.307   0.925   0.794 -0.6260 -1.4156 -2.3630
11527TIP3   OH255995   0.846   4.370  11.276 -0.3609  0.2006 -0.1540
11527TIP3    H155996   0.934   4.383  11.241 -0.6012 -0.8144 -1.2053
11527TIP3    H255997   0.792   4.434  11.229 -0.6971 -1.2105 -1.7992
11528TIP3   OH255998   5.646   2.390   1.775 -0.2623  0.2766  0.7511
11528TIP3    H155999   5.634   2.480   1.745 -0.1015  0.0699  0.0595
11528TIP3    H256000   5.693   2.399   1.858 -0.9141  0.8589  1.0757
11529TIP3   OH256001   4.850   5.179  16.861  0.2322  0.1378  0.2586
11529TIP3    H156002   4.906   5.106  16.886  0.0761 -0.0367  0.1001
11529TIP3    H256003   4.839   5.230  16.941 -0.1832 -0.3614  0.5248
11530TIP3   OH256004   6.667   1.144   5.523 -1.1270 -0.2342 -0.4078
11530TIP3    H156005   6.611   1.067   5.519 -1.8195  0.2862 -1.0097
11530TIP3    H256006   6.609   1.218   5.505 -0.2509  0.3188 -1.0867
11531TIP3   OH256007   4.707   6.516   3.166 -0.1960 -0.1535 -0.8769
11531TIP3    H156008   4.796   6.551   3.161 -0.6303  0.9575 -1.1681
11531TIP3    H256009   4.653   6.591   3.192 -1.0603 -0.7940 -0.7727
11532TIP3   OH256010   1.970   3.268  15.156  0.0280  0.3570 -0.1647
11532TIP3    H156011   1.931   3.206  15.218  0.6219  0.6244  0.4911
11532TIP3    H256012   2.023   3.326  15.211  1.1341  0.1686 -1.0052
11533TIP3   OH256013   3.621   6.763   1.945 -0.5281  0.3569  0.2664
11533TIP3    H156014   3.592   6.702   1.877  0.3524 -0.3297  0.4830
11533TIP3    H256015   3.651   6.840   1.896 -0.5330  0.1347 -0.0920
11534TIP3   OH256016   5.368   4.758  14.979 -0.3144 -0.1197  0.6020
11534TIP3    H156017   5.392   4.824  14.913  2.4415  0.6059  2.1530
11534TIP3    H256018   5.293   4.796  15.025 -0.4556  0.6952 -0.2672
11535TIP3   OH256019   2.596   6.615   3.601  0.0271  0.0969 -0.2921
11535TIP3    H156020   2.669   6.661   3.641 -0.0841 -0.6428  0.8067
11535TIP3    H256021   2.544   6.584   3.675 -0.7156 -0.4842 -1.0371
11536TIP3   OH256022   1.843   6.330   0.035 -0.7217 -0.1875  0.3367
11536TIP3    H156023   1.833   6.423   0.019 -2.0913 -0.5099 -0.9060
11536TIP3    H256024   1.756   6.301   0.064 -0.5644 -1.2402 -0.1952
11537TIP3   OH256025   2.391   6.013  13.083 -0.1321 -0.2594 -0.0112
11537TIP3    H156026   2.324   6.000  13.150  1.0142  0.7058  1.3894
11537TIP3    H256027   2.387   6.107  13.063 -0.8383 -0.6211 -1.7649
11538TIP3   OH256028   1.755   0.803   2.575 -0.4860 -0.1537 -0.0284
11538TIP3    H156029   1.678   0.747   2.572 -0.6190 -0.3968  3.5721
11538TIP3    H256030   1.829   0.744   2.590 -0.3835  0.4163  1.9623
11539TIP3   OH256031   5.505   3.717   3.007  0.0762 -0.5355  0.0750
11539TIP3    H156032   5.520   3.640   2.953  0.6927 -0.5504  0.2603
11539TIP3    H256033   5.496   3.789   2.944  0.5264 -0.5950 -0.0598
11540TIP3   OH256034   6.270   5.472  11.250 -0.4746  0.4159  0.1357
11540TIP3    H156035   6.314   5.465  11.166  0.7758 -0.7816  0.8400
11540TIP3    H256036   6.290   5.390  11.295  0.6100  1.8014  2.3941
11541TIP3   OH256037   2.297   2.830  13.857  0.1161  0.1755  0.3711
11541TIP3    H156038   2.318   2.842  13.765  0.8470 -0.2215  0.4738
11541TIP3    H256039   2.372   2.868  13.904 -1.1333  2.1430  0.8569
11542TIP3   OH256040   2.085   4.743   5.063 -0.3893  0.3626  0.1565
11542TIP3    H156041   2.115   4.686   4.992 -2.6580 -2.5703  1.3462
11542TIP3    H256042   2.165   4.765   5.111  0.6336 -1.5112 -0.6031
11543TIP3   OH256043   1.532   0.767  16.757 -0.0689  0.1012  0.5776
11543TIP3    H156044   1.591   0.696  16.733  0.8666  0.5024  1.6134
11543TIP3    H256045   1.589   0.838  16.787 -1.0626  0.3557  1.9911
11544TIP3   OH256046   2.419   1.678  15.600 -0.2244  0.4685 -0.2192
11544TIP3    H156047   2.367   1.604  15.628  0.0125 -0.0363 -1.0760
11544TIP3    H256048   2.405   1.683  15.505  0.9984  0.5289 -0.4129
11545TIP3   OH256049   2.044   6.045   4.411  0.0978 -0.4430 -0.1918
11545TIP3    H156050   1.999   5.981   4.356 -0.8395  1.0257 -1.1987
11545TIP3    H256051   1.996   6.042   4.494 -0.6077 -0.3403 -0.5812
11546TIP3   OH256052   0.561   3.557   0.015 -0.3405 -0.0847 -0.2612
11546TIP3    H156053   0.623   3.500   0.060 -1.2907  1.3623  3.2056
11546TIP3    H256054   0.475   3.528   0.045 -1.2482 -0.3391 -2.8774
11547TIP3   OH256055   4.703   2.259   5.064 -0.2796 -0.5465 -0.1017
11547TIP3    H156056   4.697   2.349   5.096 -2.3785 -0.4154 -0.6829
11547TIP3    H256057   4.739   2.209   5.138 -1.8002  0.3131  1.2925
11548TIP3   OH256058   0.467   4.716  14.959 -0.2888 -0.0122 -0.7926
11548TIP3    H156059   0.427   4.802  14.961 -1.0557 -0.2349 -3.3055
11548TIP3    H256060   0.442   4.676  15.043 -3.6882  0.6172 -1.3553
11549TIP3   OH256061   1.603   1.479   2.467  0.2183 -0.1878 -0.3134
11549TIP3    H156062   1.661   1.415   2.426 -0.9520  0.1909 -2.6879
11549TIP3    H256063   1.576   1.437   2.549  1.3282 -1.7028 -0.6712
11550TIP3   OH256064   0.782   5.920   2.449 -0.2588  0.6027 -0.1266
11550TIP3    H156065   0.812   5.882   2.531 -0.9571 -1.4817 -0.7753
11550TIP3    H256066   0.689   5.900   2.445 -0.2611  0.7505 -1.3804
11551TIP3   OH256067   4.714   0.985  13.361 -0.5133 -0.1364 -0.0049
11551TIP3    H156068   4.716   1.030  13.445 -0.9192 -0.9344  0.4368
11551TIP3    H256069   4.652   0.913  13.373 -1.2524  0.2632 -1.2533
11552TIP3   OH256070   0.994   5.511  14.867  0.2344  0.1924  0.1162
11552TIP3    H156071   1.055   5.500  14.940  0.6394  0.2887 -0.2036
11552TIP3    H256072   1.013   5.598  14.832  0.6113 -0.1665 -0.6126
11553TIP3   OH256073   4.486   3.459   3.332 -0.5457 -0.4235 -0.0919
11553TIP3    H156074   4.514   3.481   3.421  1.8501  0.4814 -0.9884
11553TIP3    H256075   4.489   3.363   3.330 -1.3725 -0.4925  0.9957
11554TIP3   OH256076   0.734   1.544  13.201 -0.0868 -0.1072  0.6073
11554TIP3    H156077   0.787   1.611  13.158  0.8174 -1.4557 -0.4899
11554TIP3    H256078   0.723   1.575  13.291  1.3629  0.9036  0.4615
11555TIP3   OH256079   3.618   3.843  15.834 -0.7363 -0.0141  0.0540
11555TIP3    H156080   3.575   3.793  15.904  0.7244  0.1541  1.1090
11555TIP3    H256081   3.610   3.935  15.862  2.0061 -0.0683  1.3637
11556TIP3   OH256082   6.227   4.818  16.024 -0.1294  0.3614  0.1601
11556TIP3    H156083   6.136   4.841  16.042 -0.9977 -1.5663 -1.5257
11556TIP3    H256084   6.224   4.729  15.990  2.6294 -0.6056  2.1006
11557TIP3   OH256085   2.386   2.474  13.336  0.4138 -0.0971 -0.0055
11557TIP3    H156086   2.376   2.383  13.365  0.0683  0.2130  0.8838
11557TIP3    H256087   2.461   2.473  13.277  0.0714 -1.0591 -0.4313
11558TIP3   OH256088   1.396   5.561   4.359 -0.2767 -0.1230  0.1429
11558TIP3    H156089   1.458   5.492   4.334 -0.5923 -0.3317 -0.0702
11558TIP3    H256090   1.355   5.588   4.277 -1.2764 -0.7755  0.4120
11559TIP3   OH256091   5.716   3.387  11.916  0.1973 -0.1110  0.1884
11559TIP3    H156092   5.748   3.476  11.902  1.0352 -0.4621 -0.1953
11559TIP3    H256093   5.620   3.395  11.910  0.2746  0.7007 -0.1522
11560TIP3   OH256094   5.965   3.025   5.427  0.3557 -0.3006  0.4533
11560TIP3    H156095   5.874   3.000   5.412  0.1998 -0.0397  0.9372
11560TIP3    H256096   6.008   3.013   5.342  0.2626 -2.0653  0.6233
11561TIP3   OH256097   3.001   3.461   3.198  0.3218 -0.3635  0.2618
11561TIP3    H156098   2.913   3.448   3.164  0.5651 -0.2497 -0.4267
11561TIP3    H256099   3.058   3.420   3.133  0.6884 -1.9650  1.5313
11562TIP3   OH256100   1.943   0.917   3.780  0.5254 -0.2688 -0.1909
11562TIP3    H156101   1.970   0.854   3.846 -1.4380 -0.8876  0.1078
11562TIP3    H256102   1.920   0.864   3.703 -1.0686  0.0172  0.0388
11563TIP3   OH256103   5.430   6.105  12.769  0.4307  0.2758  0.3358
11563TIP3    H156104   5.357   6.164  12.748  0.3348 -0.0486 -0.2452
11563TIP3    H256105   5.497   6.126  12.704  0.6627  0.2140  0.5535
11564TIP3   OH256106   3.986   6.626   4.902 -0.1863  0.0139  0.0816
11564TIP3    H156107   3.932   6.547   4.908 -0.4687  0.1331 -0.8322
11564TIP3    H256108   4.014   6.629   4.811 -0.1875  0.9784  0.1054
11565TIP3   OH256109   2.408   3.635  12.739  0.1394 -1.0149 -0.2441
11565TIP3    H156110   2.407   3.542  12.717  0.9233 -0.5056 -2.6686
11565TIP3    H256111   2.482   3.671  12.691  0.2246  0.8010  1.1192
11566TIP3   OH256112   2.132   3.564  14.381 -0.3506  0.5359  0.2713
11566TIP3    H156113   2.052   3.591  14.426 -0.3942 -0.1939  0.6480
11566TIP3    H256114   2.108   3.561  14.289 -1.3558 -1.6311  0.5616
11567TIP3   OH256115   2.023   2.649  11.751 -0.0967  0.0274  0.2078
11567TIP3    H156116   2.113   2.663  11.720  0.0078  0.4326  0.6957
11567TIP3    H256117   1.988   2.737  11.765 -0.8817 -0.0948 -0.8486
11568TIP3   OH256118   5.196   4.042   5.883  0.0000 -0.7011 -0.3276
11568TIP3    H156119   5.121   4.040   5.823  0.5453 -2.5026 -1.0444
11568TIP3    H256120   5.258   4.103   5.843 -1.7060  2.2231  1.1867
11569TIP3   OH256121   1.250   1.106   4.382  0.4652  0.0401 -0.6353
11569TIP3    H156122   1.282   1.067   4.301  1.6143  0.1936 -0.2640
11569TIP3    H256123   1.293   1.191   4.388  0.3413  0.0585  0.1067
11570TIP3   OH256124   2.754   3.526  14.218  0.0236  0.1975 -0.1957
11570TIP3    H156125   2.686   3.565  14.162  1.0161 -2.0192 -3.2296
11570TIP3    H256126   2.756   3.434  14.193  3.1956 -0.1195  0.7212
11571TIP3   OH256127   5.399   4.354  16.440  0.5045 -1.0092  0.1948
11571TIP3    H156128   5.345   4.374  16.364  1.1064 -1.0244 -0.2435
11571TIP3    H256129   5.366   4.413  16.508  0.4304 -0.4844 -0.2824
11572TIP3   OH256130   1.623   0.964  16.221  0.4054 -0.4925 -0.4916
11572TIP3    H156131   1.603   0.870  16.228  2.2731 -0.8876  0.2742
11572TIP3    H256132   1.701   0.975  16.276 -1.2702  2.0286  1.6216
11573TIP3   OH256133   1.696   1.052  14.446 -0.2231 -0.1879 -0.0866
11573TIP3    H156134   1.674   1.086  14.533  0.8820  1.9013 -0.5631
11573TIP3    H256135   1.617   1.067  14.394 -0.1638  0.5545  0.0310
11574TIP3   OH256136   6.723   2.985   2.764 -0.4768  0.0857  0.2044
11574TIP3    H156137   6.722   2.920   2.694  2.1187  0.3659 -0.1917
11574TIP3    H256138   6.631   3.010   2.775 -1.1092 -0.9295 -2.1734
11575TIP3   OH256139   0.536   5.777   4.311  0.1707 -0.3934  0.4552
11575TIP3    H156140   0.589   5.847   4.350  0.7841  0.3956 -1.6754
11575TIP3    H256141   0.452   5.782   4.357  0.1735  1.8206  0.3135
11576TIP3   OH256142   1.143   3.893  11.534  0.1055  0.4415  0.1814
11576TIP3    H156143   1.191   3.975  11.541  0.9943  0.0352 -0.8761
11576TIP3    H256144   1.098   3.899  11.450 -1.3631  0.6228  0.9521
11577TIP3   OH256145   2.738   1.203   5.498  0.2960 -0.1647 -0.2165
11577TIP3    H156146   2.670   1.149   5.538 -1.1787 -0.3223 -2.7707
11577TIP3    H256147   2.819   1.154   5.512  0.0802  0.2207  3.2478
11578TIP3   OH256148   4.095   3.303  10.709 -0.2038 -0.2065 -0.4321
11578TIP3    H156149   4.001   3.316  10.725 -0.2884  0.1808 -1.2139
11578TIP3    H256150   4.106   3.208  10.713 -0.7387 -0.2958 -0.8583
11579TIP3   OH256151   2.399   0.530  15.449  0.3303 -0.0096  0.3473
11579TIP3    H156152   2.344   0.582  15.507  0.9211 -1.3844  2.2528
11579TIP3    H256153   2.488   0.562  15.465  0.4178  0.2284 -0.5371
11580TIP3   OH256154   2.899   4.607  16.613  0.0732 -0.9803 -0.6663
11580TIP3    H156155   2.984   4.563  16.612 -0.0385 -1.2141 -0.0903
11580TIP3    H256156   2.899   4.658  16.694 -0.8475 -2.0227  0.0260
11581TIP3   OH256157   0.236   4.122  14.431  0.1282 -0.0387 -0.0596
11581TIP3    H156158   0.280   4.082  14.506 -0.8799 -0.0550  0.5541
11581TIP3    H256159   0.146   4.089  14.436 -0.3748  1.2204 -0.3292
11582TIP3   OH256160   0.717   2.467  16.479 -0.0186 -0.0818 -0.8290
11582TIP3    H156161   0.806   2.487  16.507 -0.1725 -0.6049  0.0917
11582TIP3    H256162   0.720   2.375  16.452 -0.0591  0.1880 -1.8041
11583TIP3   OH256163   5.005   1.052   0.411 -0.4002 -0.2917  0.2537
11583TIP3    H156164   4.952   0.976   0.432 -1.1213  0.3997  1.0059
11583TIP3    H256165   4.955   1.127   0.444 -0.1955  0.6119 -1.3418
11584TIP3   OH256166   5.644   2.885   0.400  0.4373 -0.0869 -0.7480
11584TIP3    H156167   5.637   2.812   0.338 -1.4642  0.3218 -1.0720
11584TIP3    H256168   5.700   2.949   0.356 -2.2469  0.9573 -2.9279
11585TIP3   OH256169   5.230   3.090   1.630 -0.6829  0.6860  0.4384
11585TIP3    H156170   5.171   3.030   1.585 -0.5133  1.2261 -0.5290
11585TIP3    H256171   5.179   3.126   1.702 -1.7750  1.6440 -0.7688
11586TIP3   OH256172   4.117   2.073   4.303 -0.3097  0.0909 -0.5127
11586TIP3    H156173   4.151   2.121   4.227  1.6544  1.3562  1.0408
11586TIP3    H256174   4.118   2.137   4.374 -0.2957 -1.5083  1.0095
11587TIP3   OH256175   4.916   6.150  14.255  0.3098 -0.1977 -0.1095
11587TIP3    H156176   4.991   6.189  14.301  0.7304 -0.0051 -0.9321
11587TIP3    H256177   4.914   6.059  14.284  0.0581  0.1271  0.9178
11588TIP3   OH256178   3.068   4.924   2.323  0.4229 -1.1734  0.2013
11588TIP3    H156179   3.021   4.988   2.377  1.1489 -2.0435  1.9169
11588TIP3    H256180   3.083   4.970   2.240 -0.0174  0.4958  1.0029
11589TIP3   OH256181   1.294   0.310  11.361  0.0420  0.3556 -0.0814
11589TIP3    H156182   1.362   0.252  11.327  0.7033  1.6431 -1.0722
11589TIP3    H256183   1.342   0.390  11.386 -1.1624  1.6090 -1.5418
11590TIP3   OH256184   3.087   3.487  12.431  0.6495 -0.3065 -0.4942
11590TIP3    H156185   3.056   3.567  12.388 -0.7442 -0.8766 -0.5784
11590TIP3    H256186   3.037   3.481  12.512  1.9983 -0.1883  0.3893
11591TIP3   OH256187   4.288   2.096   0.332 -0.0867 -0.0288 -0.3664
11591TIP3    H156188   4.303   2.161   0.401 -0.3894  0.6081 -0.8881
11591TIP3    H256189   4.371   2.092   0.285 -0.1183  0.1081 -0.4355
11592TIP3   OH256190   5.392   6.349  14.925  1.0145  0.2902  0.2592
11592TIP3    H156191   5.373   6.439  14.898  0.5728 -0.1215 -0.8830
11592TIP3    H256192   5.325   6.297  14.880  0.1022 -0.4433  2.3571
11593TIP3   OH256193   3.225   5.443   3.531  0.3148 -0.8173  0.1800
11593TIP3    H156194   3.135   5.474   3.546  1.1173  0.4335  2.9238
11593TIP3    H256195   3.270   5.518   3.493  0.6057 -0.9148  0.3359
11594TIP3   OH256196   5.587   0.384   4.360 -0.4426  0.0522  0.0319
11594TIP3    H156197   5.604   0.471   4.323 -0.1922 -0.1056 -0.2215
11594TIP3    H256198   5.491   0.378   4.360 -0.4663  0.3824  0.1791
11595TIP3   OH256199   3.135   0.707  14.838 -0.0115 -0.1965 -0.1886
11595TIP3    H156200   3.228   0.687  14.830  0.1888  0.9328 -0.8645
11595TIP3    H256201   3.102   0.643  14.901  1.4933  0.2534  1.1175
11596TIP3   OH256202   4.600   5.318   4.300 -0.0931 -0.2085 -0.2225
11596TIP3    H156203   4.647   5.401   4.298  0.7420 -0.6827 -1.1911
11596TIP3    H256204   4.508   5.342   4.291  0.3109  0.5121 -4.0134
11597TIP3   OH256205   2.419   2.647  16.703 -0.1204  0.2274 -0.0884
11597TIP3    H156206   2.501   2.694  16.719 -0.1076  0.2157 -0.1200
11597TIP3    H256207   2.439   2.587  16.631 -0.2604  0.4910 -0.3496
11598TIP3   OH256208   3.565   2.464   0.355 -0.4712 -0.1993  0.4362
11598TIP3    H156209   3.631   2.462   0.424 -1.1648  0.7267  1.1630
11598TIP3    H256210   3.511   2.386   0.371 -0.6237  0.0060  0.9460
11599TIP3   OH256211   6.754   4.194  15.702  0.4011 -0.2867  0.1945
11599TIP3    H156212   6.808   4.182  15.623  2.0893  0.0957  1.2310
11599TIP3    H256213   6.672   4.150  15.682 -0.2576  1.9370 -2.7656
11600TIP3   OH256214   3.860   0.992   5.615  0.9565  0.1336  0.2448
11600TIP3    H156215   3.939   0.952   5.652  0.7140 -0.4357  0.1436
11600TIP3    H256216   3.824   0.926   5.556  0.6674  0.5750 -0.0795
11601TIP3   OH256217   5.071   0.096   4.775 -0.1003  0.1890  0.1098
11601TIP3    H156218   5.007   0.082   4.845  0.1109  0.6741  0.3988
11601TIP3    H256219   5.147   0.045   4.801  0.1349  0.7077  0.4460
11602TIP3   OH256220   0.504   1.383  15.301 -0.5247 -0.3354  0.4164
11602TIP3    H156221   0.473   1.454  15.245  1.0070 -0.8033 -1.0940
11602TIP3    H256222   0.537   1.426  15.380  0.6721  0.6966 -0.6128
11603TIP3   OH256223   2.611   2.058  11.413  0.0835 -0.0554  0.1180
11603TIP3    H156224   2.577   2.021  11.332 -0.3111 -0.0466  0.2796
11603TIP3    H256225   2.646   2.144  11.388  1.0269 -0.5281 -0.2671
11604TIP3   OH256226   2.078   3.541   3.811 -0.5287 -0.0821 -0.0706
11604TIP3    H156227   2.148   3.478   3.794  1.8946  2.0524  1.2501
11604TIP3    H256228   2.016   3.494   3.867 -1.1425 -2.5468 -2.5512
11605TIP3   OH256229   2.983   5.617   5.996  0.2170  0.4571  0.0639
11605TIP3    H156230   3.035   5.571   6.062 -2.2094 -0.7051  1.2805
11605TIP3    H256231   2.911   5.656   6.045 -0.3383  1.6541 -1.6024
11606TIP3   OH256232   5.324   3.827  12.237  0.4221 -0.0858 -0.0597
11606TIP3    H156233   5.337   3.916  12.269 -0.1984 -0.3191  0.8926
11606TIP3    H256234   5.393   3.814  12.173  2.8832 -0.1752  2.4363
11607TIP3   OH256235   2.478   3.093   4.917  0.0907 -0.4091 -0.1517
11607TIP3    H156236   2.511   3.178   4.888 -1.1638  0.1823  0.1037
11607TIP3    H256237   2.516   3.031   4.855  0.4573  0.4165 -0.7781
11608TIP3   OH256238   6.067   5.672   2.960  1.0196 -0.1398 -0.1321
11608TIP3    H156239   6.040   5.763   2.968  2.0063  0.2986 -1.3805
11608TIP3    H256240   6.005   5.623   3.014 -0.6804  1.0682 -0.9069
11609TIP3   OH256241   2.147   4.126   1.979  0.1988  0.1327 -0.5830
11609TIP3    H156242   2.102   4.118   1.895  0.0013 -1.6944 -0.3499
11609TIP3    H256243   2.209   4.054   1.980  0.6575  0.5112  0.5756
11610TIP3   OH256244   4.508   2.564  13.527 -0.0530 -0.6330 -0.1603
11610TIP3    H156245   4.414   2.568  13.507 -0.1379 -0.7649  0.2139
11610TIP3    H256246   4.515   2.598  13.616  0.2274 -0.8325 -0.1060
11611TIP3   OH256247   1.192   0.741  11.576  0.0063 -0.1700  0.1232
11611TIP3    H156248   1.205   0.703  11.663 -0.7770 -3.0733 -0.9184
11611TIP3    H256249   1.146   0.824  11.593  3.3557  1.4087  2.6329
11612TIP3   OH256250   4.152   1.633  15.479  0.4337  0.5753  0.4356
11612TIP3    H156251   4.247   1.626  15.474  0.4827  1.6020 -0.5532
11612TIP3    H256252   4.135   1.727  15.491 -0.4996  0.8385 -2.2955
11613TIP3   OH256253   3.674   6.477  16.499 -0.1944 -0.3709  0.1461
11613TIP3    H156254   3.738   6.415  16.464 -0.4975 -0.3168 -0.5174
11613TIP3    H256255   3.726   6.554  16.522  0.1676 -0.8263  0.8742
11614TIP3   OH256256   4.620   0.465   2.084  0.2177 -0.2292  0.0405
11614TIP3    H156257   4.689   0.502   2.029  1.1014 -2.0294 -0.1275
11614TIP3    H256258   4.663   0.395   2.133 -1.2479 -0.6726  0.7507
11615TIP3   OH256259   4.833   0.487  14.242  0.5124  0.5623  0.3001
11615TIP3    H156260   4.738   0.479  14.232  0.7200 -1.2469 -0.7077
11615TIP3    H256261   4.869   0.441  14.166  2.1970 -0.1864  1.4854
11616TIP3   OH256262   2.933   0.341   0.974  0.0749 -0.3571  0.0166
11616TIP3    H156263   2.880   0.266   1.001 -0.5667  0.2016  0.3170
11616TIP3    H256264   3.013   0.334   1.027  0.7342 -1.7053 -1.0761
11617TIP3   OH256265   2.992   6.606   3.711 -0.0205 -0.3933  0.2267
11617TIP3    H156266   2.919   6.665   3.694 -1.3614 -2.2947 -1.0177
11617TIP3    H256267   3.032   6.592   3.625  0.6610 -0.8138  0.6010
11618TIP3   OH256268   0.219   5.257   3.860  0.0806 -0.6192  0.3183
11618TIP3    H156269   0.160   5.207   3.916 -0.7039  0.8357  0.8423
11618TIP3    H256270   0.162   5.304   3.800  0.6512  0.9711  0.9626
11619TIP3   OH256271   0.705   5.994  16.953  0.0430 -0.0934  0.2812
11619TIP3    H156272   0.674   5.984  16.863  3.8919  0.9963 -1.3768
11619TIP3    H256273   0.732   5.905  16.978  1.4258 -0.0201 -0.7740
11620TIP3   OH256274   4.304   1.129  11.003  0.2137 -0.0464 -0.4349
11620TIP3    H156275   4.378   1.112  10.944  0.1663  0.9562 -0.8005
11620TIP3    H256276   4.242   1.178  10.950  0.6786  1.9194  0.7545
11621TIP3   OH256277   4.015   3.407  14.361  0.3399 -0.2853 -0.2386
11621TIP3    H156278   4.098   3.361  14.356 -0.1490 -1.4311  1.3382
11621TIP3    H256279   3.957   3.360  14.301  0.8797  0.7432 -1.6274
11622TIP3   OH256280   3.286   0.086  11.846 -0.3779 -0.0301  0.0119
11622TIP3    H156281   3.320   0.019  11.907 -0.2481 -1.9424 -2.0301
11622TIP3    H256282   3.364   0.133  11.818 -0.2697 -0.0356  0.2947
11623TIP3   OH256283   3.344   4.996   2.447  0.4229  0.2274  0.3225
11623TIP3    H156284   3.413   5.059   2.469 -0.4702  1.3148  0.1435
11623TIP3    H256285   3.306   4.971   2.531  0.5038  0.2596  0.3687
11624TIP3   OH256286   5.051   0.534   4.721 -0.3979 -0.0570  0.4703
11624TIP3    H156287   5.130   0.588   4.728 -0.5340 -0.0188  2.0753
11624TIP3    H256288   4.980   0.597   4.707 -0.2385 -0.0433 -0.3259
11625TIP3   OH256289   2.574   5.772  14.724  0.0736  0.0791 -0.7005
11625TIP3    H156290   2.574   5.733  14.637 -0.4707 -1.1141 -0.1840
11625TIP3    H256291   2.617   5.708  14.780 -0.1103  0.5699  0.0260
11626TIP3   OH256292   1.531   0.196  10.847 -0.0025 -0.2542  0.4959
11626TIP3    H156293   1.453   0.218  10.897  0.7128 -0.7216  1.8547
11626TIP3    H256294   1.539   0.101  10.854  0.1336 -0.3340 -0.4995
11627TIP3   OH256295   3.451   0.301   1.657 -0.4588  0.3837 -0.7145
11627TIP3    H156296   3.389   0.362   1.618 -0.5683 -1.0776 -2.9777
11627TIP3    H256297   3.514   0.283   1.587  0.6355 -0.6611  0.4966
11628TIP3   OH256298   2.289   1.266  14.916 -0.1354  0.1138  0.1114
11628TIP3    H156299   2.335   1.245  14.998 -2.1511 -1.4173  0.9467
11628TIP3    H256300   2.199   1.237  14.931 -0.3628 -1.2463 -3.0297
11629TIP3   OH256301   0.905   5.863  12.932 -0.3538 -0.0415  0.0913
11629TIP3    H156302   0.974   5.822  12.879 -1.5039 -2.5942  0.4019
11629TIP3    H256303   0.949   5.936  12.975  1.9623 -1.0581 -0.3514
11630TIP3   OH256304   5.851   2.595  12.624 -0.4201  0.2524  0.4454
11630TIP3    H156305   5.848   2.500  12.616  1.8740  0.3165 -2.6384
11630TIP3    H256306   5.760   2.622  12.611 -0.8953 -1.4306 -0.0270
11631TIP3   OH256307   2.621   3.026   2.073  0.4103 -0.4103 -0.0366
11631TIP3    H156308   2.554   2.966   2.106 -0.1310 -0.8288 -1.7691
11631TIP3    H256309   2.626   3.007   1.979  1.2304  1.2943 -0.3853
11632TIP3   OH256310   2.083   4.796   0.167  0.0020 -0.2110 -0.2334
11632TIP3    H156311   2.171   4.793   0.128  0.2928 -0.7120  0.4270
11632TIP3    H256312   2.094   4.850   0.246 -0.3473 -0.0450 -0.2975
11633TIP3   OH256313   1.861   6.236   3.377 -0.2147  0.1917 -0.6537
11633TIP3    H156314   1.773   6.272   3.363  0.2969  0.7991 -2.6448
11633TIP3    H256315   1.858   6.151   3.333 -0.7733 -1.4017  2.2145
11634TIP3   OH256316   3.395   3.653  13.148 -0.2694  0.4950  0.3111
11634TIP3    H156317   3.307   3.624  13.171  0.0646 -0.7827  0.0490
11634TIP3    H256318   3.389   3.749  13.148 -1.3499  0.4598  1.4640
11635TIP3   OH256319   4.044   2.795   2.251  0.4834  0.2415 -0.0764
11635TIP3    H156320   4.127   2.842   2.258  1.1939 -0.9601 -0.2001
11635TIP3    H256321   3.977   2.862   2.267  1.4649  1.2315  0.0005
11636TIP3   OH256322   3.431   6.120   5.771  0.8408  0.2081  0.3771
11636TIP3    H156323   3.516   6.121   5.816  1.0796  0.1234 -0.0674
11636TIP3    H256324   3.441   6.054   5.702  0.3506  0.0637  0.4382
11637TIP3   OH256325   1.687   3.725  16.291 -0.0140 -0.6291  0.1279
11637TIP3    H156326   1.674   3.717  16.196 -0.5810 -0.4240  0.1833
11637TIP3    H256327   1.741   3.650  16.315  0.7408 -0.2912 -0.4740
11638TIP3   OH256328   3.158   6.545  13.771  0.0208 -0.3762  0.2395
11638TIP3    H156329   3.125   6.536  13.682  1.1438 -0.0460 -0.2352
11638TIP3    H256330   3.153   6.457  13.808 -1.7863 -0.2490  0.3550
11639TIP3   OH256331   1.804   1.062   0.537  0.5412 -0.2126 -0.0967
11639TIP3    H156332   1.779   1.061   0.630  2.0513  1.5375  0.3798
11639TIP3    H256333   1.780   1.150   0.507  1.0010 -0.4203 -1.1056
11640TIP3   OH256334   3.515   4.967  11.447  0.0715  0.2679  0.4901
11640TIP3    H156335   3.420   4.958  11.448  0.0275 -0.7847 -2.5881
11640TIP3    H256336   3.548   4.878  11.445  1.3637  0.5158  3.9443
11641TIP3   OH256337   1.296   4.581  10.856 -0.5744  0.2397 -0.4094
11641TIP3    H156338   1.220   4.527  10.834  0.2003 -0.5564 -1.2236
11641TIP3    H256339   1.372   4.529  10.828  0.3136  0.7424  0.9494
11642TIP3   OH256340   4.107   5.359  14.891 -0.4213 -0.2858 -0.4760
11642TIP3    H156341   4.055   5.427  14.935  1.7946  0.9858  0.3255
11642TIP3    H256342   4.089   5.280  14.942 -0.0836  0.5537  1.0092
11643TIP3   OH256343   0.213   3.265   0.281 -0.3614  0.3194  0.1195
11643TIP3    H156344   0.297   3.298   0.314 -0.1010  0.4416 -0.6521
11643TIP3    H256345   0.213   3.172   0.305 -0.0566  0.3420  0.2155
11644TIP3   OH256346   1.798   4.750   5.032 -0.1324  0.3169 -0.1950
11644TIP3    H156347   1.789   4.816   4.963  0.1936  1.8330  1.1384
11644TIP3    H256348   1.891   4.752   5.054  0.0187 -1.1447 -0.6180
11645TIP3   OH256349   6.757   1.219  13.941 -0.0259  0.4660 -0.2307
11645TIP3    H156350   6.735   1.307  13.910 -0.7794  0.5684  0.5668
11645TIP3    H256351   6.772   1.230  14.035 -0.9470 -0.4028  0.0292
11646TIP3   OH256352   1.993   1.950  12.114 -0.0345 -0.1425 -0.2970
11646TIP3    H156353   1.935   2.013  12.159  0.6512  0.9173 -0.8567
11646TIP3    H256354   1.953   1.938  12.028 -0.7129 -1.2810  0.1508
11647TIP3   OH256355   2.361   6.688  10.428 -0.2515  0.8918  0.0344
11647TIP3    H156356   2.431   6.730  10.379  0.7449  1.1049  1.5997
11647TIP3    H256357   2.281   6.712  10.380  0.4832  2.7691 -0.3220
11648TIP3   OH256358   2.111   0.183  16.029 -0.6447  0.1231 -0.6404
11648TIP3    H156359   2.094   0.133  16.109 -0.3551 -0.2428 -0.8066
11648TIP3    H256360   2.060   0.264  16.040 -2.9080 -1.1188 -1.3331
11649TIP3   OH256361   4.305   3.609  10.312  0.1902  0.6401 -0.6872
11649TIP3    H156362   4.225   3.571  10.348  1.5136 -1.0676  0.6452
11649TIP3    H256363   4.290   3.703  10.315 -1.9821  0.3567 -1.0560
11650TIP3   OH256364   2.513   3.775   2.687 -0.0882 -0.1622 -0.3822
11650TIP3    H156365   2.573   3.791   2.760 -0.9536  1.3083  0.0500
11650TIP3    H256366   2.429   3.756   2.729 -0.7502  1.3318 -0.9413
11651TIP3   OH256367   1.084   2.778   1.286  0.1954 -0.4756  0.2207
11651TIP3    H156368   0.998   2.800   1.250  1.0620 -1.2898 -2.5990
11651TIP3    H256369   1.094   2.837   1.361 -2.4502  0.2159  0.1319
11652TIP3   OH256370   2.049   0.875  15.939 -0.4922  0.7281  0.2832
11652TIP3    H156371   1.984   0.837  15.999  0.0914 -0.8502 -0.0243
11652TIP3    H256372   2.132   0.836  15.967 -0.2555 -0.3109 -1.7392
11653TIP3   OH256373   2.981   6.053  15.731 -0.4731 -0.0990 -0.1088
11653TIP3    H156374   3.017   6.108  15.800  0.4805  1.7440 -1.9589
11653TIP3    H256375   2.973   5.966  15.770  3.0523  0.0983  1.3817
11654TIP3   OH256376   2.015   2.206  12.525 -0.2473  0.0694 -0.4308
11654TIP3    H156377   2.083   2.146  12.556 -1.9026 -1.3644  0.6724
11654TIP3    H256378   1.999   2.265  12.598 -1.3634 -0.7334  0.0059
11655TIP3   OH256379   0.535   1.935  12.246  0.2306 -0.6899 -0.3129
11655TIP3    H156380   0.488   1.891  12.176 -0.9566 -0.0416  0.0412
11655TIP3    H256381   0.510   2.027  12.237  0.6496 -0.4900  0.4942
11656TIP3   OH256382   1.237   2.854   5.657  0.3111  0.1869  0.4030
11656TIP3    H156383   1.264   2.785   5.717 -0.7642  0.5515  1.3419
11656TIP3    H256384   1.141   2.855   5.662  0.3014  2.1669  0.9631
11657TIP3   OH256385   5.097   0.423   5.135  0.1775  0.2707  0.3249
11657TIP3    H156386   5.085   0.506   5.181 -0.1800  0.4453 -0.0734
11657TIP3    H256387   5.024   0.419   5.073  0.0257 -0.4740  0.5359
11658TIP3   OH256388   4.257   0.919   6.017  0.6008  0.5265 -0.1483
11658TIP3    H156389   4.270   1.014   6.007  2.4738  0.3617  0.3210
11658TIP3    H256390   4.296   0.881   5.939 -1.0049  0.1659 -0.7953
11659TIP3   OH256391   0.080   3.969   5.606 -0.2652  1.0730  0.0464
11659TIP3    H156392   0.041   3.967   5.519  0.3564 -0.6509 -0.2285
11659TIP3    H256393   0.161   4.019   5.594  0.2194  0.1715 -0.5686
11660TIP3   OH256394   5.699   2.971  13.784  0.7744 -0.6612 -0.0487
11660TIP3    H156395   5.786   2.987  13.747  1.5336 -0.8497  1.5529
11660TIP3    H256396   5.697   2.876  13.800  0.0772 -0.7305 -0.5568
11661TIP3   OH256397   4.320   2.918  14.862  0.0349  0.0513 -0.3154
11661TIP3    H156398   4.356   2.850  14.805  0.6112 -0.2995  0.4547
11661TIP3    H256399   4.366   2.907  14.945 -2.0321 -0.5770  0.8204
11662TIP3   OH256400   1.517   6.463  11.417 -0.8095 -0.0847  0.2261
11662TIP3    H156401   1.424   6.475  11.436 -0.8860  1.1154 -0.7681
11662TIP3    H256402   1.520   6.447  11.323 -0.2451 -3.4214  0.7061
11663TIP3   OH256403   0.148   2.575   4.180  0.4192  0.0060 -0.0004
11663TIP3    H156404   0.217   2.540   4.236  1.1552  1.9036  0.3494
11663TIP3    H256405   0.194   2.609   4.103 -0.4966 -1.7954 -1.4370
11664TIP3   OH256406   2.658   2.249  13.659 -0.0397  0.0605 -0.2135
11664TIP3    H156407   2.718   2.236  13.733  0.3017 -1.3642 -0.6942
11664TIP3    H256408   2.586   2.301  13.694  0.1619 -0.5133  1.1061
11665TIP3   OH256409   2.579   2.337   1.418 -0.3733  0.0054  0.1645
11665TIP3    H156410   2.535   2.385   1.348 -0.4596  0.9873  0.8587
11665TIP3    H256411   2.669   2.370   1.417 -0.0990 -0.7452 -0.1537
11666TIP3   OH256412   5.451   0.287  14.489  0.0667 -0.1590  0.6231
11666TIP3    H156413   5.533   0.266  14.444 -0.5824 -0.6702 -0.3713
11666TIP3    H256414   5.428   0.206  14.535 -0.1082 -0.1645  0.5266
11667TIP3   OH256415   0.890   4.024   2.949  0.3073 -0.3021  0.4284
11667TIP3    H156416   0.893   3.936   2.986 -1.0444 -0.3931  0.3729
11667TIP3    H256417   0.885   4.081   3.026 -0.1985 -0.3593  0.4410
11668TIP3   OH256418   1.093   2.458  13.727 -0.1645 -0.0889  0.4541
11668TIP3    H156419   1.145   2.528  13.689  0.5683 -0.2641  1.1069
11668TIP3    H256420   1.081   2.484  13.818 -0.5956 -0.4082  0.4921
11669TIP3   OH256421   0.902   2.598  16.137 -0.1159  0.1704 -0.2305
11669TIP3    H156422   0.995   2.582  16.149 -0.0210 -1.2002 -2.3417
11669TIP3    H256423   0.860   2.517  16.165 -0.8740  1.2404  2.0202
11670TIP3   OH256424   0.484   0.269   0.953 -0.6919  0.1279 -0.8507
11670TIP3    H156425   0.494   0.183   0.994  0.9903 -0.1302 -1.7225
11670TIP3    H256426   0.432   0.319   1.016  0.6723 -0.6497  1.0031
11671TIP3   OH256427   1.329   4.170  13.850  0.4797  0.4787  0.2747
11671TIP3    H156428   1.339   4.241  13.913 -0.3164 -0.0098  0.9671
11671TIP3    H256429   1.277   4.105  13.895 -2.2242  1.1332 -1.6668
11672TIP3   OH256430   3.315   2.592  11.532  0.3499 -1.1295 -0.4418
11672TIP3    H156431   3.368   2.668  11.507 -1.3697  0.8729  1.5373
11672TIP3    H256432   3.245   2.589  11.467 -1.1376  0.7948  0.9590
11673TIP3   OH256433   1.094   2.205  11.093  0.2663  0.4822 -0.2996
11673TIP3    H156434   1.159   2.275  11.092  0.8372 -0.0435 -0.6114
11673TIP3    H256435   1.020   2.242  11.141  0.2085  1.6196 -1.1979
11674TIP3   OH256436   4.679   4.313   0.090 -0.6715  0.5664  0.4205
11674TIP3    H156437   4.672   4.404   0.119  0.4848  0.8141 -0.0059
11674TIP3    H256438   4.602   4.269   0.127 -0.0945  1.2122  2.5014
11675TIP3   OH256439   5.885   2.245   0.492  0.1149  0.0632 -0.2251
11675TIP3    H156440   5.911   2.157   0.517  1.0332  0.5416  0.5690
11675TIP3    H256441   5.893   2.297   0.572  0.6070  1.0834 -0.9053
11676TIP3   OH256442   2.136   4.096   4.133  0.6639 -0.0641  0.0911
11676TIP3    H156443   2.127   4.011   4.176  1.4828 -0.3427 -0.2738
11676TIP3    H256444   2.149   4.158   4.204  2.9338 -0.6414  0.2530
11677TIP3   OH256445   3.609   5.860   4.382 -0.0375  0.2492 -0.2261
11677TIP3    H156446   3.674   5.842   4.314  3.3974  1.8328  2.3344
11677TIP3    H256447   3.572   5.946   4.358 -0.5947 -0.2567 -1.2320
11678TIP3   OH256448   5.228   6.729   2.207  0.0605 -0.0969  0.5537
11678TIP3    H156449   5.149   6.712   2.156  0.2166  0.8149 -0.0303
11678TIP3    H256450   5.298   6.688   2.157  0.2358  0.9347 -0.0786
11679TIP3   OH256451   3.001   5.766   0.446 -0.0353 -0.2901 -0.3153
11679TIP3    H156452   2.952   5.821   0.385  1.8737  0.6223 -1.1050
11679TIP3    H256453   2.973   5.677   0.425 -0.5868  0.1269 -1.4442
11680TIP3   OH256454   2.985   0.712   0.763  0.5833 -0.4166  0.1502
11680TIP3    H156455   2.956   0.755   0.682 -1.2615 -1.8331  0.0010
11680TIP3    H256456   3.050   0.648   0.734 -0.1809 -1.0235 -0.2604
11681TIP3   OH256457   3.388   4.908   4.921 -0.5821  0.2529  0.0916
11681TIP3    H156458   3.327   4.851   4.875  2.3858 -0.2145 -3.9136
11681TIP3    H256459   3.373   4.995   4.883  0.8128  0.2148 -0.6295
11682TIP3   OH256460   1.394   0.456  12.816  0.2571 -0.8702 -0.1191
11682TIP3    H156461   1.338   0.513  12.869  0.8726  0.0996 -0.4897
11682TIP3    H256462   1.333   0.397  12.772 -0.4346 -0.1535 -0.1380
11683TIP3   OH256463   1.667   2.812  15.331 -0.0906  0.0692 -0.1649
11683TIP3    H156464   1.750   2.773  15.301  0.2873  1.7617 -1.5187
11683TIP3    H256465   1.600   2.771  15.277  0.0617 -0.1686 -0.1718
11684TIP3   OH256466   0.318   2.337   4.224  0.5109 -0.0692  0.4037
11684TIP3    H156467   0.236   2.311   4.181  0.3386  0.6847  0.2511
11684TIP3    H256468   0.376   2.261   4.214 -0.2600 -0.7175  0.7672
11685TIP3   OH256469   2.978   1.603  15.023  0.0478 -0.1559  0.0454
11685TIP3    H156470   2.953   1.572  15.110 -0.7767 -0.0673 -0.1523
11685TIP3    H256471   3.073   1.611  15.027  0.1259 -1.2310  0.5798
11686TIP3   OH256472   1.072   1.974  11.810  0.8010  0.3177  0.1069
11686TIP3    H156473   1.115   2.056  11.835  0.3096  0.3903  0.7260
11686TIP3    H256474   1.097   1.912  11.879  2.0038 -0.3547 -0.8795
11687TIP3   OH256475   4.162   4.921  15.718 -0.2982  0.2000 -0.3338
11687TIP3    H156476   4.179   4.935  15.625  1.8320  1.0475  0.1230
11687TIP3    H256477   4.227   4.975  15.763 -1.9113  0.6015  1.6827
11688TIP3   OH256478   6.016   2.440  11.676 -0.4729  0.1962 -0.1514
11688TIP3    H156479   6.021   2.489  11.594 -0.1421 -0.0933 -0.3046
11688TIP3    H256480   5.985   2.353  11.650 -3.0570  0.8762  0.3433
11689TIP3   OH256481   2.505   5.582   5.923 -0.1216 -0.3318  0.0272
11689TIP3    H156482   2.444   5.509   5.922 -0.9712  0.3565 -1.1702
11689TIP3    H256483   2.473   5.640   5.992 -1.3496  0.4167 -1.1238
11690TIP3   OH256484   2.597   3.839  15.006  0.0046 -0.1490 -0.0853
11690TIP3    H156485   2.507   3.872  15.008  0.6961  1.9203 -0.7118
11690TIP3    H256486   2.630   3.868  14.921  1.4078 -0.4599  0.3395
11691TIP3   OH256487   4.459   2.580   5.479  0.1723  0.3938 -0.0740
11691TIP3    H156488   4.374   2.591   5.521 -0.0107 -0.4328 -0.2008
11691TIP3    H256489   4.517   2.550   5.549  0.0366 -0.2977 -0.2438
11692TIP3   OH256490   3.195   1.920   2.278  0.1069  0.3506 -0.8501
11692TIP3    H156491   3.106   1.902   2.247  0.8359 -0.6695 -2.4780
11692TIP3    H256492   3.192   1.903   2.372 -1.3224 -0.0182 -0.9459
11693TIP3   OH256493   0.730   1.961  12.796 -0.3449 -0.5630  0.3861
11693TIP3    H156494   0.709   2.041  12.748 -0.0371 -0.4805  0.3828
11693TIP3    H256495   0.823   1.947  12.779 -0.0559 -0.1442  1.5222
11694TIP3   OH256496   0.757   1.423  15.803  0.6464  0.7280 -0.1307
11694TIP3    H156497   0.819   1.354  15.782  0.8788  1.0005 -0.3491
11694TIP3    H256498   0.762   1.431  15.899  0.2108  0.0704 -0.0477
11695TIP3   OH256499   3.787   0.506  11.668  0.1864 -0.5342 -0.0229
11695TIP3    H156500   3.713   0.519  11.609 -0.5885 -1.3798  0.7421
11695TIP3    H256501   3.819   0.418  11.647 -0.2067 -0.9161  0.9084
11696TIP3   OH256502   4.967   4.620   1.898  0.2268 -0.0467 -0.7806
11696TIP3    H156503   4.896   4.652   1.841 -1.7841 -0.7536  1.1889
11696TIP3    H256504   5.020   4.698   1.916 -2.0493  1.3335  0.4160
11697TIP3   OH256505   0.295   4.220   4.384  0.1480 -0.1361  0.0466
11697TIP3    H156506   0.292   4.124   4.383 -0.7631 -0.1332  1.2847
11697TIP3    H256507   0.373   4.241   4.436 -1.6917 -0.2514  3.0445
11698TIP3   OH256508   0.169   3.374   1.460 -0.3620 -0.8419 -0.6925
11698TIP3    H156509   0.213   3.453   1.493  0.0653 -1.2129 -0.3655
11698TIP3    H256510   0.076   3.392   1.471 -0.2375 -1.2281  1.4118
11699TIP3   OH256511   0.675   2.964  12.706  0.7360  0.1005 -0.0512
11699TIP3    H156512   0.721   3.005  12.633  1.2228  0.0503  0.2279
11699TIP3    H256513   0.602   3.023  12.724 -0.8535 -1.0676 -2.1586
11700TIP3   OH256514   6.692   2.293   5.184  0.3935  0.1598 -0.3833
11700TIP3    H156515   6.626   2.273   5.250  1.2963 -1.6998  0.0100
11700TIP3    H256516   6.769   2.317   5.235  0.5453  0.5997 -0.8166
11701TIP3   OH256517   0.131   1.123   4.261 -0.2744  0.6606 -0.5446
11701TIP3    H156518   0.124   1.119   4.165 -1.0112  1.2158 -0.5235
11701TIP3    H256519   0.108   1.035   4.290 -2.4686  1.0934 -0.7757
11702TIP3   OH256520   4.087   5.834   5.144 -1.1058  0.2276 -0.2784
11702TIP3    H156521   4.121   5.780   5.215 -0.5423  0.6688 -0.2070
11702TIP3    H256522   4.154   5.829   5.076 -1.9210 -0.6956 -1.0470
11703TIP3   OH256523   5.839   4.696  14.018  0.4644 -0.1180 -0.7035
11703TIP3    H156524   5.810   4.611  14.051  2.3376 -0.0860  1.1947
11703TIP3    H256525   5.767   4.756  14.039 -0.7165 -1.1067 -1.7276
11704TIP3   OH256526   5.841   3.671   1.871 -0.0833  0.2843 -0.7510
11704TIP3    H156527   5.879   3.651   1.785  2.0987 -0.4067  0.3057
11704TIP3    H256528   5.917   3.675   1.930 -1.5420  0.5989  1.1793
11705TIP3   OH256529   5.245   1.216   0.582 -0.6196 -0.4398  0.2952
11705TIP3    H156530   5.208   1.243   0.498 -1.2341 -0.1106  0.6616
11705TIP3    H256531   5.215   1.126   0.594 -1.1936 -0.2285  0.5149
11706TIP3   OH256532   1.370   6.344   5.544  0.1383  0.3324 -0.0637
11706TIP3    H156533   1.397   6.396   5.468 -0.6422 -1.8451 -1.9357
11706TIP3    H256534   1.281   6.374   5.564 -1.0522 -1.3653 -2.3139
11707TIP3   OH256535   4.779   6.135  14.708 -0.1867 -0.4208 -0.1662
11707TIP3    H156536   4.818   6.180  14.783 -1.5810  0.6161 -0.0259
11707TIP3    H256537   4.708   6.193  14.680 -1.1327 -1.8805 -0.8736
11708TIP3   OH256538   5.981   5.328  10.718  0.4392 -0.3479  0.0375
11708TIP3    H156539   5.905   5.331  10.659  0.6532  2.1539 -0.2432
11708TIP3    H256540   6.046   5.383  10.675  0.9465  0.7856  2.1349
11709TIP3   OH256541   0.681   5.666  12.056  0.3683 -0.1985 -0.0493
11709TIP3    H156542   0.725   5.750  12.072  1.2486 -0.4063 -1.2384
11709TIP3    H256543   0.697   5.648  11.964 -1.9285 -0.4896 -0.4545
11710TIP3   OH256544   3.861   2.208  12.556  0.0544 -0.1164  0.2443
11710TIP3    H156545   3.870   2.144  12.486 -1.0965 -0.3023  0.2488
11710TIP3    H256546   3.934   2.190  12.615 -1.0910 -2.4522  1.0397
11711TIP3   OH256547   1.161   2.493  14.251  0.4314  0.7889 -0.0079
11711TIP3    H156548   1.133   2.543  14.327 -0.4918  0.4919 -0.1370
11711TIP3    H256549   1.086   2.436  14.231 -0.4273  2.6547 -2.7025
11712TIP3   OH256550   2.816   1.935   4.050 -0.2417 -0.5202 -0.5166
11712TIP3    H156551   2.842   2.026   4.067 -0.7049 -0.7606  1.7030
11712TIP3    H256552   2.775   1.906   4.131  0.1449 -2.8186 -1.0781
11713TIP3   OH256553   3.269   4.039   2.318 -0.5587  0.2514  0.4174
11713TIP3    H156554   3.277   3.987   2.398 -0.2713 -0.2300  0.0782
11713TIP3    H256555   3.323   4.116   2.335 -0.4080  0.0976  0.6485
11714TIP3   OH256556   5.326   2.406   1.889 -0.3954  0.0705 -0.6490
11714TIP3    H156557   5.417   2.432   1.903 -0.7797  0.4946  1.4544
11714TIP3    H256558   5.324   2.313   1.915 -0.6610  0.2246 -0.0946
11715TIP3   OH256559   0.065   4.930   1.717  0.4673  0.3464  0.0957
11715TIP3    H156560   0.091   4.896   1.802  2.3163 -1.3796 -1.0641
11715TIP3    H256561   0.131   4.997   1.697 -0.1078  0.9276  0.1143
11716TIP3   OH256562   1.973   5.708  10.851  0.2399  0.0630 -0.4575
11716TIP3    H156563   1.922   5.639  10.809  1.1041 -0.0805 -1.2879
11716TIP3    H256564   2.062   5.697  10.817  0.0560  2.7260 -2.0979
11717TIP3   OH256565   6.719   1.406   3.466 -0.3078 -0.5722 -0.2224
11717TIP3    H156566   6.719   1.452   3.382  1.0672 -0.7786 -0.3741
11717TIP3    H256567   6.643   1.348   3.462 -0.9328  0.2688 -0.8331
11718TIP3   OH256568   0.363   6.356   4.029 -0.4051  0.5992 -0.1823
11718TIP3    H156569   0.317   6.433   4.061 -0.4103  1.7059 -2.6278
11718TIP3    H256570   0.455   6.381   4.028 -0.3371  0.3566 -0.3678
11719TIP3   OH256571   2.626   6.547   3.001 -0.3577  0.8457  0.5393
11719TIP3    H156572   2.679   6.568   3.078  1.0724  2.4830 -0.7819
11719TIP3    H256573   2.633   6.452   2.992  1.6976  0.9018  0.9363
11720TIP3   OH256574   0.103   1.210   5.569  0.0388 -0.0641  0.3276
11720TIP3    H156575   0.130   1.164   5.489 -0.1800  1.3206 -0.5951
11720TIP3    H256576   0.008   1.197   5.573  0.0536 -0.1567  0.3628
11721TIP3   OH256577   5.641   2.365   0.505 -0.5211 -0.3437 -0.1186
11721TIP3    H156578   5.724   2.318   0.510 -0.3700 -0.0018  1.0630
11721TIP3    H256579   5.664   2.457   0.514 -0.9517 -0.1638 -0.7769
11722TIP3   OH256580   5.474   6.820   0.957 -0.4386  0.0900 -0.7975
11722TIP3    H156581   5.501   6.785   1.042  1.1026 -1.6167 -1.9059
11722TIP3    H256582   5.395   6.771   0.934  0.6652 -1.4752 -1.4963
11723TIP3   OH256583   4.550   5.253  16.841  0.0631 -0.3432  0.1260
11723TIP3    H156584   4.576   5.175  16.792  1.0530 -0.0692  0.1861
11723TIP3    H256585   4.622   5.315  16.827 -1.0125  0.8022 -0.4458
11724TIP3   OH256586   2.958   3.011   1.213 -0.5507 -0.9048 -0.0776
11724TIP3    H156587   2.948   2.965   1.129 -0.3238  2.3919 -2.0788
11724TIP3    H256588   2.897   3.084   1.208  2.3327  1.7526  0.7895
11725TIP3   OH256589   0.770   6.186  12.568 -0.4467  0.1977 -0.0560
11725TIP3    H156590   0.787   6.171  12.475 -0.7269  1.0097 -0.2482
11725TIP3    H256591   0.802   6.107  12.612  3.4253  1.3287 -0.4136
11726TIP3   OH256592   1.125   2.884   2.098 -0.5275 -0.2497 -0.3937
11726TIP3    H156593   1.104   2.957   2.157 -0.7637 -1.1077  0.5990
11726TIP3    H256594   1.053   2.822   2.111  0.0732 -1.0085 -0.6531
11727TIP3   OH256595   3.549   0.461  11.524 -0.9382 -0.4450  0.6441
11727TIP3    H156596   3.587   0.414  11.450 -2.2169  0.5058 -0.6591
11727TIP3    H256597   3.474   0.407  11.550 -2.1625  0.5897 -0.5926
11728TIP3   OH256598   1.060   5.743  14.732  0.4856  0.1267  0.0559
11728TIP3    H156599   1.115   5.803  14.682 -1.7419  0.2391 -2.4611
11728TIP3    H256600   0.995   5.798  14.774  0.8303 -0.2114  1.0669
11729TIP3   OH256601   2.095   0.082   1.037  0.1804  0.0241  0.4964
11729TIP3    H156602   2.031   0.141   0.998  1.1054 -0.0881 -1.2960
11729TIP3    H256603   2.082  -0.001   0.992 -0.1194 -0.7642  1.9597
11730TIP3   OH256604   6.357   1.883  14.652 -0.4398  0.2198 -0.2711
11730TIP3    H156605   6.342   1.920  14.739 -0.9077  0.1901 -0.3382
11730TIP3    H256606   6.451   1.895  14.637 -0.7055  2.1102 -0.6325
11731TIP3   OH256607   6.404   1.092  16.658 -0.0929 -0.2487 -0.2262
11731TIP3    H156608   6.372   1.042  16.583 -2.4314  1.2455 -0.3271
11731TIP3    H256609   6.450   1.028  16.712 -0.6421 -1.9123 -1.6496
11732TIP3   OH256610   5.750   5.742  11.778  0.2719 -0.3380  0.2525
11732TIP3    H156611   5.694   5.819  11.786  1.2615  0.3043  1.4088
11732TIP3    H256612   5.829   5.765  11.827  0.8446 -1.8552  0.0949
11733TIP3   OH256613   0.649   1.034   4.783  0.0516  0.3613  0.1465
11733TIP3    H156614   0.580   1.069   4.727 -0.1179 -0.7537 -0.3514
11733TIP3    H256615   0.727   1.032   4.727  0.9321  3.0206  1.1127
11734TIP3   OH256616   5.013   0.618   5.317  0.7740 -0.2962 -0.2184
11734TIP3    H156617   4.975   0.679   5.254  1.7848  1.2410  0.6026
11734TIP3    H256618   5.084   0.667   5.359  0.2701 -1.3064  1.9934
11735TIP3   OH256619   4.895   3.034  15.452  0.7002  0.4048 -0.0665
11735TIP3    H156620   4.835   3.100  15.419  0.1833 -0.4032 -0.7950
11735TIP3    H256621   4.886   2.960  15.391  2.6649  0.3722 -0.4066
11736TIP3   OH256622   0.211   0.836  16.446  0.7488  0.4933  0.0230
11736TIP3    H156623   0.142   0.864  16.386 -0.5976 -0.3001  1.1256
11736TIP3    H256624   0.207   0.898  16.519  0.0828 -0.4833  0.8486
11737TIP3   OH256625   5.574   3.138   0.798  0.0672  0.1628  0.4565
11737TIP3    H156626   5.534   3.087   0.727  0.5478 -0.9459  0.9554
11737TIP3    H256627   5.666   3.112   0.797  0.5308  1.7525  0.1202
11738TIP3   OH256628   4.653   6.434   3.430 -0.7044  0.0155  0.1914
11738TIP3    H156629   4.683   6.451   3.341 -1.4451 -0.1459 -0.0940
11738TIP3    H256630   4.719   6.475   3.486  0.5879 -1.2074 -0.4001
11739TIP3   OH256631   4.325   3.177  16.314 -0.1920  0.2707  0.0337
11739TIP3    H156632   4.387   3.155  16.244 -1.1239  0.0581 -0.7578
11739TIP3    H256633   4.240   3.177  16.270 -0.6429  1.6002  0.8552
11740TIP3   OH256634   1.861   3.986  16.857 -0.5618 -0.6615 -0.3267
11740TIP3    H156635   1.919   4.059  16.837 -1.9130  0.4356 -0.4223
11740TIP3    H256636   1.919   3.912  16.872  0.7761 -0.0989 -2.3429
11741TIP3   OH256637   1.373   0.586  11.437 -0.2990  0.0517 -0.0369
11741TIP3    H156638   1.314   0.655  11.468 -0.5159 -0.2633  0.2510
11741TIP3    H256639   1.396   0.614  11.348 -1.8953 -0.4377 -0.6560
11742TIP3   OH256640   4.412   3.862  12.349 -0.0872  0.0131 -0.4773
11742TIP3    H156641   4.397   3.935  12.289 -1.4027  0.5238  0.4173
11742TIP3    H256642   4.508   3.852  12.351 -0.0266 -0.6795 -3.3355
11743TIP3   OH256643   1.088   4.997  14.273 -0.6173 -0.1973 -0.0173
11743TIP3    H156644   1.032   4.920  14.274  0.4885 -1.0300  0.1300
11743TIP3    H256645   1.038   5.063  14.225 -1.5668 -1.0094 -0.1742
11744TIP3   OH256646   0.269   6.010   0.351  0.3016 -0.4846  0.1502
11744TIP3    H156647   0.230   6.086   0.307  1.9427  0.4744  0.2854
11744TIP3    H256648   0.274   5.943   0.284 -0.2810 -0.1472 -0.2334
11745TIP3   OH256649   5.637   0.543  12.059 -0.7136 -0.8640  0.6288
11745TIP3    H156650   5.727   0.539  12.091 -1.1558 -0.7386  1.9136
11745TIP3    H256651   5.626   0.461  12.010 -0.2171 -1.3479  1.3092
11746TIP3   OH256652   3.512   3.548   3.821  0.3113 -0.2293 -0.4789
11746TIP3    H156653   3.501   3.459   3.788 -0.0299 -0.9940  1.5571
11746TIP3    H256654   3.450   3.600   3.770 -1.3837 -1.6438  0.0317
11747TIP3   OH256655   5.221   3.327  12.168 -0.0729 -0.1022 -0.2065
11747TIP3    H156656   5.169   3.407  12.171  0.2311  0.0617  0.9546
11747TIP3    H256657   5.163   3.261  12.129 -0.9411  0.2222  0.5251
11748TIP3   OH256658   1.805   0.521  15.665  0.0713 -0.3270 -0.0919
11748TIP3    H156659   1.831   0.456  15.730  1.6471 -0.3810 -0.7333
11748TIP3    H256660   1.839   0.604  15.698  1.1032 -0.3914 -0.9257
11749TIP3   OH256661   1.165   3.396  16.313  0.1381  0.3137  0.2051
11749TIP3    H156662   1.259   3.392  16.296  0.3842  0.4100  1.4792
11749TIP3    H256663   1.158   3.435  16.400 -0.9967 -1.2854  0.8844
11750TIP3   OH256664   0.419   0.945  16.887  0.0394 -0.1870  0.4149
11750TIP3    H156665   0.479   0.994  16.943  0.0058  0.5243 -0.1637
11750TIP3    H256666   0.472   0.914  16.814 -0.2911  0.4842 -0.1239
11751TIP3   OH256667   6.008   0.853   4.452  0.0452 -0.1234  0.4509
11751TIP3    H156668   5.940   0.808   4.503 -2.3550  2.5585 -0.0653
11751TIP3    H256669   5.997   0.821   4.363 -0.1553 -0.1297  0.4775
11752TIP3   OH256670   1.788   4.835   4.014 -0.1689 -0.6233  0.6201
11752TIP3    H156671   1.755   4.837   3.924  0.2154 -2.1186  0.4287
11752TIP3    H256672   1.857   4.902   4.015 -0.9124  0.1744  0.1219
11753TIP3   OH256673   4.266   2.350  14.608  0.4756 -0.2997  0.8607
11753TIP3    H156674   4.189   2.371  14.662  1.1681  0.0778  1.7438
11753TIP3    H256675   4.330   2.318  14.671  2.8653  4.1420  1.1009
11754TIP3   OH256676   2.408   0.200   4.994  0.0853 -0.4713  0.0005
11754TIP3    H156677   2.425   0.288   5.027  0.0379 -0.6639  0.5485
11754TIP3    H256678   2.361   0.156   5.064  0.5770 -1.1063 -0.0503
11755TIP3   OH256679   3.018   0.980   2.611 -0.5669 -0.4981 -0.3546
11755TIP3    H156680   3.060   1.021   2.536 -0.5907  0.5781  0.2023
11755TIP3    H256681   2.973   1.052   2.656  1.9573 -0.4848  2.4147
11756TIP3   OH256682   2.105   1.927  15.780  0.1864 -0.2312 -0.2157
11756TIP3    H156683   2.033   1.874  15.816 -0.7973  1.2764  0.1133
11756TIP3    H256684   2.152   1.957  15.857 -0.7803  1.4224 -0.2230
11757TIP3   OH256685   4.982   5.413   1.814 -0.4280  0.5000 -0.1314
11757TIP3    H156686   5.000   5.427   1.907  0.0571 -2.4212  0.2925
11757TIP3    H256687   5.061   5.443   1.770  1.1844 -2.0782  0.8240
11758TIP3   OH256688   4.842   3.986  16.170 -0.0103  0.0120  0.2058
11758TIP3    H156689   4.787   3.950  16.101  1.4494 -0.4371 -0.7660
11758TIP3    H256690   4.861   3.911  16.226  0.5728 -0.0918 -0.1279
11759TIP3   OH256691   3.744   0.599   0.704  0.2802 -0.1059  0.2616
11759TIP3    H156692   3.829   0.630   0.673  0.1830 -0.6477 -0.5501
11759TIP3    H256693   3.700   0.678   0.737  0.2370  0.5587 -1.3151
11760TIP3   OH256694   6.459   3.944  13.754  0.2856  0.4861 -0.6567
11760TIP3    H156695   6.547   3.942  13.790 -0.2023 -2.3795  0.7357
11760TIP3    H256696   6.427   3.854  13.765 -3.1178  1.5928 -0.3152
11761TIP3   OH256697   2.581   1.407   0.463 -0.0353  0.4225  0.3080
11761TIP3    H156698   2.510   1.348   0.486 -0.8098  1.7372  1.4630
11761TIP3    H256699   2.646   1.352   0.421 -0.6900 -1.2486  1.4087
11762TIP3   OH256700   5.150   5.124  16.033 -0.3581  0.3030  0.3680
11762TIP3    H156701   5.082   5.060  16.056  0.0252 -0.1545  0.2443
11762TIP3    H256702   5.114   5.208  16.061 -0.0466 -0.1839  2.3582
11763TIP3   OH256703   3.165   5.952   2.460 -0.7110  0.2361 -0.1141
11763TIP3    H156704   3.126   5.924   2.543 -0.4004  0.3580  0.0748
11763TIP3    H256705   3.259   5.946   2.474 -0.5960  2.1497  0.2180
11764TIP3   OH256706   6.199   2.839   2.617 -0.1719  0.0455 -0.1901
11764TIP3    H156707   6.252   2.762   2.600 -0.1161  0.0888 -0.2133
11764TIP3    H256708   6.237   2.907   2.561  0.3210  0.3214  0.4653
11765TIP3   OH256709   3.905   6.071   4.629 -0.2740  0.4653  0.1880
11765TIP3    H156710   3.953   6.003   4.581 -0.8029  1.7041 -2.2432
11765TIP3    H256711   3.849   6.112   4.563 -1.5332  1.8891  2.0346
11766TIP3   OH256712   5.238   4.850   2.132  0.0883  0.2176  0.3630
11766TIP3    H156713   5.146   4.876   2.121 -0.7394 -1.6324  2.2749
11766TIP3    H256714   5.287   4.929   2.110 -2.0009  1.6335  0.4147
11767TIP3   OH256715   4.451   2.920  15.597  0.2481  0.0265 -0.0314
11767TIP3    H156716   4.488   2.956  15.678  1.6227  0.9100 -1.0085
11767TIP3    H256717   4.493   2.835  15.587  3.6029  1.6992 -2.0195
11768TIP3   OH256718   0.865   3.976  10.046  0.2635 -0.4566 -0.0652
11768TIP3    H156719   0.877   3.934  10.131  1.1190 -0.1408 -0.0217
11768TIP3    H256720   0.953   4.004  10.020 -0.3503  2.0502  0.2856
11769TIP3   OH256721   3.379   3.267  14.216 -0.1219 -0.2844 -0.4620
11769TIP3    H156722   3.470   3.249  14.240 -0.1824  1.5657  1.4663
11769TIP3    H256723   3.331   3.189  14.243  0.6165 -0.3900  0.6115
11770TIP3   OH256724   4.319   0.492  16.020 -0.0494 -0.3102  0.3274
11770TIP3    H156725   4.299   0.585  16.018  0.1236 -0.2751 -0.7494
11770TIP3    H256726   4.284   0.458  15.937 -0.1146 -1.2049  0.7000
11771TIP3   OH256727   5.882   3.424   4.831  0.1451 -0.4295  0.1630
11771TIP3    H156728   5.878   3.373   4.751  0.0583 -0.0400 -0.0834
11771TIP3    H256729   5.900   3.514   4.802 -1.3054 -0.0209  0.4707
11772TIP3   OH256730   3.543   4.654  16.214  0.4165 -0.2080  0.3073
11772TIP3    H156731   3.547   4.689  16.125 -1.4468 -0.8076 -0.0481
11772TIP3    H256732   3.518   4.728  16.268 -0.7454 -0.3433 -0.0284
11773TIP3   OH256733   0.818   6.734   3.664  0.2149  0.9229  0.6005
11773TIP3    H156734   0.736   6.763   3.625  0.5215  3.3623  1.5829
11773TIP3    H256735   0.827   6.787   3.743  2.5796  0.5012  0.6886
11774TIP3   OH256736   6.764   4.113  14.590  0.4102  0.0697  0.2212
11774TIP3    H156737   6.695   4.179  14.582 -0.9420 -1.2560  0.1827
11774TIP3    H256738   6.796   4.121  14.679  1.9853  2.3193 -0.4691
11775TIP3   OH256739   4.497   1.230  10.536 -0.2424  0.3706  0.6436
11775TIP3    H156740   4.582   1.203  10.501  1.3095  1.8697  2.9883
11775TIP3    H256741   4.509   1.321  10.562 -3.3585  1.4688 -1.1074
11776TIP3   OH256742   3.055   2.402   1.559 -0.3235  0.7796  0.4115
11776TIP3    H156743   2.962   2.396   1.536  0.2512  1.6887 -2.5898
11776TIP3    H256744   3.082   2.311   1.570 -1.2164  0.3924 -0.3800
11777TIP3   OH256745   5.933   3.539  14.084  0.2787 -0.3169  0.5349
11777TIP3    H156746   5.876   3.553  14.160  0.9458 -1.8313  1.3686
11777TIP3    H256747   5.934   3.623  14.039 -0.4841  0.5031  1.9697
11778TIP3   OH256748   6.707   0.470  11.183  0.6658 -0.3689 -0.5609
11778TIP3    H156749   6.664   0.385  11.174 -0.5084  0.2855 -1.4453
11778TIP3    H256750   6.635   0.532  11.190  1.4760  0.7217 -1.5358
11779TIP3   OH256751   2.592   1.056   1.870 -0.3903  0.6380 -0.3603
11779TIP3    H156752   2.604   1.106   1.789 -0.9719  2.0091  0.3750
11779TIP3    H256753   2.526   0.990   1.848 -1.0286  1.4126 -0.8406
11780TIP3   OH256754   1.489   5.786  11.479 -0.1085  0.5599 -0.1244
11780TIP3    H156755   1.449   5.857  11.529 -1.3723  0.5200 -1.0086
11780TIP3    H256756   1.441   5.786  11.396  0.7770 -0.4683 -0.6561
11781TIP3   OH256757   5.698   2.041  15.967 -0.0297 -0.0482  0.3130
11781TIP3    H156758   5.622   2.092  15.938  1.9383  2.6352 -0.5290
11781TIP3    H256759   5.739   2.097  16.033  0.9538 -1.6758  1.1244
11782TIP3   OH256760   5.609   5.317   5.520 -0.1629 -0.2824  0.1324
11782TIP3    H156761   5.674   5.248   5.538 -1.5948 -1.7290  0.0045
11782TIP3    H256762   5.525   5.274   5.533 -1.1212  1.4640 -0.0192
11783TIP3   OH256763   6.794   2.566  14.047 -0.0722  0.1494 -0.1638
11783TIP3    H156764   6.806   2.547  13.953 -0.3305  1.3799 -0.4632
11783TIP3    H256765   6.709   2.610  14.051 -1.2453 -2.0850  0.9946
11784TIP3   OH256766   3.499   2.241   6.327  0.3046 -0.1674 -0.3046
11784TIP3    H156767   3.501   2.277   6.415 -2.0278 -2.7826  0.9667
11784TIP3    H256768   3.442   2.299   6.277  1.0559  0.9121  0.0621
11785TIP3   OH256769   5.367   2.948   5.660  0.6005  0.3972  0.2397
11785TIP3    H156770   5.323   3.028   5.632  0.7551  0.5065  0.3135
11785TIP3    H256771   5.334   2.931   5.748  1.8441  1.3052  0.8977
11786TIP3   OH256772   1.831   1.769  16.748 -0.2903  0.2554 -0.0318
11786TIP3    H156773   1.748   1.721  16.751  0.2613 -0.6894  0.7816
11786TIP3    H256774   1.815   1.840  16.686 -1.3659 -0.5465 -0.7144
11787TIP3   OH256775   6.565   1.017  11.632  0.1122 -0.2421  0.2775
11787TIP3    H156776   6.506   1.078  11.676  1.2909  0.6712  0.6465
11787TIP3    H256777   6.539   0.931  11.665 -1.8590 -0.0241 -0.5682
11788TIP3   OH256778   0.941   4.831  13.085  0.2048 -1.1934 -0.5418
11788TIP3    H156779   0.875   4.764  13.064  0.0840 -1.6239  1.0557
11788TIP3    H256780   1.024   4.785  13.080  0.1532 -1.3745  0.1509
11789TIP3   OH256781   0.325   2.896  11.407  0.3900  0.9089  0.5038
11789TIP3    H156782   0.353   2.804  11.408  1.4515  1.2086  0.0067
11789TIP3    H256783   0.389   2.941  11.463  1.5659  1.7756 -1.4356
11790TIP3   OH256784   6.547   1.284   4.008  0.2635 -0.7794 -0.4849
11790TIP3    H156785   6.594   1.363   3.978 -1.2786 -0.2303 -1.5698
11790TIP3    H256786   6.608   1.243   4.070  0.7061  1.8118  0.9644
11791TIP3   OH256787   3.424   3.552   7.483 -0.1055  0.1909  0.1157
11791TIP3    H156788   3.483   3.500   7.428 -0.6687  0.7035 -1.0039
11791TIP3    H256789   3.338   3.513   7.468 -0.3372  0.6414  0.2727
11792TIP3   OH256790   5.393   1.070  13.582 -0.2431 -0.5512  0.4192
11792TIP3    H156791   5.470   1.052  13.636  0.0043 -0.7361  0.0175
11792TIP3    H256792   5.352   0.984  13.569  0.6959 -0.8122 -1.1461
11793TIP3   OH256793   5.530   4.779   2.478 -0.4590  0.0932 -0.2831
11793TIP3    H156794   5.500   4.688   2.469  0.6793 -0.2395 -0.9713
11793TIP3    H256795   5.565   4.784   2.567  0.4855 -0.4878 -0.5962
11794TIP3   OH256796   0.391   0.312  16.646 -0.4888 -0.1134 -0.1919
11794TIP3    H156797   0.328   0.241  16.635 -0.1674 -0.3652 -0.4758
11794TIP3    H256798   0.351   0.387  16.603 -0.4191 -0.3846 -0.7504
11795TIP3   OH256799   5.668   1.062   1.516 -0.5223  0.4932 -0.3727
11795TIP3    H156800   5.696   1.130   1.454  0.4470 -1.1774 -1.8457
11795TIP3    H256801   5.585   1.030   1.480 -0.6740  0.4624 -0.0049
11796TIP3   OH256802   2.655   5.346   0.267  0.1361 -0.1435  0.1855
11796TIP3    H156803   2.673   5.270   0.322 -2.9967 -1.1942 -0.0793
11796TIP3    H256804   2.678   5.318   0.178  0.5795 -0.1530  0.2981
11797TIP3   OH256805   4.973   0.807   0.056  0.7254  0.0600 -0.0263
11797TIP3    H156806   4.889   0.845   0.030  0.3229 -0.3031  0.7229
11797TIP3    H256807   5.038   0.867   0.020  0.2794 -1.0829 -3.0439
11798TIP3   OH256808   1.634   2.096   4.164 -0.2430  0.0983 -0.3311
11798TIP3    H156809   1.708   2.145   4.127  0.9216 -2.1901 -1.2118
11798TIP3    H256810   1.562   2.158   4.164  1.3285  2.0257 -0.6831
11799TIP3   OH256811   0.241   1.491   6.543 -0.1236 -0.2949  0.0124
11799TIP3    H156812   0.214   1.441   6.620 -0.7089  0.9350  0.6400
11799TIP3    H256813   0.177   1.468   6.476 -1.8298  1.3254  0.9914
11800TIP3   OH256814   2.594   5.088   1.513  0.0505  0.0689 -0.0850
11800TIP3    H156815   2.644   5.080   1.432 -0.2411 -0.1943 -0.2395
11800TIP3    H256816   2.642   5.153   1.564  1.0061 -0.7601  0.1076
11801TIP3   OH256817   5.040   4.329  11.667  0.9828 -0.4362 -0.1685
11801TIP3    H156818   4.993   4.353  11.747  1.2616  2.6690 -0.8203
11801TIP3    H256819   4.971   4.306  11.605  0.5910 -0.1576  0.1577
11802TIP3   OH256820   0.921   6.236   3.570 -0.0255 -0.0235  0.3243
11802TIP3    H156821   0.853   6.294   3.604 -0.0081  0.5432 -0.5742
11802TIP3    H256822   0.877   6.151   3.562 -0.7727  0.4391 -0.6683
11803TIP3   OH256823   0.454   4.034  13.277  0.0794  0.1258 -0.3166
11803TIP3    H156824   0.425   3.989  13.197 -1.3608  0.1140  0.1673
11803TIP3    H256825   0.390   4.104  13.289  0.8576  0.7471  0.2904
11804TIP3   OH256826   5.045   1.875  14.368 -0.2223 -0.1869  0.0020
11804TIP3    H156827   5.018   1.836  14.451 -0.3640 -1.2484 -0.5143
11804TIP3    H256828   4.963   1.888  14.320 -0.0834 -0.3734 -0.2928
11805TIP3   OH256829   6.361   6.439   6.428  0.6592 -0.2126 -0.4633
11805TIP3    H156830   6.425   6.403   6.489  0.2170 -0.0563  0.0993
11805TIP3    H256831   6.283   6.386   6.442 -0.3862  1.6325  1.2122
11806TIP3   OH256832   1.215   5.605  16.346  0.0500 -0.1642 -0.2413
11806TIP3    H156833   1.232   5.677  16.406 -1.0834 -0.0351 -0.0506
11806TIP3    H256834   1.295   5.596  16.296  0.4586  0.7570  0.2272
11807TIP3   OH256835   0.927   4.156   2.687 -0.1881 -0.1619  0.3566
11807TIP3    H156836   0.906   4.089   2.752 -1.6169 -0.0357  0.0502
11807TIP3    H256837   1.010   4.193   2.718 -0.8263 -0.1008  2.1211
11808TIP3   OH256838   4.406   4.511   5.549  0.0187  0.5266 -0.3019
11808TIP3    H156839   4.326   4.514   5.497 -1.6428  1.4310  2.1296
11808TIP3    H256840   4.376   4.494   5.638  2.5471  0.9607  0.7202
11809TIP3   OH256841   0.314   0.414   5.391  0.1770 -0.0236  0.1789
11809TIP3    H156842   0.361   0.496   5.408  0.5797 -0.3031  0.4124
11809TIP3    H256843   0.380   0.345   5.402 -0.5261 -0.5097  1.5877
11810TIP3   OH256844   6.541   3.881  12.055 -0.4124  0.2527 -0.3050
11810TIP3    H156845   6.554   3.801  12.106 -2.4238 -1.8412 -2.7931
11810TIP3    H256846   6.585   3.863  11.972 -1.3913  1.4943 -1.1157
11811TIP3   OH256847   5.901   3.769   3.732 -0.2779 -0.4025 -0.2846
11811TIP3    H156848   5.815   3.732   3.752 -0.2163 -1.5338 -1.9847
11811TIP3    H256849   5.896   3.859   3.765 -2.4280 -0.1725 -1.0880
11812TIP3   OH256850   5.858   1.610   2.862 -0.3343 -0.0893  0.4175
11812TIP3    H156851   5.881   1.696   2.827 -2.4682 -0.0176 -1.0293
11812TIP3    H256852   5.932   1.554   2.840  0.3462  0.9996 -0.1341
11813TIP3   OH256853   6.712   0.462   4.724 -0.1386  0.9866  0.5314
11813TIP3    H156854   6.793   0.492   4.682  0.0812 -0.8819 -0.4659
11813TIP3    H256855   6.738   0.382   4.770 -1.3482  0.5613  0.4874
11814TIP3   OH256856   3.703   5.492   0.100  0.0833  0.0834 -0.4744
11814TIP3    H156857   3.760   5.512   0.174  1.7134 -1.1743 -1.3139
11814TIP3    H256858   3.614   5.503   0.134  0.7916  1.3128  1.1209
11815TIP3   OH256859   3.526   1.686  12.864  0.4579 -0.7184 -0.4220
11815TIP3    H156860   3.559   1.627  12.932  2.5039  0.6176 -0.1759
11815TIP3    H256861   3.564   1.653  12.783  1.7513  0.2790 -0.2614
11816TIP3   OH256862   2.907   6.767  14.737  0.0164 -0.2593  0.1964
11816TIP3    H156863   2.811   6.763  14.738 -0.1172  1.5691 -0.4629
11816TIP3    H256864   2.930   6.745  14.647 -0.0910  2.5417 -0.6348
11817TIP3   OH256865   0.889   4.839  12.432 -0.1464 -0.0776 -0.2051
11817TIP3    H156866   0.862   4.908  12.492  1.4854  1.0939 -0.7476
11817TIP3    H256867   0.841   4.856  12.351  0.5083  0.6528 -0.4481
11818TIP3   OH256868   5.767   1.226  14.735 -0.2356 -0.0603 -0.2908
11818TIP3    H156869   5.808   1.243  14.651 -0.8602  0.7885 -0.4385
11818TIP3    H256870   5.767   1.131  14.743  1.8173 -0.0989 -0.2337
11819TIP3   OH256871   2.097   3.355   1.850  0.3676  0.2905 -0.4551
11819TIP3    H156872   2.136   3.430   1.806  0.0864  0.7008 -0.0222
11819TIP3    H256873   2.128   3.361   1.941  0.2787 -0.0713 -0.3964
11820TIP3   OH256874   6.779   3.202  15.762 -0.0942  0.1031  0.6421
11820TIP3    H156875   6.793   3.292  15.735  0.3272  0.1698  1.0847
11820TIP3    H256876   6.865   3.170  15.787  0.6153 -1.7059 -3.2967
11821TIP3   OH256877   1.625   6.602   1.973  0.1287 -0.0922 -0.1726
11821TIP3    H156878   1.579   6.523   1.945 -0.3795 -0.9001  2.6701
11821TIP3    H256879   1.556   6.658   2.009  0.7766  0.6997 -0.1472
11822TIP3   OH256880   1.309   2.625   5.235 -0.1127  0.1617  0.7287
11822TIP3    H156881   1.393   2.605   5.276 -0.0267 -0.6073  0.2025
11822TIP3    H256882   1.309   2.720   5.224  1.1744  0.0676 -0.2761
11823TIP3   OH256883   1.142   1.082   1.236  0.4655 -0.5350  0.2382
11823TIP3    H156884   1.065   1.102   1.183 -0.0546  0.9018  1.4767
11823TIP3    H256885   1.174   1.167   1.266  1.9666 -1.1744  0.5435
11824TIP3   OH256886   5.728   5.049   3.105 -0.0172  0.1708  0.2624
11824TIP3    H156887   5.675   5.022   3.180 -1.0864  1.0009 -0.1554
11824TIP3    H256888   5.668   5.101   3.051  0.7267 -0.4062 -1.1698
11825TIP3   OH256889   6.125   1.671   4.488 -0.1725 -0.5159 -0.2842
11825TIP3    H156890   6.119   1.702   4.398  2.1070  1.4771  0.1370
11825TIP3    H256891   6.205   1.619   4.491  1.3106  1.6647  1.0527
11826TIP3   OH256892   3.094   0.707  13.925 -0.8627 -0.2325 -0.3317
11826TIP3    H156893   3.128   0.762  13.995  1.6561 -0.1421 -1.5087
11826TIP3    H256894   3.139   0.623  13.936 -1.2677 -0.5698 -1.1655
11827TIP3   OH256895   3.308   5.045   5.640  0.0364 -0.1043  0.1485
11827TIP3    H156896   3.280   4.954   5.646 -1.1592  0.1448 -1.2808
11827TIP3    H256897   3.272   5.086   5.719  3.9400 -1.6029  3.0243
11828TIP3   OH256898   5.029   0.981  14.784 -0.0331 -0.1379  0.2472
11828TIP3    H156899   4.980   0.981  14.866  0.0979 -0.5971  0.3330
11828TIP3    H256900   5.109   0.932  14.804 -0.0925 -0.4276 -0.2056
11829TIP3   OH256901   3.067   1.537  15.464 -0.5065  0.2663 -0.9236
11829TIP3    H156902   2.981   1.504  15.437  0.0569 -0.6210 -1.6659
11829TIP3    H256903   3.117   1.541  15.383  1.0158 -1.7931 -0.1640
11830TIP3   OH256904   4.864   3.616   2.702 -0.1861  0.0880  0.3172
11830TIP3    H156905   4.772   3.625   2.726 -0.5757  0.6195 -1.3145
11830TIP3    H256906   4.864   3.605   2.607  1.5250  2.2407 -0.0284
11831TIP3   OH256907   6.126   1.351   6.432 -0.1799  0.2598 -0.1281
11831TIP3    H156908   6.198   1.297   6.466 -0.8773 -0.8836 -0.4349
11831TIP3    H256909   6.101   1.406   6.507 -0.5102 -0.9705  0.6983
11832TIP3   OH256910   1.685   6.598   4.665  0.2667  0.7884 -0.9334
11832TIP3    H156911   1.635   6.626   4.742  0.3106 -0.6018 -0.3596
11832TIP3    H256912   1.765   6.650   4.668  0.5802  0.2859  0.3782
11833TIP3   OH256913   1.010   1.299   4.037  0.5488  0.2914  0.0387
11833TIP3    H156914   0.929   1.312   3.988  1.3567 -0.8626 -1.6955
11833TIP3    H256915   1.004   1.362   4.109 -2.0693 -0.0557  0.2359
11834TIP3   OH256916   5.115   1.430  15.164  0.3599  0.1187  0.0287
11834TIP3    H156917   5.190   1.375  15.143  1.4778  1.4312  0.4966
11834TIP3    H256918   5.118   1.501  15.100 -1.1081 -0.3559 -0.6116
11835TIP3   OH256919   5.272   5.299   5.893 -0.0562  0.0515 -0.8361
11835TIP3    H156920   5.361   5.271   5.914 -0.9494 -0.2629  3.4372
11835TIP3    H256921   5.221   5.218   5.891 -0.5593  0.3730 -1.6358
11836TIP3   OH256922   3.473   4.495  14.763 -0.7061  0.2664 -0.6830
11836TIP3    H156923   3.405   4.428  14.755 -0.5873  0.1722 -0.9091
11836TIP3    H256924   3.441   4.554  14.831 -0.6995 -0.1483 -0.3215
11837TIP3   OH256925   6.475   2.406  16.976 -0.3274  0.1316 -0.3291
11837TIP3    H156926   6.548   2.427  16.917 -0.9111 -0.9170 -1.4754
11837TIP3    H256927   6.433   2.330  16.935 -2.0254  0.6748  0.3430
11838TIP3   OH256928   0.950   4.806   0.311 -0.0040  0.0167  0.3502
11838TIP3    H156929   0.882   4.873   0.309  0.0534  0.0714 -1.1967
11838TIP3    H256930   0.922   4.746   0.380 -0.5901  1.0729  1.0651
11839TIP3   OH256931   0.381   0.700   0.045  0.4268 -0.6581 -0.2473
11839TIP3    H156932   0.445   0.698  -0.026  0.2118 -1.6407 -0.4194
11839TIP3    H256933   0.434   0.690   0.124  0.7387  1.0998 -0.1919
11840TIP3   OH256934   4.542   0.275   4.326  0.5158 -0.3319 -0.0167
11840TIP3    H156935   4.507   0.199   4.372  1.9035 -0.7281  0.4481
11840TIP3    H256936   4.519   0.350   4.381  1.2269 -0.6864  0.7761
11841TIP3   OH256937   4.109   3.496   7.514  0.0207  0.0790  0.2325
11841TIP3    H156938   4.125   3.572   7.458  0.3210 -0.9563 -1.1611
11841TIP3    H256939   4.039   3.449   7.470 -0.0058 -0.5681  0.9502
11842TIP3   OH256940   1.664   0.885   4.003 -0.0483 -0.2865 -0.3294
11842TIP3    H156941   1.638   0.873   3.912 -0.7876 -1.8507  0.0489
11842TIP3    H256942   1.760   0.887   4.001 -0.0534 -0.6157 -1.1070
11843TIP3   OH256943   0.877   1.201  13.421  0.1752  0.0800 -1.1790
11843TIP3    H156944   0.958   1.152  13.435 -1.5377 -2.2235  1.7118
11843TIP3    H256945   0.875   1.263  13.494 -1.1843 -0.7369 -0.4925
11844TIP3   OH256946   3.064   3.894   4.928  0.9999 -0.7834  0.3337
11844TIP3    H156947   2.976   3.926   4.949  0.1829 -2.3249 -0.5702
11844TIP3    H256948   3.110   3.972   4.896 -0.0293  0.0434  0.7766
11845TIP3   OH256949   0.852   6.027  10.285 -0.3495 -0.2426 -0.4978
11845TIP3    H156950   0.848   5.934  10.265 -1.6260 -0.4303  0.4984
11845TIP3    H256951   0.915   6.033  10.357  0.2645 -0.2235 -1.0204
11846TIP3   OH256952   3.691   5.358  11.070  0.2199 -0.3364 -0.0718
11846TIP3    H156953   3.599   5.344  11.094  0.3761  0.4872  1.1176
11846TIP3    H256954   3.688   5.422  10.999 -0.2171 -2.1576 -1.7710
11847TIP3   OH256955   0.403   0.318  12.351  0.6378 -0.1745  0.5481
11847TIP3    H156956   0.370   0.381  12.415  0.3033  0.9301 -0.6727
11847TIP3    H256957   0.498   0.329  12.353  0.5088  2.0304 -1.1997
11848TIP3   OH256958   1.996   5.009   4.060 -0.5814 -0.3904  0.3423
11848TIP3    H156959   2.008   5.093   4.105 -0.7430 -0.8355  1.2269
11848TIP3    H256960   2.073   4.958   4.083  0.6950  0.3057 -2.0700
11849TIP3   OH256961   5.802   5.771  16.741 -0.0972  0.5119 -0.3318
11849TIP3    H156962   5.772   5.755  16.831 -0.5221  0.4888 -0.4758
11849TIP3    H256963   5.728   5.746  16.686  1.0608 -2.0809 -0.8586
11850TIP3   OH256964   4.084   4.167  16.443 -0.0302  0.1660 -0.4235
11850TIP3    H156965   4.026   4.221  16.498 -0.0112  0.3310 -0.5621
11850TIP3    H256966   4.106   4.225  16.370 -0.3343 -0.1667 -0.7822
11851TIP3   OH256967   3.817   6.060   4.041  0.1311  0.6018  0.2892
11851TIP3    H156968   3.756   6.041   3.969  0.4463 -2.5711  0.7196
11851TIP3    H256969   3.766   6.115   4.101 -0.6934  1.9082 -1.5013
11852TIP3   OH256970   1.415   1.160   4.670  0.0152 -0.3232 -0.1761
11852TIP3    H156971   1.364   1.234   4.637  1.0457  0.4526 -0.0767
11852TIP3    H256972   1.360   1.084   4.653 -0.3013  0.2431 -1.9744
11853TIP3   OH256973   1.136   6.687  16.274  0.0184  0.5950 -0.4497
11853TIP3    H156974   1.083   6.610  16.256  1.3416 -0.1846 -1.1999
11853TIP3    H256975   1.099   6.724  16.354  0.5201 -1.9249  1.0505
11854TIP3   OH256976   4.436   6.358  16.891 -0.2216  0.6251  0.0508
11854TIP3    H156977   4.485   6.276  16.898  1.1693  1.4651  0.5583
11854TIP3    H256978   4.444   6.398  16.977  0.4312  2.0002 -0.6216
11855TIP3   OH256979   2.187   0.618  15.662 -0.5428 -0.0513 -0.0797
11855TIP3    H156980   2.129   0.693  15.674 -0.2429  0.2754 -0.6520
11855TIP3    H256981   2.260   0.635  15.722  0.4837  1.1051 -1.5841
11856TIP3   OH256982   0.036   0.219   0.104 -0.0264  0.0276 -0.0052
11856TIP3    H156983   0.091   0.227   0.182 -0.4032  0.1221  0.2549
11856TIP3    H256984   0.085   0.161   0.046  0.9574  1.1272 -0.3174
11857TIP3   OH256985   2.535   6.667  15.902  0.1714  0.1426  0.4283
11857TIP3    H156986   2.483   6.641  15.826  0.7263 -1.1938  0.4784
11857TIP3    H256987   2.483   6.734  15.945 -0.9337 -0.2789 -0.2182
11858TIP3   OH256988   5.472   1.743   1.500 -0.1448  0.4592 -0.2368
11858TIP3    H156989   5.448   1.732   1.592  2.0236  2.2478  0.6431
11858TIP3    H256990   5.511   1.660   1.475 -1.3564 -0.2772  0.2070
11859TIP3   OH256991   1.681   2.923   3.533 -0.1192  0.7797  0.2116
11859TIP3    H156992   1.748   2.952   3.595  1.8882 -1.3182 -0.8099
11859TIP3    H256993   1.729   2.905   3.452 -2.1402  0.3640 -0.9783
11860TIP3   OH256994   6.519   6.527   3.610 -0.2446 -1.0085 -0.4883
11860TIP3    H156995   6.612   6.546   3.601 -0.2883  1.3763  2.5700
11860TIP3    H256996   6.475   6.607   3.583 -1.3492 -1.5648 -0.3929
11861TIP3   OH256997   0.953   4.180   5.599 -0.6869 -0.2620  0.4192
11861TIP3    H156998   0.895   4.236   5.546 -0.2598  0.2514  0.4847
11861TIP3    H256999   1.014   4.142   5.536 -1.4646 -1.2881  0.2640
11862TIP3   OH257000   4.447   1.520   1.719 -0.2939 -0.0695 -0.1217
11862TIP3    H157001   4.401   1.438   1.733 -0.0676 -0.1689  0.0553
11862TIP3    H257002   4.538   1.501   1.743  0.1600 -0.2952 -1.8832
11863TIP3   OH257003   2.263   5.376   4.851 -0.1378 -0.1797 -0.0282
11863TIP3    H157004   2.359   5.372   4.861  0.2193  1.1775 -2.2447
11863TIP3    H257005   2.229   5.356   4.938  2.1663 -0.4537  0.8766
11864TIP3   OH257006   1.188   2.225  13.636  0.6265  0.1141  0.3930
11864TIP3    H157007   1.141   2.305  13.659  2.4945  1.5797 -0.5516
11864TIP3    H257008   1.121   2.168  13.598 -0.5336  1.8455 -0.3273
11865TIP3   OH257009   4.838   3.504   3.262  0.4659 -0.4937  0.2241
11865TIP3    H157010   4.920   3.541   3.294  0.7798 -0.8198 -0.2134
11865TIP3    H257011   4.779   3.580   3.255  0.5503 -0.3360  1.0543
11866TIP3   OH257012   0.445   1.065   0.897 -0.1771  0.6503  0.0439
11866TIP3    H157013   0.503   1.130   0.857 -0.8294  0.0811 -1.9068
11866TIP3    H257014   0.370   1.060   0.838 -1.2741 -0.1379  1.4353
11867TIP3   OH257015   5.058   4.683   1.065  0.1021  0.0562  0.5237
11867TIP3    H157016   5.005   4.605   1.081 -0.0505  0.1346  0.3915
11867TIP3    H257017   5.042   4.739   1.141  1.2447 -0.6091  1.3062
11868TIP3   OH257018   4.754   6.543  12.323 -0.5976 -0.5590  0.0086
11868TIP3    H157019   4.821   6.542  12.392 -1.2812 -1.5627  0.6877
11868TIP3    H257020   4.760   6.630  12.285  3.1216 -1.4514 -1.9779
11869TIP3   OH257021   2.272   6.248  10.503  0.4426 -0.5103  0.2095
11869TIP3    H157022   2.190   6.234  10.455  1.0590 -1.0003 -0.7336
11869TIP3    H257023   2.316   6.163  10.499  1.1935 -0.1302  0.3327
11870TIP3   OH257024   5.629   6.076  16.805  0.0176 -0.0263 -0.2866
11870TIP3    H157025   5.622   6.030  16.722  0.7402  3.7633 -2.7368
11870TIP3    H257026   5.576   6.155  16.793  2.3536  2.0203  1.7242
11871TIP3   OH257027   0.056   4.690   3.634 -0.2046 -0.4561 -0.2759
11871TIP3    H157028   0.046   4.675   3.541 -2.7712  1.8424 -0.4890
11871TIP3    H257029   0.070   4.785   3.642  0.4448 -0.6570  1.6612
11872TIP3   OH257030   4.197   6.211   4.572  0.1724 -0.2415 -0.1754
11872TIP3    H157031   4.277   6.254   4.601 -0.7588 -0.3620  3.0276
11872TIP3    H257032   4.139   6.283   4.548  0.6219 -0.0538 -0.7086
11873TIP3   OH257033   0.517   0.938   5.948 -0.2317  0.1355  0.5738
11873TIP3    H157034   0.471   1.008   5.900 -2.1509 -0.5597  1.3031
11873TIP3    H257035   0.551   0.981   6.026 -1.3412  0.3057  0.9853
11874TIP3   OH257036   2.956   2.692   4.573 -0.5286  0.3888  0.3994
11874TIP3    H157037   3.010   2.619   4.604  0.3421  1.0910  0.5615
11874TIP3    H257038   2.973   2.696   4.479  0.9857  1.6104  0.6815
11875TIP3   OH257039   4.643   6.621   2.765  0.2226 -0.0626  0.4042
11875TIP3    H157040   4.580   6.589   2.701 -0.6694 -1.6851  1.9936
11875TIP3    H257041   4.688   6.543   2.797  3.5463  1.1019 -1.0644
11876TIP3   OH257042   1.344   1.402   1.823 -0.1707 -0.6324  0.9930
11876TIP3    H157043   1.302   1.454   1.891  0.5073  0.0795  0.8782
11876TIP3    H257044   1.425   1.371   1.863 -0.1512 -0.8804  0.7673
11877TIP3   OH257045   2.952   5.286  11.895 -0.0437 -0.4203  0.3050
11877TIP3    H157046   2.922   5.247  11.813 -0.4595  3.0694 -1.3689
11877TIP3    H257047   2.898   5.365  11.905  1.1631  0.1589  3.0687
11878TIP3   OH257048   4.774   2.644   3.525 -0.0122  0.8545 -0.2220
11878TIP3    H157049   4.750   2.731   3.493  0.2346  1.3703  0.9533
11878TIP3    H257050   4.870   2.643   3.521  0.0227  0.9202  0.4560
11879TIP3   OH257051   3.001   5.948   0.653 -0.2330  0.0098  0.4224
11879TIP3    H157052   2.975   5.878   0.593 -1.5612  1.5909 -0.9478
11879TIP3    H257053   3.063   6.001   0.603 -0.2155  0.5331  0.9860
11880TIP3   OH257054   4.397   6.069  15.024 -0.1565 -0.0790 -0.0944
11880TIP3    H157055   4.465   6.021  14.977  0.4883  0.2327  0.5044
11880TIP3    H257056   4.339   6.002  15.059 -1.2737 -0.3113 -2.1961
11881TIP3   OH257057   3.789   1.932   2.863 -0.0717 -0.3866 -0.0913
11881TIP3    H157058   3.731   2.008   2.855 -3.0638 -2.2591  1.9114
11881TIP3    H257059   3.858   1.949   2.799 -1.4864  3.1735 -0.9523
11882TIP3   OH257060   3.636   6.072   3.336 -0.1270  0.4944  0.0167
11882TIP3    H157061   3.564   6.015   3.309  0.1962  0.0033  0.2004
11882TIP3    H257062   3.599   6.161   3.329 -0.6989  0.2569 -0.0480
11883TIP3   OH257063   0.636   1.637  11.419  0.2507 -0.5336  0.1432
11883TIP3    H157064   0.626   1.678  11.504 -0.4418  0.6099 -0.4664
11883TIP3    H257065   0.671   1.549  11.438  0.6212 -0.1019  1.5430
11884TIP3   OH257066   1.508   1.179  15.018  0.0900  0.0256  0.2667
11884TIP3    H157067   1.438   1.229  14.977 -0.4375 -0.8330  0.0804
11884TIP3    H257068   1.489   1.088  14.995  0.2236 -0.4025  1.7558
11885TIP3   OH257069   4.398   3.032   2.310 -0.1496  0.3060 -0.1147
11885TIP3    H157070   4.489   3.004   2.303 -0.1115  0.3838  0.0447
11885TIP3    H257071   4.373   3.058   2.222  0.1594  0.8163 -0.0590
11886TIP3   OH257072   1.831   4.069   1.324 -0.3972 -0.1862  0.2486
11886TIP3    H157073   1.907   4.117   1.356 -1.4927  3.1757 -1.7577
11886TIP3    H257074   1.867   4.000   1.269  1.2565  1.7489 -1.2061
11887TIP3   OH257075   6.611   0.856  16.163  0.2279 -0.3252  0.0745
11887TIP3    H157076   6.620   0.762  16.176 -3.8180 -0.8533  0.1220
11887TIP3    H257077   6.575   0.888  16.246  0.2439  1.0406 -0.4282
11888TIP3   OH257078   0.144   6.143  14.683 -0.7338 -0.1898  0.5682
11888TIP3    H157079   0.187   6.187  14.610  0.3648  0.0671  1.3317
11888TIP3    H257080   0.212   6.087  14.720 -1.4624 -0.7992  0.9936
11889TIP3   OH257081   6.012   4.866   4.050 -0.0767 -1.0363  0.4334
11889TIP3    H157082   6.063   4.889   3.972 -1.9153 -0.8289 -0.7920
11889TIP3    H257083   6.042   4.778   4.073  1.3867 -0.6005  0.2697
11890TIP3   OH257084   4.204   1.031   4.280  0.4895 -0.5134 -0.0679
11890TIP3    H157085   4.167   1.051   4.366 -0.5612 -1.6590 -0.2301
11890TIP3    H257086   4.136   1.056   4.218  2.0351  2.3637 -0.7901
11891TIP3   OH257087   3.076   0.026  12.038 -0.2978  0.0353  0.1320
11891TIP3    H157088   3.007   0.092  12.049  0.4519  1.0165 -0.8027
11891TIP3    H257089   3.128   0.059  11.965 -0.0769 -1.7596 -0.5621
11892TIP3   OH257090   0.860   4.154  12.020 -0.1540  0.8057  0.4461
11892TIP3    H157091   0.806   4.220  11.978  0.9178  1.3745 -0.0879
11892TIP3    H257092   0.950   4.176  11.994  0.2236 -0.9375  0.1564
11893TIP3   OH257093   4.295   5.568  15.449  0.0104 -0.7987  0.1023
11893TIP3    H157094   4.213   5.559  15.399 -0.1590 -1.1816  0.4404
11893TIP3    H257095   4.351   5.622  15.394 -0.1079 -1.3550 -0.5877
11894TIP3   OH257096   6.699   1.576   3.701  0.1268  0.0121  0.2966
11894TIP3    H157097   6.743   1.657   3.675 -0.6887 -0.1053 -1.6631
11894TIP3    H257098   6.712   1.517   3.627 -0.7028 -1.0741  0.9830
11895TIP3   OH257099   3.370   1.540  10.244  0.4628 -0.3729  0.8436
11895TIP3    H157100   3.310   1.472  10.273 -1.2917 -0.2268 -1.9958
11895TIP3    H257101   3.322   1.622  10.255  0.7445 -0.0791 -0.0043
11896TIP3   OH257102   1.380   0.346   2.862  0.0375 -0.3972 -0.1844
11896TIP3    H157103   1.402   0.296   2.941  1.8860  1.1949  0.3887
11896TIP3    H257104   1.286   0.334   2.852 -0.2368 -0.8213  2.1841
11897TIP3   OH257105   0.732   2.522  14.288  0.1351  0.0381 -0.3993
11897TIP3    H157106   0.732   2.590  14.355  0.7944 -0.1648 -0.1855
11897TIP3    H257107   0.811   2.472  14.304  0.9233  0.6706 -2.0211
11898TIP3   OH257108   1.692   0.654   1.127  0.2449 -0.4215  0.6519
11898TIP3    H157109   1.725   0.743   1.123  2.7052 -1.3074 -0.7473
11898TIP3    H257110   1.603   0.660   1.092  0.6134  1.3621 -0.0741
11899TIP3   OH257111   2.938   1.881  16.627 -0.3150  0.1995  0.4552
11899TIP3    H157112   2.894   1.798  16.607  1.6041 -0.8114  0.1817
11899TIP3    H257113   2.964   1.873  16.719 -0.2344  0.5445  0.4630
11900TIP3   OH257114   6.574   4.472   0.885 -0.2561 -0.0311 -0.2250
11900TIP3    H157115   6.630   4.514   0.951 -1.1259  1.2502 -0.2557
11900TIP3    H257116   6.583   4.378   0.901  1.4124  0.1700  0.1585
11901TIP3   OH257117   4.639   6.403  12.108  0.1960  0.0701  0.0738
11901TIP3    H157118   4.555   6.436  12.138  0.2068 -0.7676  1.0670
11901TIP3    H257119   4.702   6.437  12.171  0.0945 -2.5941  1.7633
11902TIP3   OH257120   2.377   2.647   1.829 -0.3297 -0.6172 -0.0460
11902TIP3    H157121   2.471   2.656   1.840 -0.4463 -0.5057  0.9326
11902TIP3    H257122   2.367   2.600   1.746  0.5344  0.7205 -0.9472
11903TIP3   OH257123   6.275   4.218   2.961  0.1367 -0.2418 -0.1549
11903TIP3    H157124   6.285   4.177   3.047  0.5297  1.4907  0.6524
11903TIP3    H257125   6.238   4.148   2.906  2.3284 -2.2225  0.6992
11904TIP3   OH257126   5.444   0.755  13.224 -0.8508 -0.3207 -0.1761
11904TIP3    H157127   5.445   0.736  13.318 -0.6878  1.2882  0.1691
11904TIP3    H257128   5.435   0.850  13.218  0.3704 -0.2593 -1.7877
11905TIP3   OH257129   4.462   0.324   2.558 -0.2814  0.2013  0.3703
11905TIP3    H157130   4.460   0.395   2.622 -1.8721  1.0416 -0.5487
11905TIP3    H257131   4.544   0.278   2.575  0.7761  2.2269  1.0314
11906TIP3   OH257132   1.135   4.685  12.010  0.1917  0.4167 -0.3985
11906TIP3    H157133   1.214   4.709  12.058  0.7668  0.2109 -1.2180
11906TIP3    H257134   1.070   4.667  12.078  0.6503  1.2458  0.2716
11907TIP3   OH257135   5.134   3.126  10.613 -0.1607 -0.2821 -0.2420
11907TIP3    H157136   5.073   3.069  10.660 -1.4078  0.6954 -0.6092
11907TIP3    H257137   5.119   3.213  10.650  1.6612 -0.1410  0.2577
11908TIP3   OH257138   2.902   0.914   1.908  0.4974 -0.4823 -0.0287
11908TIP3    H157139   2.867   0.829   1.883  0.0469 -0.0638 -0.8584
11908TIP3    H257140   2.971   0.894   1.972 -1.2669 -1.3302  1.6950
11909TIP3   OH257141   5.146   6.764   3.986 -0.5562  0.5595  0.0561
11909TIP3    H157142   5.233   6.804   3.983  0.0453 -0.4327  1.9965
11909TIP3    H257143   5.089   6.832   4.021  0.1304  0.3031  1.7891
11910TIP3   OH257144   3.098   2.188  12.770 -0.3784  0.4773  0.3571
11910TIP3    H157145   3.150   2.110  12.790  1.8860  2.0879  0.9960
11910TIP3    H257146   3.158   2.247  12.725 -2.6681  1.0173 -2.3251
11911TIP3   OH257147   2.053   2.313   0.184  0.6261  0.1553  0.5136
11911TIP3    H157148   2.069   2.251   0.254  3.6739 -0.7850 -0.8400
11911TIP3    H257149   2.061   2.261   0.103 -1.8103  1.3692 -0.5976
11912TIP3   OH257150   0.305   2.261  11.533  0.3736 -0.0010 -0.1958
11912TIP3    H157151   0.239   2.225  11.591 -0.1224  1.7115  0.3534
11912TIP3    H257152   0.312   2.197  11.462 -0.3974 -1.1819  0.7613
11913TIP3   OH257153   1.076   1.165   0.828 -0.4770  0.3707  0.1616
11913TIP3    H157154   1.131   1.089   0.847 -0.6053  0.4683  0.9613
11913TIP3    H257155   1.132   1.240   0.848 -0.0467  0.5313 -1.4540
11914TIP3   OH257156   3.439   5.124  13.895  0.2015 -0.6763 -0.2083
11914TIP3    H157157   3.355   5.081  13.878  0.8965 -2.0012 -0.4285
11914TIP3    H257158   3.415   5.214  13.919 -1.3031 -1.1609  0.2408
11915TIP3   OH257159   1.674   3.188  13.987 -0.1191 -0.0571 -0.5021
11915TIP3    H157160   1.604   3.157  13.930 -0.6731 -3.0613  1.5593
11915TIP3    H257161   1.754   3.165  13.940 -0.5281  0.1028 -1.2932
11916TIP3   OH257162   4.157   5.772  15.656 -0.1780  0.0188  0.2703
11916TIP3    H157163   4.245   5.753  15.688  0.1828 -0.0059 -0.6927
11916TIP3    H257164   4.099   5.728  15.718  0.4759  0.2775  1.0753
11917TIP3   OH257165   6.017   2.394  12.311  0.4213  0.3133 -0.3303
11917TIP3    H157166   5.996   2.342  12.388  2.7328 -0.0671  0.1131
11917TIP3    H257167   6.075   2.463  12.343 -3.2004  3.8942 -0.7269
11918TIP3   OH257168   1.284   5.808   2.335 -0.0417  0.3776 -0.1639
11918TIP3    H157169   1.347   5.790   2.405 -0.1430  0.3014 -0.0916
11918TIP3    H257170   1.209   5.847   2.380 -0.2710 -0.0411 -0.1760
11919TIP3   OH257171   0.355   3.583   5.766 -0.4968  0.4251 -0.0983
11919TIP3    H157172   0.338   3.677   5.767  1.8264  0.8905  0.1737
11919TIP3    H257173   0.408   3.567   5.845  0.7059 -0.7594 -1.0982
11920TIP3   OH257174   0.785   3.230   4.902 -0.7249 -0.0681 -0.2919
11920TIP3    H157175   0.880   3.224   4.914 -0.7337 -0.4041 -0.3907
11920TIP3    H257176   0.764   3.161   4.839 -1.1368 -0.4905  0.2975
11921TIP3   OH257177   5.390   3.548  10.794  0.1009 -0.3019 -0.2420
11921TIP3    H157178   5.382   3.573  10.702  1.7300  0.4694 -0.2163
11921TIP3    H257179   5.425   3.626  10.836  0.1905 -0.9299  0.8774
11922TIP3   OH257180   1.175   6.596  15.661 -0.4651 -0.1344  0.4676
11922TIP3    H157181   1.201   6.681  15.695 -0.0065  0.0829 -0.3985
11922TIP3    H257182   1.152   6.545  15.739 -0.7908  0.7872  0.9919
11923TIP3   OH257183   0.266   6.271  16.911  0.5663 -0.4956 -0.2680
11923TIP3    H157184   0.186   6.270  16.963  1.2687  3.5928  1.3407
11923TIP3    H257185   0.335   6.250  16.974  1.2368  2.6781  0.2650
11924TIP3   OH257186   3.742   2.727   1.784 -0.3578  0.0710  0.3432
11924TIP3    H157187   3.766   2.719   1.692 -3.4138  1.5659 -0.7249
11924TIP3    H257188   3.723   2.820   1.795 -1.5596 -0.3329  2.0334
11925TIP3   OH257189   2.456   4.788   0.527  0.3735 -0.3372 -0.4059
11925TIP3    H157190   2.386   4.844   0.559 -1.2449 -3.0030  1.0736
11925TIP3    H257191   2.415   4.703   0.515  3.2222 -1.8756 -0.0865
11926TIP3   OH257192   2.301   3.176   4.625  0.0695 -0.1374  0.4351
11926TIP3    H157193   2.323   3.211   4.539 -0.4516 -2.4086 -0.6853
11926TIP3    H257194   2.206   3.167   4.625  0.0865 -0.4535  1.1154
11927TIP3   OH257195   4.696   5.862  13.455  0.2393  0.1064 -0.8110
11927TIP3    H157196   4.618   5.812  13.432  0.7103 -0.2926 -1.6013
11927TIP3    H257197   4.765   5.795  13.464  0.9910  0.6330 -2.3676
11928TIP3   OH257198   0.721   1.687  15.736  0.0916 -0.1399  0.3760
11928TIP3    H157199   0.630   1.665  15.715  0.0621 -0.3938  0.7727
11928TIP3    H257200   0.757   1.608  15.775  0.2595  0.2134  0.9429
11929TIP3   OH257201   3.165   4.580  12.318 -0.0202  0.4688 -0.4828
11929TIP3    H157202   3.237   4.533  12.361  0.2610  0.8196 -0.5559
11929TIP3    H257203   3.195   4.593  12.229 -0.7160 -0.4826 -0.8698
11930TIP3   OH257204   1.687   4.593   0.113  0.0835 -0.1988 -0.3184
11930TIP3    H157205   1.663   4.565   0.202 -0.2523 -1.3538 -0.7583
11930TIP3    H257206   1.715   4.513   0.070  0.8658  0.4636 -1.0750
11931TIP3   OH257207   2.741   6.048   0.685  0.5143 -0.4347  0.2089
11931TIP3    H157208   2.827   6.034   0.726  0.9142  0.5061 -0.2750
11931TIP3    H257209   2.735   6.143   0.675  0.6257 -0.6213 -2.3044
11932TIP3   OH257210   6.381   0.777   3.908 -0.1561 -0.4396  0.6880
11932TIP3    H157211   6.413   0.867   3.903 -1.2582  0.1099  2.4965
11932TIP3    H257212   6.289   0.783   3.880 -0.4153 -0.8676  1.4162
11933TIP3   OH257213   5.721   4.686  11.917  0.5690 -0.5752 -0.1391
11933TIP3    H157214   5.767   4.677  12.000  1.0439  0.2325 -0.3048
11933TIP3    H257215   5.789   4.706  11.853  0.0567  0.1564 -0.4736
11934TIP3   OH257216   1.200   1.836  12.029  0.0305 -0.2560  0.6530
11934TIP3    H157217   1.226   1.834  12.121  1.0272 -0.1393  0.3910
11934TIP3    H257218   1.270   1.788  11.984  0.0901  0.5861 -0.1711
11935TIP3   OH257219   0.386   6.167  11.226  0.4162 -0.3184  0.0630
11935TIP3    H157220   0.321   6.161  11.296  0.2878 -0.3526 -0.0596
11935TIP3    H257221   0.343   6.218  11.158  1.1517  1.2297  0.7024
11936TIP3   OH257222   4.857   2.668  16.514  0.5429 -0.1383  0.1522
11936TIP3    H157223   4.856   2.688  16.608  0.5337  0.4781  0.0255
11936TIP3    H257224   4.842   2.573  16.509  0.2603 -0.1282  0.7601
11937TIP3   OH257225   1.101   2.710   3.486  0.4991 -0.2523  0.1980
11937TIP3    H157226   1.050   2.764   3.426  1.1105 -0.1181 -0.2116
11937TIP3    H257227   1.167   2.669   3.431 -0.1499 -1.7010  0.4348
11938TIP3   OH257228   5.163   1.079  11.337  0.0270 -0.0771  0.4539
11938TIP3    H157229   5.132   1.114  11.254  1.1469 -1.7324 -0.7052
11938TIP3    H257230   5.087   1.084  11.395 -1.3087 -0.5412 -1.1859
11939TIP3   OH257231   3.951   1.644   2.875  0.1192  0.2694  0.0448
11939TIP3    H157232   3.898   1.569   2.900 -1.2185  0.2118 -2.6470
11939TIP3    H257233   3.957   1.639   2.779  6.0691 -0.4615  0.0607
11940TIP3   OH257234   2.572   4.714   5.092 -0.2563 -0.2255 -0.3513
11940TIP3    H157235   2.578   4.620   5.109 -0.3989 -0.3048 -0.7254
11940TIP3    H257236   2.559   4.721   4.998 -1.9385  0.0906 -0.1277
11941TIP3   OH257237   5.879   5.020  15.520  0.2730 -0.2825 -0.0086
11941TIP3    H157238   5.941   5.013  15.593 -0.1293  0.0692  0.3707
11941TIP3    H257239   5.833   4.936  15.521  0.5679 -0.4464 -0.1304
11942TIP3   OH257240   4.506   1.440  14.775 -0.4310  0.5764 -0.0298
11942TIP3    H157241   4.545   1.433  14.862 -0.1403 -2.6541 -0.2860
11942TIP3    H257242   4.414   1.417  14.788 -0.1771 -0.9182 -0.6407
11943TIP3   OH257243   4.364   0.030  10.912 -0.0905 -0.7991 -0.0569
11943TIP3    H157244   4.376   0.001  11.002  1.3395 -1.2136 -0.3608
11943TIP3    H257245   4.452   0.027  10.874 -0.7055 -0.8381 -1.5264
11944TIP3   OH257246   4.747   0.353  11.163 -0.1002  0.0622  0.0876
11944TIP3    H157247   4.831   0.381  11.127 -0.8973  2.3018 -0.1633
11944TIP3    H257248   4.702   0.311  11.090 -0.0620  0.8471 -0.3952
11945TIP3   OH257249   6.519   2.565  11.559 -0.3053  0.5523  0.2998
11945TIP3    H157250   6.569   2.616  11.495 -1.7130 -0.3678 -1.6143
11945TIP3    H257251   6.444   2.621  11.580 -0.2085  0.5619  0.6210
11946TIP3   OH257252   5.127   6.361  11.301 -0.5176  0.2763  0.3623
11946TIP3    H157253   5.041   6.328  11.272 -0.4019  0.2787  0.0115
11946TIP3    H257254   5.162   6.291  11.356 -0.5493  0.0824  0.1382
11947TIP3   OH257255   5.084   1.144   2.469 -0.3414  0.4431  0.2621
11947TIP3    H157256   5.095   1.051   2.448  0.9626  0.8360 -1.0627
11947TIP3    H257257   5.013   1.173   2.412  1.3233  0.8783 -1.7539
11948TIP3   OH257258   0.440   2.858  16.952  0.0795 -0.1505  0.2144
11948TIP3    H157259   0.533   2.879  16.963 -0.2739  3.3329 -1.8377
11948TIP3    H257260   0.396   2.904  17.024 -0.2285  0.3436 -0.2841
11949TIP3   OH257261   3.049   2.485   4.705 -0.4798  0.0866  0.2555
11949TIP3    H157262   3.130   2.458   4.662 -1.0042 -0.1988 -0.5768
11949TIP3    H257263   3.070   2.486   4.798  0.6255  0.5292  0.0129
11950TIP3   OH257264   6.530   2.690  15.717 -0.1872  0.2725  0.6121
11950TIP3    H157265   6.587   2.640  15.658  1.2255 -1.8883  3.5542
11950TIP3    H257266   6.576   2.772  15.733  0.3954  0.0031  0.3136
11951TIP3   OH257267   4.306   4.013   5.356  0.6672  0.3244 -0.2217
11951TIP3    H157268   4.261   4.045   5.434 -1.0098 -0.5760 -0.7614
11951TIP3    H257269   4.350   3.933   5.385  1.8726  1.1503  0.2851
11952TIP3   OH257270   1.264   3.709   5.164  0.4048 -0.4973 -0.4025
11952TIP3    H157271   1.200   3.649   5.126 -1.6516 -0.8555  3.2171
11952TIP3    H257272   1.238   3.796   5.132 -1.6125 -0.7074  0.5445
11953TIP3   OH257273   1.782   0.775  12.859  0.3345 -0.1545 -0.0087
11953TIP3    H157274   1.719   0.747  12.925  0.9529 -1.3124  0.1114
11953TIP3    H257275   1.734   0.771  12.776  0.4974 -2.0127 -0.0528
11954TIP3   OH257276   4.341   0.669  15.772  0.2478 -0.5609  0.3278
11954TIP3    H157277   4.277   0.598  15.776 -1.3709  0.6615 -1.8702
11954TIP3    H257278   4.310   0.732  15.837 -1.4594  0.4618 -1.3780
11955TIP3   OH257279   3.674   1.755   2.311  0.4777  0.1483  0.1663
11955TIP3    H157280   3.607   1.744   2.379  0.9587  0.1766  0.6581
11955TIP3    H257281   3.726   1.674   2.317 -0.9202 -0.9882 -1.8375
11956TIP3   OH257282   0.482   3.156   4.339  0.4479  0.3882 -0.4337
11956TIP3    H157283   0.490   3.064   4.315  0.2524  0.0924  0.6155
11956TIP3    H257284   0.405   3.186   4.289  1.5508  0.4764 -2.1625
11957TIP3   OH257285   4.612   1.633   0.203  0.6942  0.6578  0.2459
11957TIP3    H157286   4.546   1.702   0.191 -1.8489 -1.5553  0.6134
11957TIP3    H257287   4.690   1.680   0.234 -0.1728  3.5876 -1.5709
11958TIP3   OH257288   1.519   6.485  11.119 -0.0002 -0.2964 -0.4273
11958TIP3    H157289   1.605   6.508  11.082  0.7352 -0.8279  0.9000
11958TIP3    H257290   1.504   6.395  11.089  0.1296 -0.3733 -0.2604
11959TIP3   OH257291   3.280   6.512  14.730  0.1291 -0.0846  0.0483
11959TIP3    H157292   3.366   6.494  14.767  0.1052 -1.4336 -0.5031
11959TIP3    H257293   3.296   6.530  14.638 -0.1905 -0.5254 -0.0980
11960TIP3   OH257294   6.490   2.618  11.238 -0.5664  0.0361  0.1934
11960TIP3    H157295   6.546   2.605  11.161  1.1594 -1.1218  1.5597
11960TIP3    H257296   6.473   2.712  11.239 -2.0146 -0.1060 -2.4740
11961TIP3   OH257297   3.124   3.535  15.715 -0.8672  0.2557 -0.1605
11961TIP3    H157298   3.212   3.509  15.743 -1.0459 -0.6237 -0.3773
11961TIP3    H257299   3.127   3.533  15.620 -0.5355  2.3134 -0.2302
11962TIP3   OH257300   5.541   3.026   3.421 -0.3925 -0.3915 -0.0141
11962TIP3    H157301   5.508   2.942   3.455  2.1388 -1.2722  0.4825
11962TIP3    H257302   5.581   3.068   3.497  2.0381 -0.6893 -1.0325
11963TIP3   OH257303   6.264   2.908  15.431 -0.1126 -0.3406 -0.2256
11963TIP3    H157304   6.189   2.875  15.480 -0.2259  0.8705  0.4596
11963TIP3    H257305   6.255   2.870  15.344 -1.8437  0.2369 -0.3363
11964TIP3   OH257306   0.586   1.984   2.058 -0.1000 -0.3446  0.4493
11964TIP3    H157307   0.546   2.055   2.109 -0.4300 -1.5447  1.9477
11964TIP3    H257308   0.538   1.906   2.085  0.1959 -1.1501 -1.2200
11965TIP3   OH257309   2.435   4.977  16.381  0.2185  0.9058  0.3435
11965TIP3    H157310   2.484   5.059  16.375 -0.6845  1.4010 -0.5943
11965TIP3    H257311   2.465   4.926  16.305 -0.1265  0.8772  0.2268
11966TIP3   OH257312   5.352   2.339  14.940  0.0793 -0.0775  0.4841
11966TIP3    H157313   5.436   2.378  14.961 -1.6078  2.8041  2.5482
11966TIP3    H257314   5.352   2.332  14.844  2.5972 -0.1968  0.4304
11967TIP3   OH257315   2.956   1.582  13.839 -0.0920 -0.2960  0.1497
11967TIP3    H157316   2.980   1.619  13.924  0.4116 -1.3444  0.4716
11967TIP3    H257317   2.863   1.605  13.828 -0.5717 -1.3930  1.6506
11968TIP3   OH257318   5.838   4.911   4.683  0.0363 -0.3675 -0.4167
11968TIP3    H157319   5.744   4.896   4.684 -0.1261  0.3377  1.9468
11968TIP3    H257320   5.849   4.998   4.722  1.6359 -0.2139 -1.1300
11969TIP3   OH257321   5.286   5.343  13.597 -0.8585 -0.1622  0.3348
11969TIP3    H157322   5.237   5.261  13.593 -0.7239 -0.2042 -0.6757
11969TIP3    H257323   5.374   5.320  13.570 -1.0763  0.4893 -1.0272
11970TIP3   OH257324   5.275   4.545  13.777  0.6539 -0.0990  0.2289
11970TIP3    H157325   5.289   4.598  13.699  0.1029  0.9990  0.8546
11970TIP3    H257326   5.338   4.473  13.769  1.8649  0.9938 -0.3330
11971TIP3   OH257327   5.248   6.726  12.781 -0.0352  0.5941  0.4886
11971TIP3    H157328   5.185   6.672  12.828 -0.1891  0.9769  0.7294
11971TIP3    H257329   5.331   6.679  12.789  0.0354  0.8682  1.5261
11972TIP3   OH257330   0.905   2.457  12.553  0.0884  0.2003  0.2672
11972TIP3    H157331   0.963   2.434  12.625 -0.8625  0.7377  1.2214
11972TIP3    H257332   0.863   2.538  12.580  0.4100  0.9391 -1.3086
11973TIP3   OH257333   0.994   3.343  15.393  0.0750 -0.1030  0.2102
11973TIP3    H157334   1.013   3.299  15.475 -1.4737  0.3803  0.8781
11973TIP3    H257335   0.937   3.417  15.418  0.3129  0.5925 -1.1831
11974TIP3   OH257336   2.134   4.190   0.837  0.2425  0.3196  0.1398
11974TIP3    H157337   2.073   4.197   0.911 -2.5701 -0.6754 -1.9214
11974TIP3    H257338   2.169   4.279   0.827 -3.2240  1.8077 -0.3369
11975TIP3   OH257339   1.298   4.072   4.661 -0.3035  0.2378 -0.7433
11975TIP3    H157340   1.213   4.090   4.620 -1.4014 -0.2351  1.1910
11975TIP3    H257341   1.313   3.979   4.644  0.2876  0.5057 -1.8139
11976TIP3   OH257342   0.454   5.216  12.774 -0.6469 -0.3276  0.0259
11976TIP3    H157343   0.421   5.164  12.846 -1.3899 -0.2803 -0.2714
11976TIP3    H257344   0.420   5.173  12.695 -0.2121 -0.1270 -0.2759
11977TIP3   OH257345   0.249   4.898   5.514 -0.1930  0.2527 -0.0836
11977TIP3    H157346   0.286   4.973   5.468  0.8355 -0.0809  0.1852
11977TIP3    H257347   0.228   4.835   5.445 -0.9606  0.7303 -0.3000
11978TIP3   OH257348   0.369   2.393   5.124  0.0722 -0.0194  0.7035
11978TIP3    H157349   0.368   2.327   5.194 -0.6697  0.7457  1.4496
11978TIP3    H257350   0.406   2.471   5.166 -0.5823  0.5152  0.3154
11979TIP3   OH257351   2.275   4.233   3.899 -0.6840 -0.6461 -0.3162
11979TIP3    H157352   2.240   4.192   3.978  0.0988  0.0004  0.3963
11979TIP3    H257353   2.312   4.160   3.848  1.2773 -0.8263  1.2312
11980TIP3   OH257354   4.050   3.186  12.629 -0.2081 -0.2201 -0.0676
11980TIP3    H157355   4.123   3.209  12.687 -2.5249  0.2272  2.9490
11980TIP3    H257356   4.058   3.247  12.555  2.0146  0.3091  0.5365
11981TIP3   OH257357   6.296   0.475  15.835 -0.4645 -0.0111 -0.1524
11981TIP3    H157358   6.217   0.448  15.881  0.3716 -0.3610  1.1192
11981TIP3    H257359   6.306   0.568  15.856 -0.4602  0.0034 -0.2162
11982TIP3   OH257360   6.218   5.154  14.357 -0.6833 -0.2401 -0.5191
11982TIP3    H157361   6.267   5.080  14.393 -0.1954 -0.2989 -1.2920
11982TIP3    H257362   6.211   5.136  14.264 -1.8173 -0.0159 -0.4945
11983TIP3   OH257363   1.880   4.004  11.865 -0.0041 -0.1225 -0.3327
11983TIP3    H157364   1.961   3.962  11.835 -0.4293 -2.8645  1.9338
11983TIP3    H257365   1.824   3.931  11.892 -2.8071  1.7441 -0.6779
11984TIP3   OH257366   1.012   5.548   1.625 -0.4987  0.3978 -0.8284
11984TIP3    H157367   1.095   5.558   1.578 -0.5716  2.7113 -0.5926
11984TIP3    H257368   1.037   5.508   1.709  0.9913  3.9504  0.6057
11985TIP3   OH257369   4.665   6.078   1.182  0.0442 -0.2116 -0.2721
11985TIP3    H157370   4.744   6.032   1.154  0.7165  1.2703 -0.9562
11985TIP3    H257371   4.651   6.144   1.114 -1.0887  0.3344  0.4673
11986TIP3   OH257372   3.294   2.170   4.492  0.4766 -0.1946  0.0639
11986TIP3    H157373   3.235   2.109   4.448  0.2694 -0.0415  0.1285
11986TIP3    H257374   3.299   2.246   4.434  1.0461 -0.4311 -0.2084
11987TIP3   OH257375   5.288   2.654  16.872 -0.5842  0.1446 -0.2152
11987TIP3    H157376   5.230   2.637  16.798  1.4108 -0.2439 -1.7702
11987TIP3    H257377   5.315   2.567  16.902 -0.4025  0.3241  0.1566
11988TIP3   OH257378   3.718   6.435  11.162 -0.1041  0.0152 -0.0698
11988TIP3    H157379   3.729   6.427  11.068  1.9236 -1.0062  0.2013
11988TIP3    H257380   3.807   6.448  11.196 -0.7719  0.2137  1.7100
11989TIP3   OH257381   4.260   5.005  14.354  0.2842  0.5783 -0.2331
11989TIP3    H157382   4.329   5.037  14.296 -0.5053 -0.3387 -1.7594
11989TIP3    H257383   4.179   5.037  14.314 -0.4400 -2.0148 -1.0485
11990TIP3   OH257384   5.056   1.164   3.330  0.4192  0.4465  0.1513
11990TIP3    H157385   5.139   1.180   3.285 -0.3669 -1.6495 -2.2742
11990TIP3    H257386   5.077   1.098   3.397  0.6708 -0.3630 -0.7055
11991TIP3   OH257387   5.440   4.954  16.370  0.1264  0.0470 -0.2769
11991TIP3    H157388   5.518   4.958  16.427  0.3219 -0.7393 -0.4803
11991TIP3    H257389   5.472   4.983  16.284 -0.3806  2.1837  0.1922
11992TIP3   OH257390   2.317   4.620   1.702 -0.2928  1.0057 -0.1624
11992TIP3    H157391   2.327   4.629   1.607 -0.1532  2.1422 -0.0454
11992TIP3    H257392   2.404   4.592   1.732  0.1401  2.2925 -0.1791
11993TIP3   OH257393   6.496   3.977   2.237 -0.1520 -0.1713  0.1514
11993TIP3    H157394   6.500   4.028   2.318  0.1580 -1.7994  1.2034
11993TIP3    H257395   6.416   4.006   2.194 -0.7770  0.1085  1.4706
11994TIP3   OH257396   1.882   5.873   4.643  0.2934 -0.1583 -0.1078
11994TIP3    H157397   1.891   5.913   4.729 -0.7577  1.2066 -0.5954
11994TIP3    H257398   1.967   5.832   4.626  1.0070  0.8424  0.9300
11995TIP3   OH257399   4.246   0.898   2.183  0.1328  0.1354 -0.4151
11995TIP3    H157400   4.263   0.924   2.093 -0.0871  1.3781 -0.1191
11995TIP3    H257401   4.330   0.906   2.227 -0.2821  2.3311  0.1152
11996TIP3   OH257402   6.764   6.516   1.532  0.3349 -0.4101 -0.3252
11996TIP3    H157403   6.672   6.520   1.506  0.3902 -0.6641 -0.5709
11996TIP3    H257404   6.799   6.602   1.510  0.2489 -0.4426 -0.5864
11997TIP3   OH257405   2.035   3.334   3.050  0.7967  0.6971 -0.8877
11997TIP3    H157406   1.990   3.272   2.991  0.2678 -1.2032  1.3586
11997TIP3    H257407   1.971   3.350   3.119  2.5075  0.2499  0.8648
11998TIP3   OH257408   0.521   5.012  14.879  0.5250 -0.2690 -0.0162
11998TIP3    H157409   0.552   5.084  14.824 -1.5267  1.1132  0.5209
11998TIP3    H257410   0.428   5.030  14.891  0.1907 -2.4423  1.0605
11999TIP3   OH257411   3.233   3.135   1.288  0.4361 -0.4086 -0.8484
11999TIP3    H157412   3.145   3.110   1.261  0.3306  0.0902 -0.9841
11999TIP3    H257413   3.221   3.218   1.335  0.8518 -0.2379 -1.0333
12000TIP3   OH257414   4.893   1.920   2.659  0.6486 -0.2373 -0.0173
12000TIP3    H157415   4.963   1.917   2.594  0.5334  1.9250 -0.3022
12000TIP3    H257416   4.893   2.010   2.691 -0.8195 -0.6565  1.3035
12001TIP3   OH257417   1.881   3.377   2.066  0.4327  0.5103  0.1829
12001TIP3    H157418   1.807   3.353   2.121 -0.2734 -0.0050 -0.9426
12001TIP3    H257419   1.928   3.294   2.053 -0.5690  0.1776 -1.6298
12002TIP3   OH257420   0.279   1.959  15.357 -0.6634 -0.6387 -0.1012
12002TIP3    H157421   0.242   1.888  15.408 -1.0726 -2.3033 -2.5204
12002TIP3    H257422   0.373   1.942  15.357 -0.4918  0.1981  1.2130
12003TIP3   OH257423   5.057   3.380  10.698  0.0595  0.0384 -0.1072
12003TIP3    H157424   5.107   3.462  10.705  0.8678 -0.5229  1.0346
12003TIP3    H257425   4.966   3.406  10.717 -0.1426  1.0819 -2.2746
12004TIP3   OH257426   1.248   5.659  16.677  0.4296 -1.0881 -0.1015
12004TIP3    H157427   1.273   5.736  16.626  1.0613 -2.0408 -1.2962
12004TIP3    H257428   1.155   5.671  16.696  0.7247  0.3829  0.5317
12005TIP3   OH257429   1.078   3.685  14.247 -0.3445 -0.2198  0.1252
12005TIP3    H157430   1.128   3.680  14.165 -0.0071  1.3641  0.2161
12005TIP3    H257431   1.067   3.593  14.273  0.7556 -0.6907 -0.9594
12006TIP3   OH257432   5.062   0.574  13.252 -0.6914  0.6395  0.7315
12006TIP3    H157433   5.071   0.668  13.234 -0.3249  0.4017 -0.3985
12006TIP3    H257434   4.968   0.559  13.257 -0.7468  1.1132  1.2439
12007TIP3   OH257435   0.187   3.384   4.686  0.3658 -0.0539 -0.4898
12007TIP3    H157436   0.148   3.353   4.767  0.0412 -0.3131 -0.7433
12007TIP3    H257437   0.118   3.372   4.620  0.7103 -0.0762 -0.8483
12008TIP3   OH257438   6.147   5.623  12.737  0.3554 -0.0973 -0.1482
12008TIP3    H157439   6.104   5.652  12.656  0.3109  1.1514  0.3034
12008TIP3    H257440   6.221   5.571  12.706 -0.4137 -0.7554 -0.9646
12009TIP3   OH257441   4.778   0.965   5.613  0.4840  0.0039 -0.2196
12009TIP3    H157442   4.819   0.976   5.527  1.3975  1.0814  0.3160
12009TIP3    H257443   4.824   1.028   5.668  0.0664 -0.8363  1.1166
12010TIP3   OH257444   0.523   6.323  12.480  0.4545  0.4188 -0.7554
12010TIP3    H157445   0.589   6.259  12.510  0.6638  0.5635 -0.9012
12010TIP3    H257446   0.557   6.353  12.396  1.0358  1.7039 -0.0899
12011TIP3   OH257447   5.701   5.172  12.161 -0.0724 -0.2760 -0.1492
12011TIP3    H157448   5.794   5.191  12.156  0.2731 -1.4231  1.2723
12011TIP3    H257449   5.684   5.114  12.087  0.4065 -0.2810 -0.2572
12012TIP3   OH257450   0.509   3.215  11.978 -0.8760 -0.5135 -0.4543
12012TIP3    H157451   0.525   3.197  12.070 -1.0745 -1.6733 -0.6352
12012TIP3    H257452   0.444   3.285  11.978  0.2990  0.6203  0.2768
12013TIP3   OH257453   6.762   3.514  15.766  0.3222 -0.7051 -0.0711
12013TIP3    H157454   6.679   3.525  15.719  0.3894  0.7610  0.1169
12013TIP3    H257455   6.743   3.544  15.854  0.4347 -2.6386  0.6614
12014TIP3   OH257456   0.183   0.857   0.968  0.0925  0.2183  0.5756
12014TIP3    H157457   0.148   0.769   0.984  0.1714 -0.0077 -0.3862
12014TIP3    H257458   0.253   0.843   0.903 -1.5291  1.2378 -1.5269
12015TIP3   OH257459   3.583   4.716   1.346 -0.3182  0.1939 -0.2014
12015TIP3    H157460   3.499   4.753   1.373  1.0876  2.9735  0.7597
12015TIP3    H257461   3.567   4.622   1.341 -3.8562  0.7047 -1.5969
12016TIP3   OH257462   4.790   4.958  10.573  0.1428 -0.0939 -0.5435
12016TIP3    H157463   4.757   4.895  10.638 -0.6551  1.4919  0.6695
12016TIP3    H257464   4.885   4.957  10.585  0.1237 -0.8959 -0.3929
12017TIP3   OH257465   6.051   2.918  11.815 -0.1733  0.1381  0.4739
12017TIP3    H157466   5.972   2.960  11.850 -1.2346 -1.7760  0.5290
12017TIP3    H257467   6.123   2.959  11.863 -1.3071  0.3320  2.0967
12018TIP3   OH257468   4.262   0.300   1.680  0.0292  0.1312 -0.1361
12018TIP3    H157469   4.229   0.315   1.592  2.1777 -0.7550 -1.1663
12018TIP3    H257470   4.188   0.319   1.738 -2.4402 -2.2191 -2.2604
12019TIP3   OH257471   6.425   6.019   3.851 -0.3252 -0.6118  0.1235
12019TIP3    H157472   6.427   6.080   3.777 -1.1423 -0.7457 -0.0136
12019TIP3    H257473   6.497   5.958   3.834 -0.2770 -0.4225 -0.3710
12020TIP3   OH257474   3.481   3.693   0.667 -0.2123  0.2521  0.0583
12020TIP3    H157475   3.393   3.679   0.701  0.0910 -1.8481  0.0930
12020TIP3    H257476   3.537   3.691   0.745 -0.1292  2.0908  0.0994
12021TIP3   OH257477   0.200   1.691   5.801  0.0453 -0.2781  0.0064
12021TIP3    H157478   0.153   1.661   5.879 -0.6389 -0.8034 -0.5850
12021TIP3    H257479   0.237   1.775   5.825 -1.4661  0.3096  0.4175
12022TIP3   OH257480   3.233   2.050   3.712 -0.5477  0.4727  0.2261
12022TIP3    H157481   3.212   2.077   3.623  1.3007 -1.4130 -0.8754
12022TIP3    H257482   3.215   1.956   3.714 -0.4302  0.4482  1.8180
12023TIP3   OH257483   5.001   4.962  16.928  0.3788  0.1505 -0.5243
12023TIP3    H157484   5.025   4.870  16.913 -1.6959 -0.8366  1.6410
12023TIP3    H257485   5.077   5.011  16.897  2.6584 -2.4305  0.5599
12024TIP3   OH257486   4.054   1.992  12.169 -0.0746 -0.2304  0.4930
12024TIP3    H157487   4.134   1.972  12.217 -0.5780  0.2025  1.5539
12024TIP3    H257488   4.002   2.045  12.230 -0.8569  0.1130 -0.4395
12025TIP3   OH257489   4.547   3.251   0.136  0.3681  0.1376 -0.0607
12025TIP3    H157490   4.531   3.264   0.229 -2.4140  0.8086 -0.5589
12025TIP3    H257491   4.477   3.193   0.107  1.2397 -0.1328 -1.7283
12026TIP3   OH257492   6.164   0.125   4.248  0.1598 -0.4790 -0.1349
12026TIP3    H157493   6.119   0.205   4.274  0.4145  0.9440 -3.5549
12026TIP3    H257494   6.257   0.144   4.264  0.0547 -1.1580  1.4554
12027TIP3   OH257495   0.877   0.818  11.363 -0.4067 -0.1481 -0.2634
12027TIP3    H157496   0.881   0.767  11.282 -5.1785  0.9859 -1.5467
12027TIP3    H257497   0.869   0.753  11.432  1.9227 -1.1055 -0.8058
12028TIP3   OH257498   0.017   1.717  16.430 -0.0348 -0.0994 -0.0535
12028TIP3    H157499   0.001   1.801  16.385 -2.7750  0.2872  1.4529
12028TIP3    H257500   0.097   1.732  16.480  0.0549  1.2792 -0.5571
12029TIP3   OH257501   6.626   1.231   1.957 -0.2525  0.0001 -0.2660
12029TIP3    H157502   6.583   1.216   2.041 -0.6345 -1.1457 -0.6541
12029TIP3    H257503   6.556   1.220   1.892 -0.1986  1.8328 -0.7131
12030TIP3   OH257504   3.367   2.282   3.977  0.0584  0.0593  0.0354
12030TIP3    H157505   3.404   2.320   3.897 -0.4727  0.2475 -0.1237
12030TIP3    H257506   3.443   2.272   4.035  0.3984  0.2181 -0.3701
12031TIP3   OH257507   5.701   2.147   5.269  0.1794 -0.5721 -0.1658
12031TIP3    H157508   5.753   2.167   5.347  0.6563 -0.6672 -0.4533
12031TIP3    H257509   5.676   2.055   5.279  2.5553 -1.4504 -1.3966
12032TIP3   OH257510   4.506   0.460   1.478  0.2572 -0.0949  0.7436
12032TIP3    H157511   4.414   0.447   1.453  0.1202  2.9567 -0.8024
12032TIP3    H257512   4.554   0.455   1.395  1.0937  1.0066  1.1390
12033TIP3   OH257513   4.966   4.808   1.283  0.0366 -0.5021 -0.2676
12033TIP3    H157514   4.901   4.863   1.239 -0.6090 -0.3841  0.8096
12033TIP3    H257515   4.990   4.856   1.362  1.3100 -0.6335 -0.5414
12034TIP3   OH257516   0.091   5.777  15.998 -0.2830  0.1066  0.6771
12034TIP3    H157517   0.139   5.860  15.997  0.6490 -0.4235 -0.4609
12034TIP3    H257518   0.110   5.740  16.085  0.5880  0.3640  0.6100
12035TIP3   OH257519   0.322   4.421  16.352 -0.0319 -0.0342  0.4266
12035TIP3    H157520   0.250   4.434  16.414 -0.0181  1.5511  0.1688
12035TIP3    H257521   0.278   4.397  16.270 -0.1465 -0.6334  0.6561
12036TIP3   OH257522   0.315   4.522   2.765 -0.2294  0.3167  0.3204
12036TIP3    H157523   0.221   4.520   2.747  0.1553  1.8193 -2.5209
12036TIP3    H257524   0.352   4.455   2.708  0.7128  2.6100 -2.0003
12037TIP3   OH257525   0.771   1.597  13.446  0.1323  0.0045  0.0300
12037TIP3    H157526   0.847   1.618  13.500 -0.9874  2.6007  0.7126
12037TIP3    H257527   0.707   1.561  13.507 -0.5006  1.3161  0.1753
12038TIP3   OH257528   3.305   6.472  15.494  0.3352 -0.0873  0.1036
12038TIP3    H157529   3.274   6.562  15.500  1.0731  0.2139 -0.4139
12038TIP3    H257530   3.230   6.422  15.462  0.3129  0.5959 -0.9622
12039TIP3   OH257531   6.495   0.871  12.671  0.0702 -0.0132  0.0439
12039TIP3    H157532   6.508   0.965  12.655 -2.1310  0.3665  0.0572
12039TIP3    H257533   6.428   0.846  12.607 -0.1914 -1.3013  0.7906
12040TIP3   OH257534   6.458   6.237  12.216 -0.2851  1.1912  0.0287
12040TIP3    H157535   6.496   6.188  12.289 -0.1712  0.9678 -0.1782
12040TIP3    H257536   6.370   6.261  12.246 -0.3162  0.9177  0.1611
12041TIP3   OH257537   1.505   2.949   1.182  0.1774  0.0098  0.0179
12041TIP3    H157538   1.592   2.986   1.193  0.5125 -0.8225  0.1942
12041TIP3    H257539   1.476   2.927   1.271 -0.7410  1.4104  0.1165
12042TIP3   OH257540   1.201   6.406  12.964 -0.5655  0.3443  1.0476
12042TIP3    H157541   1.193   6.374  12.874  1.5176  1.3877  0.4217
12042TIP3    H257542   1.111   6.408  12.997 -1.4266  0.2495 -1.1227
12043TIP3   OH257543   2.283   2.806  12.795  0.0796  0.0544 -0.1015
12043TIP3    H157544   2.247   2.738  12.853  0.1446 -0.2809 -0.4524
12043TIP3    H257545   2.207   2.849  12.758  0.0124  0.9756  1.0285
12044TIP3   OH257546   5.783   3.330  15.409  0.3954 -0.1996  0.1644
12044TIP3    H157547   5.718   3.266  15.437  0.6879 -0.9405 -0.8103
12044TIP3    H257548   5.858   3.315  15.467  0.4761 -0.7637 -0.0855
12045TIP3   OH257549   0.457   2.735   2.515  0.8354 -0.1397 -0.1486
12045TIP3    H157550   0.438   2.828   2.529  2.0809 -0.0002  0.8225
12045TIP3    H257551   0.377   2.690   2.541 -0.0589  0.6946 -1.3930
12046TIP3   OH257552   5.373   2.037  11.120 -0.4567  0.3846 -0.5509
12046TIP3    H157553   5.438   2.001  11.060  0.2325  0.4936  0.1261
12046TIP3    H257554   5.402   2.126  11.136 -0.8125  0.4566 -0.3031
12047TIP3   OH257555   0.489   0.662  12.349  0.3196 -0.7194 -0.0717
12047TIP3    H157556   0.478   0.662  12.254  2.1974 -0.6995 -0.3338
12047TIP3    H257557   0.442   0.740  12.379  0.9053  0.1012 -1.1827
12048TIP3   OH257558   3.769   6.340   1.872 -0.0837 -0.2856  0.5667
12048TIP3    H157559   3.674   6.350   1.872 -0.1052 -0.3271 -0.5786
12048TIP3    H257560   3.802   6.428   1.854 -0.0202 -0.7206 -1.7413
12049TIP3   OH257561   6.770   0.356   2.291 -0.2656 -0.2556  0.1163
12049TIP3    H157562   6.695   0.410   2.316 -1.0566 -0.7848 -1.0392
12049TIP3    H257563   6.840   0.382   2.353 -0.9902  1.1694  0.3818
12050TIP3   OH257564   0.620   5.879  13.602  0.0075 -0.1388 -0.3050
12050TIP3    H157565   0.693   5.827  13.635  0.2195  0.4929  0.2332
12050TIP3    H257566   0.648   5.907  13.515  1.0882  1.3939  0.4862
12051TIP3   OH257567   3.165   2.067  12.518  0.2583  0.2266 -0.5107
12051TIP3    H157568   3.166   2.000  12.586  1.7435  0.9150  0.1865
12051TIP3    H257569   3.122   2.025  12.444 -2.9827 -0.0134  1.3256
12052TIP3   OH257570   6.276   5.987   1.029 -0.6039 -0.3587 -0.0352
12052TIP3    H157571   6.188   5.950   1.038 -1.2638  0.8647 -1.0290
12052TIP3    H257572   6.260   6.079   1.007  0.8982 -0.4291 -1.5902
12053TIP3   OH257573   4.098   6.586  14.736  0.2650  0.1458  0.4963
12053TIP3    H157574   4.142   6.544  14.810 -1.0267 -0.4010  0.9873
12053TIP3    H257575   4.043   6.517  14.698 -0.2060  0.8098 -0.0559
12054TIP3   OH257576   6.160   1.776   5.458 -0.6895 -0.7773 -0.3352
12054TIP3    H157577   6.252   1.784   5.483 -0.6208 -2.1833 -0.0412
12054TIP3    H257578   6.153   1.822   5.375 -0.3695  1.8545  0.9970
12055TIP3   OH257579   0.211   5.295   0.729  0.3485 -0.8188  0.3377
12055TIP3    H157580   0.224   5.351   0.805 -0.8946 -0.0131 -0.0216
12055TIP3    H257581   0.128   5.250   0.745 -0.5754  0.2903 -1.0602
12056TIP3   OH257582   3.680   1.234   2.130 -0.3982  0.2165 -0.3090
12056TIP3    H157583   3.711   1.175   2.199  2.8990  2.9594  0.8308
12056TIP3    H257584   3.621   1.295   2.176 -2.1948 -0.8616 -1.0719
12057TIP3   OH257585   1.999   6.044   2.179 -0.1007 -0.1439  0.3731
12057TIP3    H157586   1.910   6.069   2.152  0.9273  2.2174 -1.2692
12057TIP3    H257587   1.991   6.019   2.271 -2.3670  0.5560  0.4230
12058TIP3   OH257588   0.912   6.779   6.429 -0.7689 -0.2392 -0.4155
12058TIP3    H157589   0.910   6.826   6.513  0.4073 -1.0925  0.1181
12058TIP3    H257590   0.832   6.808   6.384 -2.2106 -0.8334  1.6026
12059TIP3   OH257591   5.321   1.756  14.130  0.7739 -0.1935  0.2679
12059TIP3    H157592   5.279   1.832  14.090  0.5141 -0.4549  0.0408
12059TIP3    H257593   5.339   1.696  14.057  0.7059 -0.4776  0.4794
12060TIP3   OH257594   1.715   6.160  16.229 -0.3435 -0.0547 -0.2848
12060TIP3    H157595   1.739   6.196  16.144  2.1606  0.5721  0.5876
12060TIP3    H257596   1.772   6.084  16.239 -0.1388  0.2489  1.0611
12061TIP3   OH257597   4.754   4.070   2.352  0.9492  0.6346 -0.1897
12061TIP3    H157598   4.812   3.999   2.382  2.1302  0.7075 -2.1402
12061TIP3    H257599   4.684   4.024   2.306  0.6904  0.6613  0.1726
12062TIP3   OH257600   4.257   4.095  15.819  0.5329 -0.1392  0.6096
12062TIP3    H157601   4.265   4.114  15.726  0.4338  0.2001  0.6686
12062TIP3    H257602   4.286   4.175  15.863 -1.4663  0.5186  0.8514
12063TIP3   OH257603   2.484   1.567  12.459  0.1212  0.2747 -0.5012
12063TIP3    H157604   2.394   1.567  12.427  0.1226  0.3504 -0.5044
12063TIP3    H257605   2.500   1.476  12.483  0.3640  0.0740 -1.4080
12064TIP3   OH257606   1.408   4.783  12.418 -0.0343 -0.4156 -0.2762
12064TIP3    H157607   1.401   4.735  12.501  1.8685 -1.5980 -0.7248
12064TIP3    H257608   1.486   4.837  12.428 -0.4905  0.3786 -0.8750
12065TIP3   OH257609   6.046   4.564  14.491 -0.3160  0.3696  0.7113
12065TIP3    H157610   6.077   4.536  14.577  2.0819  0.8770  0.1072
12065TIP3    H257611   6.049   4.484  14.438 -1.5936  0.1008  1.0120
12066TIP3   OH257612   0.569   5.165  16.645  0.1676 -0.6040 -0.4276
12066TIP3    H157613   0.517   5.180  16.724  0.0920  2.3323 -0.9296
12066TIP3    H257614   0.659   5.158  16.676  0.3191  1.9702 -0.1054
12067TIP3   OH257615   0.722   1.833  14.526  0.6942 -0.7686  0.2125
12067TIP3    H157616   0.782   1.769  14.489 -0.1156 -0.8756 -0.9888
12067TIP3    H257617   0.705   1.894  14.454  0.1599 -0.1647  0.8341
12068TIP3   OH257618   3.401   1.722   1.755  0.3421 -0.3385 -0.1183
12068TIP3    H157619   3.411   1.684   1.668  1.2292 -3.4027  1.1830
12068TIP3    H257620   3.309   1.711   1.777  0.4002 -0.8555 -0.1362
12069TIP3   OH257621   0.929   2.514  11.545  0.7986 -0.3653 -0.1109
12069TIP3    H157622   0.850   2.569  11.543 -0.2097 -1.7739 -0.5407
12069TIP3    H257623   1.001   2.575  11.530 -0.1640  1.0299  0.7752
12070TIP3   OH257624   0.754   6.590   5.570  0.0967  0.5518 -0.4020
12070TIP3    H157625   0.747   6.501   5.604 -2.2424  0.0669 -1.9047
12070TIP3    H257626   0.823   6.585   5.504  1.4735  0.4212  0.9910
12071TIP3   OH257627   6.624   2.499  15.942 -0.5329  0.1643 -0.3079
12071TIP3    H157628   6.694   2.488  15.878 -0.1726 -0.7872  0.2213
12071TIP3    H257629   6.552   2.446  15.908 -0.0976 -0.9233  0.3874
12072TIP3   OH257630   3.992   6.669   1.012  0.3093 -0.4674  0.2933
12072TIP3    H157631   3.969   6.659   0.919 -0.7401 -0.8047  0.5771
12072TIP3    H257632   4.048   6.594   1.031  1.0569 -0.0562 -0.2146
12073TIP3   OH257633   4.669   3.568  11.353 -0.0455  0.4464 -0.0564
12073TIP3    H157634   4.729   3.590  11.282  1.7213 -0.5997  1.0436
12073TIP3    H257635   4.685   3.475  11.370 -2.3465  0.0061 -0.0233
12074TIP3   OH257636   1.427   5.990  11.686 -0.0437  0.3192 -0.1968
12074TIP3    H157637   1.348   6.035  11.658  0.6908  1.4196 -0.5496
12074TIP3    H257638   1.430   6.003  11.781 -0.4597 -0.0400 -0.1281
12075TIP3   OH257639   5.364   6.656  14.085  0.3300 -0.1775 -0.2471
12075TIP3    H157640   5.365   6.582  14.146 -1.0826 -0.0824 -0.0736
12075TIP3    H257641   5.456   6.671  14.064  0.6376 -2.2274 -0.5804
12076TIP3   OH257642   4.996   4.681  10.670  0.2632 -0.1678  0.2430
12076TIP3    H157643   5.022   4.622  10.599 -0.0049  0.3253 -0.2803
12076TIP3    H257644   4.908   4.654  10.693 -0.0927  0.3914 -0.4099
12077TIP3   OH257645   4.226   1.206   0.017 -0.5560 -0.6497 -1.2219
12077TIP3    H157646   4.311   1.244   0.041 -0.6048 -2.0247  1.5723
12077TIP3    H257647   4.161   1.269   0.050 -0.6140 -0.8991 -0.8525
12078TIP3   OH257648   6.314   2.406  12.720  0.5359 -0.1487  0.0735
12078TIP3    H157649   6.332   2.318  12.687  1.3029  0.1110 -0.2319
12078TIP3    H257650   6.389   2.458  12.690 -0.2359  0.7601 -0.3384
12079TIP3   OH257651   5.310   3.727   6.213 -0.4286  0.0467  0.1039
12079TIP3    H157652   5.242   3.719   6.145  1.5717  0.8989 -2.1480
12079TIP3    H257653   5.343   3.639   6.225  0.3976  0.1026 -1.4403
12080TIP3   OH257654   1.811   3.364  16.797  0.1973  0.6055  0.0878
12080TIP3    H157655   1.765   3.317  16.866 -1.9053  0.9377 -1.0082
12080TIP3    H257656   1.774   3.453  16.799 -0.2994  0.4916 -1.7433
12081TIP3   OH257657   6.725   4.573  12.004  0.0930 -0.1004  0.3773
12081TIP3    H157658   6.726   4.662  12.038 -1.2810 -0.8305  2.5496
12081TIP3    H257659   6.816   4.553  11.984  0.7001  1.1167  1.7483
12082TIP3   OH257660   2.741   4.585  15.155  0.2384 -0.0116  0.5407
12082TIP3    H157661   2.800   4.628  15.093 -1.2739 -1.7800 -2.3607
12082TIP3    H257662   2.700   4.657  15.202  1.2656  1.4678 -0.7130
12083TIP3   OH257663   4.393   0.328  11.131 -0.4063 -0.5144  0.5909
12083TIP3    H157664   4.390   0.423  11.120 -0.0795 -0.4685  0.8940
12083TIP3    H257665   4.454   0.298  11.064 -1.0943 -0.5985 -0.0251
12084TIP3   OH257666   6.482   0.514   6.363  0.2671 -0.3532  1.0171
12084TIP3    H157667   6.567   0.525   6.320 -0.2196  0.4765  0.2398
12084TIP3    H257668   6.458   0.423   6.344  0.2329 -0.1078 -0.1644
12085TIP3   OH257669   6.191   1.267   4.823  0.9969 -0.3884  0.1900
12085TIP3    H157670   6.147   1.303   4.901  1.3266  2.2230 -0.7144
12085TIP3    H257671   6.242   1.193   4.857 -0.7126 -0.8298  2.0015
12086TIP3   OH257672   4.429   0.533  15.519 -0.0439  0.0018 -0.9782
12086TIP3    H157673   4.422   0.580  15.603  0.3502  0.7663 -1.3547
12086TIP3    H257674   4.406   0.443  15.540 -0.7308  0.3393 -0.2036
12087TIP3   OH257675   0.359   0.943   1.331 -0.1489 -0.3625 -0.4637
12087TIP3    H157676   0.305   0.959   1.254 -0.8461  1.1214  0.2905
12087TIP3    H257677   0.431   1.005   1.325  1.7315 -2.4767 -1.5775
12088TIP3   OH257678   0.297   1.577  16.286  0.7758 -0.3643  0.1271
12088TIP3    H157679   0.234   1.634  16.330  1.3818 -1.0389  1.9622
12088TIP3    H257680   0.258   1.489  16.292  0.1869 -0.2971 -2.0336
12089TIP3   OH257681   4.574   5.315  13.280  0.1040 -0.4843 -0.8525
12089TIP3    H157682   4.521   5.372  13.337  0.0435 -0.5720 -0.8212
12089TIP3    H257683   4.660   5.312  13.323 -0.7026 -2.7816  0.7597
12090TIP3   OH257684   4.326   2.911  10.684 -0.5625 -0.3721 -0.5850
12090TIP3    H157685   4.385   2.855  10.633  0.3190  0.7661 -0.8515
12090TIP3    H257686   4.363   2.910  10.773 -1.0300 -0.8668 -0.3900
12091TIP3   OH257687   3.982   3.603   0.687  0.1575 -0.3392  0.2743
12091TIP3    H157688   3.992   3.594   0.593 -0.3305 -1.8985  0.3394
12091TIP3    H257689   4.064   3.570   0.723 -0.3259 -1.4475  0.4201
12092TIP3   OH257690   1.838   3.162   2.862  0.5151  0.1444 -0.3592
12092TIP3    H157691   1.838   3.083   2.809 -0.2424 -0.1743  0.0972
12092TIP3    H257692   1.870   3.231   2.804  1.9126 -0.6256 -0.5457
12093TIP3   OH257693   4.922   5.138   1.535  0.6668  0.3176 -0.6835
12093TIP3    H157694   4.860   5.211   1.525  1.5448  1.1298 -0.3704
12093TIP3    H257695   4.938   5.132   1.629  2.1251  1.0582 -0.8492
12094TIP3   OH257696   2.609   4.512  14.599  0.4789 -0.2930  0.4229
12094TIP3    H157697   2.603   4.604  14.573  1.2418 -0.0150  1.1804
12094TIP3    H257698   2.702   4.493  14.600  0.7225  0.1582  4.2056
12095TIP3   OH257699   0.749   2.169  11.811  0.2546 -0.5807 -0.4486
12095TIP3    H157700   0.675   2.216  11.773  1.2242  0.1858 -1.4588
12095TIP3    H257701   0.734   2.172  11.905 -0.3340  0.6857 -0.5696
12096TIP3   OH257702   1.848   3.115   0.788 -0.4969 -0.3442 -0.2938
12096TIP3    H157703   1.849   3.076   0.875  1.8309 -2.4449 -1.1462
12096TIP3    H257704   1.889   3.201   0.801 -2.2987  0.3808  0.9994
12097TIP3   OH257705   3.683   4.245   0.922  0.0670 -0.0138  0.6196
12097TIP3    H157706   3.758   4.303   0.906 -1.0538  1.5422  0.8345
12097TIP3    H257707   3.697   4.212   1.010  2.3815 -2.7095 -0.6130
12098TIP3   OH257708   6.383   2.115  11.474 -0.1328 -0.2053 -0.7079
12098TIP3    H157709   6.415   2.204  11.462 -0.3766  0.1177  0.7707
12098TIP3    H257710   6.440   2.061  11.419  0.7395  0.7467 -0.7689
12099TIP3   OH257711   0.583   5.936   1.684 -0.2003  0.4982 -0.5529
12099TIP3    H157712   0.576   5.902   1.594 -0.2108 -2.8545  0.5734
12099TIP3    H257713   0.668   5.903   1.715 -0.3045  1.4071  0.7824
12100TIP3   OH257714   5.155   6.166  15.424 -0.1561 -0.1320  0.0654
12100TIP3    H157715   5.239   6.206  15.447 -0.9193  1.8590 -0.4288
12100TIP3    H257716   5.145   6.186  15.331 -1.0007 -0.6962  0.0318
12101TIP3   OH257717   3.501   3.871   2.605  0.6201 -0.1315  0.1619
12101TIP3    H157718   3.585   3.916   2.610  0.2833  0.3636  2.2621
12101TIP3    H257719   3.439   3.931   2.646 -0.8031 -0.4609 -1.3971
12102TIP3   OH257720   4.308   4.056  11.367 -0.3353 -0.3569 -0.1825
12102TIP3    H157721   4.267   4.027  11.286 -0.3780  1.2589 -0.7860
12102TIP3    H257722   4.235   4.065  11.429 -0.6519  0.6031 -0.6679
12103TIP3   OH257723   2.439   0.890   2.258 -0.0815 -0.4117 -0.0412
12103TIP3    H157724   2.414   0.837   2.183 -0.7359  1.8791 -1.5440
12103TIP3    H257725   2.526   0.924   2.235 -0.8147  1.3043 -0.3825
12104TIP3   OH257726   1.879   2.407   2.662  0.0052  0.2485  0.0276
12104TIP3    H157727   1.871   2.341   2.593 -0.1585  0.0655  0.2191
12104TIP3    H257728   1.888   2.490   2.615 -0.9044  0.2177 -0.2178
12105TIP3   OH257729   2.897   3.824  11.025 -0.3691  0.5035  0.3632
12105TIP3    H157730   2.931   3.824  10.936  0.2590 -0.4177  0.5858
12105TIP3    H257731   2.964   3.869  11.077 -1.0474  1.6490  0.2733
12106TIP3   OH257732   1.192   2.647  11.673 -0.5003 -0.0381  0.5557
12106TIP3    H157733   1.162   2.734  11.699 -0.8564  0.3132 -0.9416
12106TIP3    H257734   1.288   2.655  11.671 -0.5234  0.2708  0.6178
12107TIP3   OH257735   5.458   4.450  13.478 -0.2939  0.1147  0.4612
12107TIP3    H157736   5.504   4.479  13.399  0.2671 -0.8005  0.4322
12107TIP3    H257737   5.373   4.421  13.447  0.6816 -2.2774 -0.1862
12108TIP3   OH257738   1.372   4.020  10.427 -0.2872 -0.2386  0.4110
12108TIP3    H157739   1.413   4.106  10.417 -1.4168  0.3429  0.6788
12108TIP3    H257740   1.416   3.966  10.361  0.2025  0.6194  0.0075
12109TIP3   OH257741   2.992   3.582   4.041 -0.3384  0.0540 -0.1337
12109TIP3    H157742   3.060   3.572   4.109 -0.4138  0.7463  0.0439
12109TIP3    H257743   2.943   3.500   4.045  0.3777 -0.3841 -0.1415
12110TIP3   OH257744   0.191   6.794   0.887 -0.1451 -0.2122 -0.4894
12110TIP3    H157745   0.271   6.748   0.911  0.2118  0.1765 -0.8960
12110TIP3    H257746   0.209   6.829   0.800 -1.0927 -0.8852 -0.9765
12111TIP3   OH257747   1.226   1.256  15.346  0.2824  0.4193  0.1793
12111TIP3    H157748   1.184   1.307  15.277 -1.6154 -2.5962 -1.1091
12111TIP3    H257749   1.169   1.269  15.422 -0.1703  0.2914 -0.1296
12112TIP3   OH257750   6.240   1.534  16.286  0.0311 -1.0165 -0.5793
12112TIP3    H157751   6.226   1.548  16.380  1.2735  2.5208 -0.7434
12112TIP3    H257752   6.158   1.564  16.246  0.1615 -0.8136 -0.6927
12113TIP3   OH257753   4.606   4.451  12.354  0.4717 -0.1847 -0.2023
12113TIP3    H157754   4.661   4.466  12.431  1.4934  1.6117 -1.2134
12113TIP3    H257755   4.667   4.426  12.285 -0.4312 -1.7806 -0.4889
12114TIP3   OH257756   6.024   2.752  16.588 -0.2535 -0.0704  0.0902
12114TIP3    H157757   6.078   2.832  16.585 -0.1405 -0.1584 -0.3861
12114TIP3    H257758   5.977   2.758  16.671  0.0882  0.2753  0.2654
12115TIP3   OH257759   5.394   4.381  15.921 -0.6409 -0.4934 -0.0873
12115TIP3    H157760   5.484   4.351  15.912 -0.3525  0.6040 -0.9926
12115TIP3    H257761   5.366   4.404  15.832 -0.9915  1.4363  0.4736
12116TIP3   OH257762   5.481   1.005  15.503  0.1698 -0.2287 -0.0438
12116TIP3    H157763   5.513   1.010  15.594 -1.8739 -2.8774  0.9275
12116TIP3    H257764   5.523   0.927  15.467 -0.4915 -0.2624 -0.7605
12117TIP3   OH257765   4.160   3.251   5.742  0.1754  0.1872 -0.1415
12117TIP3    H157766   4.193   3.162   5.751 -0.7852 -0.3048 -1.1949
12117TIP3    H257767   4.174   3.291   5.828  0.9053 -0.8732  0.2541
12118TIP3   OH257768   0.577   0.961  11.800 -0.1395 -0.2712 -0.1954
12118TIP3    H157769   0.550   0.886  11.853 -0.0549 -0.2407 -0.1086
12118TIP3    H257770   0.588   0.926  11.712 -1.0671 -0.1587 -0.3620
12119TIP3   OH257771   0.923   3.490  12.491  0.4642 -0.2186 -0.4707
12119TIP3    H157772   0.871   3.518  12.415  1.3695  1.3249 -0.5567
12119TIP3    H257773   0.913   3.395  12.492 -2.3000 -0.0182 -0.5065
12120TIP3   OH257774   1.966   4.404  14.858 -0.2140  0.3243 -0.8464
12120TIP3    H157775   2.048   4.380  14.902 -1.1731 -0.5884  0.5286
12120TIP3    H257776   1.969   4.358  14.774  0.2396 -0.5092 -0.3785
12121TIP3   OH257777   4.937   0.921   1.422  0.4222 -0.2486  0.4209
12121TIP3    H157778   5.028   0.895   1.408 -0.2677 -2.4212 -0.4838
12121TIP3    H257779   4.926   0.922   1.517  1.6022  0.9384  0.5665
12122TIP3   OH257780   0.897   5.137   2.591  0.0693 -0.1057  0.1434
12122TIP3    H157781   0.912   5.161   2.500  3.1280  0.2218  0.6015
12122TIP3    H257782   0.923   5.215   2.641 -0.9859 -0.4806  1.3426
12123TIP3   OH257783   1.212   2.350  11.490  0.1595 -0.7599  0.5657
12123TIP3    H157784   1.306   2.334  11.494  0.3434  0.4621  1.7741
12123TIP3    H257785   1.190   2.389  11.575 -1.3549 -0.6330  0.1459
12124TIP3   OH257786   2.048   1.444  14.106 -0.3082  0.0940  0.1535
12124TIP3    H157787   2.062   1.472  14.196  0.9985  0.3915 -0.1207
12124TIP3    H257788   1.957   1.468  14.087 -1.4758 -2.2835  2.1702
12125TIP3   OH257789   0.812   6.205   2.097  0.4299  0.4923  0.1661
12125TIP3    H157790   0.748   6.148   2.141 -0.4546  0.7125 -0.8253
12125TIP3    H257791   0.891   6.151   2.091 -0.6184 -0.9548 -1.4395
12126TIP3   OH257792   3.218   3.738  16.036 -0.1632 -0.5520  0.5446
12126TIP3    H157793   3.271   3.802  16.085 -0.5954  0.2565 -0.0243
12126TIP3    H257794   3.141   3.724  16.092 -0.1880 -0.3863  0.5523
12127TIP3   OH257795   5.258   5.939  15.668 -0.1906  0.1872 -0.5081
12127TIP3    H157796   5.212   6.023  15.668 -0.0645  0.3285  2.1457
12127TIP3    H257797   5.350   5.961  15.677  0.1161 -0.2204 -2.2094
12128TIP3   OH257798   2.736   3.334   2.816 -0.2911 -0.2147  0.5811
12128TIP3    H157799   2.690   3.391   2.755 -0.9537  0.3122  1.5514
12128TIP3    H257800   2.808   3.297   2.765 -1.4984 -0.6979 -0.8469
12129TIP3   OH257801   3.206   3.462  14.514  0.2659 -0.1421 -0.6238
12129TIP3    H157802   3.291   3.487  14.551 -0.1502 -1.6416  1.5123
12129TIP3    H257803   3.166   3.545  14.489  1.1230  0.9054  1.2377
12130TIP3   OH257804   6.422   1.507  14.409  0.0057 -0.2913 -0.5417
12130TIP3    H157805   6.492   1.469  14.463  0.3902  0.3681 -0.5632
12130TIP3    H257806   6.361   1.435  14.395  0.0625 -0.5545  0.5046
12131TIP3   OH257807   5.658   0.738  11.033  0.1120  0.0467  0.1374
12131TIP3    H157808   5.603   0.683  11.090  2.6391 -0.9960  1.7249
12131TIP3    H257809   5.675   0.683  10.957  0.3375 -0.3126  0.4397
12132TIP3   OH257810   1.885   1.615  13.235 -0.2954  0.5325  0.4808
12132TIP3    H157811   1.838   1.548  13.185  0.6114 -1.1413  1.7572
12132TIP3    H257812   1.817   1.661  13.284 -0.7923 -1.1152  1.4534
12133TIP3   OH257813   0.856   5.647  14.495 -0.0307  0.3053  0.0956
12133TIP3    H157814   0.791   5.708  14.529  1.3531  1.7655  0.2672
12133TIP3    H257815   0.843   5.567  14.546 -0.9124  0.9602  0.9375
12134TIP3   OH257816   1.148   0.326   4.755 -0.0495  0.4076 -0.8016
12134TIP3    H157817   1.105   0.409   4.776  0.2336 -0.0691  2.0467
12134TIP3    H257818   1.081   0.275   4.708 -1.5934  0.8313  0.8235
12135TIP3   OH257819   3.792   3.585   0.096  0.0578 -0.6331  0.4568
12135TIP3    H157820   3.844   3.528   0.152 -0.4503 -0.7159  0.8495
12135TIP3    H257821   3.840   3.668   0.094  0.1188 -0.6527  0.9617
12136TIP3   OH257822   3.345   6.060   2.658 -0.1245  0.0988 -0.2621
12136TIP3    H157823   3.337   6.122   2.586 -1.8966  1.0947  0.7330
12136TIP3    H257824   3.437   6.067   2.685  0.6619 -0.4809 -2.4916
12137TIP3   OH257825   0.763   4.722   3.625 -0.2548  0.2556 -0.0496
12137TIP3    H157826   0.730   4.744   3.538  0.3460 -0.0496 -0.3604
12137TIP3    H257827   0.833   4.786   3.641  0.2719 -0.2759 -0.1922
12138TIP3   OH257828   4.045   1.717  15.151 -0.1674 -0.0044 -0.1385
12138TIP3    H157829   4.069   1.627  15.173 -0.8853 -0.1960 -0.0935
12138TIP3    H257830   3.949   1.717  15.156 -0.1243  1.1095  1.2283
12139TIP3   OH257831   2.952   3.730   4.745  0.2696 -0.2931  0.6214
12139TIP3    H157832   2.995   3.780   4.814  1.4372  0.5720 -0.6879
12139TIP3    H257833   2.984   3.641   4.756  0.0416 -0.2796  1.4904
12140TIP3   OH257834   3.048   3.238  12.015 -0.1834  0.0196  0.3383
12140TIP3    H157835   2.957   3.229  12.043 -0.1189 -1.3006  0.1816
12140TIP3    H257836   3.052   3.194  11.930  0.5932  0.0818  0.3357
12141TIP3   OH257837   4.698   5.331   4.883  0.3189 -0.1627  0.0968
12141TIP3    H157838   4.734   5.369   4.804  1.5346 -0.5436  0.4564
12141TIP3    H257839   4.754   5.364   4.954 -0.5432 -0.0915  0.7699
12142TIP3   OH257840   5.396   2.588  12.130 -0.5543 -0.2914  0.9919
12142TIP3    H157841   5.460   2.568  12.199 -0.4836 -1.7313  0.5298
12142TIP3    H257842   5.450   2.608  12.053 -0.6441  0.8341  1.2014
12143TIP3   OH257843   1.862   1.292  13.214 -0.1830  0.1054 -0.3168
12143TIP3    H157844   1.803   1.222  13.187 -2.1867  2.0624 -1.3204
12143TIP3    H257845   1.900   1.261  13.296 -3.3783 -0.9145  0.9459
12144TIP3   OH257846   4.624   1.401  16.461 -0.8434 -0.7688  0.3392
12144TIP3    H157847   4.674   1.424  16.539 -0.2364 -1.5864  0.2038
12144TIP3    H257848   4.589   1.313  16.480 -2.2766 -0.2036  0.4522
12145TIP3   OH257849   4.412   0.084   0.710  0.9851 -0.0007 -0.4903
12145TIP3    H157850   4.403   0.035   0.629  1.3602  0.1490 -0.6239
12145TIP3    H257851   4.325   0.080   0.750  0.3712  1.1700 -1.6185
12146TIP3   OH257852   0.434   5.530  16.251 -0.5643 -0.2668  0.1710
12146TIP3    H157853   0.484   5.455  16.283 -2.7268 -1.9685 -0.2783
12146TIP3    H257854   0.463   5.540  16.160 -1.8028 -1.9800 -0.4516
12147TIP3   OH257855   6.389   3.714  11.173  0.1287 -0.1174  0.0065
12147TIP3    H157856   6.383   3.795  11.123 -0.7682 -0.1314  0.0748
12147TIP3    H257857   6.343   3.650  11.120  0.0407 -0.3684  0.3808
12148TIP3   OH257858   5.642   2.706   2.359  0.5891  0.3284  0.3382
12148TIP3    H157859   5.559   2.753   2.361 -0.9926 -2.1416 -1.1602
12148TIP3    H257860   5.680   2.719   2.445 -2.4096 -0.1510  1.8523
12149TIP3   OH257861   5.611   2.307  12.404  0.5869  0.3131  0.5121
12149TIP3    H157862   5.649   2.223  12.380  1.1578  0.1945  1.7652
12149TIP3    H257863   5.617   2.310  12.499 -1.0447  1.0180  0.6310
12150TIP3   OH257864   5.165   6.487  10.905 -0.6833  0.0981 -0.5503
12150TIP3    H157865   5.244   6.442  10.935 -0.3726  1.9818  1.7708
12150TIP3    H257866   5.197   6.568  10.866 -1.4378  0.8517  0.3599
12151TIP3   OH257867   5.315   0.838  12.165 -0.3792 -0.0673  0.2654
12151TIP3    H157868   5.344   0.747  12.172  0.4503  0.1921  0.2968
12151TIP3    H257869   5.387   0.883  12.122 -0.9097  0.5227 -0.0227
12152TIP3   OH257870   4.260   0.329   0.664 -0.4329  0.7033 -0.0898
12152TIP3    H157871   4.335   0.276   0.638 -1.6272  0.1060 -2.5996
12152TIP3    H257872   4.254   0.396   0.597 -2.6696  0.1816 -0.4813
12153TIP3   OH257873   4.435   2.907  11.948  0.5102 -0.4147 -0.4003
12153TIP3    H157874   4.363   2.847  11.930 -0.0194 -0.0522  0.4392
12153TIP3    H257875   4.417   2.984  11.893 -0.0094 -0.1279  0.1663
12154TIP3   OH257876   5.763   2.899  10.556  0.1786  0.4032  0.4293
12154TIP3    H157877   5.774   2.956  10.632  1.2011  1.4429 -0.4760
12154TIP3    H257878   5.713   2.824  10.590 -1.8658  2.1318  1.5053
12155TIP3   OH257879   4.208   1.107  14.027  0.5507 -0.0227 -0.0358
12155TIP3    H157880   4.199   1.052  13.949  2.0644  1.3271 -1.2393
12155TIP3    H257881   4.300   1.101  14.051  0.6351  1.4639  0.1529
12156TIP3   OH257882   0.476   5.639  13.054  0.5129  0.3325 -0.3019
12156TIP3    H157883   0.435   5.566  13.101  0.9853  0.4391  0.2931
12156TIP3    H257884   0.492   5.705  13.122  0.9725  0.5947 -0.6593
12157TIP3   OH257885   6.238   0.283   2.787 -0.3754 -0.2295  0.5565
12157TIP3    H157886   6.246   0.377   2.775  1.3835 -0.5187 -0.9549
12157TIP3    H257887   6.230   0.272   2.882  0.6255  1.3805  0.8656
12158TIP3   OH257888   2.664   2.154   0.161  0.4619  0.1612 -0.2119
12158TIP3    H157889   2.724   2.192   0.225  1.5831 -1.6174 -0.1357
12158TIP3    H257890   2.599   2.108   0.214 -0.5413  1.4131 -0.3159
12159TIP3   OH257891   1.683   4.407   4.500  0.1007  0.4247  0.1823
12159TIP3    H157892   1.705   4.487   4.548  2.3976 -0.5159  0.8309
12159TIP3    H257893   1.607   4.371   4.546 -1.1199  2.2893 -0.2607
12160TIP3   OH257894   4.623   4.802  15.918 -0.0098  0.7996  0.3545
12160TIP3    H157895   4.603   4.837  16.004 -1.3592 -1.6347  1.1493
12160TIP3    H257896   4.559   4.731  15.906  0.6584  0.5407 -2.3001
12161TIP3   OH257897   3.972   1.014  11.021  0.1847 -0.1255 -0.5355
12161TIP3    H157898   4.001   1.091  10.971  0.6192  0.4206  0.5410
12161TIP3    H257899   4.014   0.940  10.978  0.9423  0.3856 -0.6935
12162TIP3   OH257900   0.782   0.263  14.045  0.0931  0.6907  0.7625
12162TIP3    H157901   0.780   0.334  14.109 -2.3185  0.9166  0.4988
12162TIP3    H257902   0.729   0.294  13.972 -0.1405 -0.9624  0.1771
12163TIP3   OH257903   3.390   1.881  16.263 -0.0326 -0.0650 -0.4648
12163TIP3    H157904   3.457   1.819  16.291 -0.6125 -0.6215 -0.3002
12163TIP3    H257905   3.322   1.875  16.329 -1.3079 -1.2094 -1.8202
12164TIP3   OH257906   2.848   0.402   0.712  0.2298  0.2238 -0.0088
12164TIP3    H157907   2.878   0.381   0.801 -0.4222  0.7548  0.3473
12164TIP3    H257908   2.754   0.416   0.722 -0.2319 -1.7242 -1.1543
12165TIP3   OH257909   0.607   5.906   4.068 -0.0237 -0.2096 -0.6542
12165TIP3    H157910   0.574   5.855   4.142 -0.5526  0.2820 -0.5408
12165TIP3    H257911   0.584   5.997   4.090  0.9365  0.0889 -0.8261
12166TIP3   OH257912   3.793   3.056   5.439  0.4136 -0.7292  0.1276
12166TIP3    H157913   3.863   3.116   5.466  0.0042 -0.7601  1.3237
12166TIP3    H257914   3.737   3.110   5.383  0.8891 -0.4465 -0.0921
12167TIP3   OH257915   1.321   2.390  15.677  0.0340 -0.5074 -0.2163
12167TIP3    H157916   1.286   2.352  15.758 -0.9360 -2.3511 -1.4360
12167TIP3    H257917   1.265   2.355  15.608  1.8174 -0.2731 -1.8724
12168TIP3   OH257918   3.080   1.688  16.250  0.3591  0.2822 -0.4924
12168TIP3    H157919   2.998   1.695  16.299 -0.6269  1.3687 -2.1863
12168TIP3    H257920   3.091   1.594  16.233 -0.4941  0.1230 -0.1824
12169TIP3   OH257921   0.448   0.858   3.035  0.0397  0.0069  0.5319
12169TIP3    H157922   0.447   0.827   3.126 -0.4080 -0.2678  0.4363
12169TIP3    H257923   0.362   0.896   3.022 -0.2904 -0.9522 -0.1138
12170TIP3   OH257924   2.970   2.469  16.950 -0.0824  0.5337  0.1883
12170TIP3    H157925   3.046   2.526  16.937  0.0044  0.4562  0.3475
12170TIP3    H257926   2.911   2.490  16.878  0.8510 -0.6536 -0.9592
12171TIP3   OH257927   5.496   2.307   4.961 -0.1563  0.1340 -0.3422
12171TIP3    H157928   5.423   2.288   4.902 -0.6250  0.3473  0.1544
12171TIP3    H257929   5.456   2.356   5.033  0.1673 -1.1553  0.7624
12172TIP3   OH257930   1.664   6.340   4.875  0.2606  0.1121  0.1446
12172TIP3    H157931   1.757   6.345   4.894  0.4349 -0.4396 -0.5429
12172TIP3    H257932   1.654   6.383   4.790  0.0796 -0.9096 -0.3687
12173TIP3   OH257933   2.065   5.555  12.224  0.3760 -0.0801  0.8446
12173TIP3    H157934   2.011   5.618  12.176  1.2027 -0.6603 -0.9573
12173TIP3    H257935   2.036   5.562  12.315 -1.5142  0.8276  0.2184
12174TIP3   OH257936   6.051   0.187  14.003  0.0497 -0.4492 -0.0304
12174TIP3    H157937   6.135   0.143  14.017  0.7131  0.8871  0.3156
12174TIP3    H257938   6.056   0.219  13.913 -0.2527 -0.6883 -0.1343
12175TIP3   OH257939   2.798   0.972   0.798  0.2660 -0.1163 -0.3774
12175TIP3    H157940   2.814   1.000   0.707  0.5548 -2.5057 -1.1351
12175TIP3    H257941   2.843   0.887   0.805 -2.5656 -1.6386  0.9415
12176TIP3   OH257942   1.683   0.687  12.346  0.8057  0.4416 -0.6116
12176TIP3    H157943   1.754   0.686  12.282  0.2405  0.5489 -1.2522
12176TIP3    H257944   1.608   0.652  12.299  0.3752  0.5355 -0.0067
12177TIP3   OH257945   4.623   1.497  15.529 -0.0801  0.5364  0.1364
12177TIP3    H157946   4.650   1.525  15.616  1.8269  1.9762 -0.8548
12177TIP3    H257947   4.656   1.407  15.521  0.7002  0.7860  0.4984
12178TIP3   OH257948   6.747   1.789   2.328 -0.3036 -0.2300 -0.2292
12178TIP3    H157949   6.829   1.745   2.351 -0.5950 -0.0958  1.1934
12178TIP3    H257950   6.772   1.881   2.315 -0.3647  0.0575  1.4044
12179TIP3   OH257951   0.447   2.944  15.550 -0.5792  0.2362  0.4604
12179TIP3    H157952   0.476   2.855  15.573 -0.0921  0.6112  1.3398
12179TIP3    H257953   0.358   2.949  15.583 -1.7631 -0.9071 -2.2192
12180TIP3   OH257954   2.085   3.098  17.016 -0.0651 -0.3038  0.0437
12180TIP3    H157955   2.113   3.175  17.066  1.1798 -0.4066 -0.4507
12180TIP3    H257956   2.139   3.101  16.937 -0.9657 -0.9509 -0.6061
12181TIP3   OH257957   5.371   0.300   5.370  0.1803 -0.1626  0.4941
12181TIP3    H157958   5.379   0.205   5.378 -3.2443 -0.8830 -2.1937
12181TIP3    H257959   5.306   0.325   5.435  1.4533  0.5444  1.5643
12182TIP3   OH257960   3.120   5.757   4.710 -0.3811 -0.1246 -0.0920
12182TIP3    H157961   3.112   5.851   4.694  0.2317 -0.0162  0.1909
12182TIP3    H257962   3.040   5.734   4.757 -0.4964  0.2752 -0.0889
12183TIP3   OH257963   2.069   5.988   1.891 -0.5536  0.3203  0.2672
12183TIP3    H157964   2.146   5.948   1.933 -0.1210  0.5787 -0.2683
12183TIP3    H257965   2.000   5.981   1.957  0.0952  0.6433  1.0000
12184TIP3   OH257966   5.941   6.800  16.002  0.6724  0.4987  0.5893
12184TIP3    H157967   5.875   6.741  15.967 -1.0519  0.7837  3.0868
12184TIP3    H257968   6.025   6.757  15.982 -0.2064  0.0259 -2.4510
12185TIP3   OH257969   1.968   0.284  11.554 -0.0175 -0.0475  0.1810
12185TIP3    H157970   1.921   0.297  11.471  0.7273 -2.1926 -0.6541
12185TIP3    H257971   2.061   0.288  11.530  0.2107 -1.2487  0.7751
12186TIP3   OH257972   2.489   2.707   2.241  0.0756  0.1515 -0.4647
12186TIP3    H157973   2.454   2.791   2.270  2.5319  1.6194 -1.4877
12186TIP3    H257974   2.412   2.655   2.218 -1.5041  2.0903  0.1988
12187TIP3   OH257975   1.678   1.442  13.588  0.2771  0.1266 -0.1610
12187TIP3    H157976   1.640   1.388  13.657  1.7011 -0.0582  0.4989
12187TIP3    H257977   1.610   1.446  13.521 -1.3450  0.7091  1.4318
12188TIP3   OH257978   4.696   3.737   5.361 -0.2883 -0.4895  0.0169
12188TIP3    H157979   4.702   3.668   5.295 -1.6916  0.8856 -1.6622
12188TIP3    H257980   4.787   3.759   5.381  0.1855 -1.2336 -1.1716
12189TIP3   OH257981   3.636   5.409   5.854 -0.4570 -1.1115 -0.5738
12189TIP3    H157982   3.567   5.416   5.920 -0.6599 -0.5717 -0.8389
12189TIP3    H257983   3.603   5.344   5.791 -0.0323 -2.0236  0.1271
12190TIP3   OH257984   1.959   2.115   3.071 -0.2798  0.2872  0.0508
12190TIP3    H157985   2.042   2.112   3.119  0.4124  0.7486 -1.0819
12190TIP3    H257986   1.952   2.206   3.042 -0.6834  0.0156 -0.7268
12191TIP3   OH257987   6.329   0.496  13.336  0.0210 -0.0286  0.0016
12191TIP3    H157988   6.254   0.456  13.379 -0.0401  0.3666  0.2668
12191TIP3    H257989   6.315   0.590  13.345 -0.2059  0.0756 -1.2423
12192TIP3   OH257990   6.038   0.837   5.558 -0.2142  0.6884  0.0768
12192TIP3    H157991   6.019   0.805   5.470 -1.6383 -1.6335  1.1417
12192TIP3    H257992   5.952   0.841   5.601  0.7199 -1.7586  2.4282
12193TIP3   OH257993   6.576   1.587  16.424 -0.3039 -0.0356  0.3352
12193TIP3    H157994   6.666   1.618  16.428 -0.5661  0.7610  0.2580
12193TIP3    H257995   6.533   1.628  16.499 -1.1484  1.4640 -0.8959
12194TIP3   OH257996   1.635   0.202  15.149 -0.1418 -0.0248 -0.3704
12194TIP3    H157997   1.692   0.270  15.111 -0.7290  0.1916 -0.8856
12194TIP3    H257998   1.613   0.235  15.236  0.5425 -0.1276 -0.1501
12195TIP3   OH257999   6.617   6.213   5.431 -0.2913  0.1276 -0.2958
12195TIP3    H158000   6.615   6.178   5.520 -1.2547  2.1636  0.5486
12195TIP3    H258001   6.530   6.252   5.419  0.8821  2.7584 -0.8778
12196TIP3   OH258002   0.187   6.073   1.314  0.2256  0.0285 -0.1593
12196TIP3    H158003   0.261   6.084   1.374 -0.2276 -0.0934  0.4371
12196TIP3    H258004   0.223   6.026   1.239  0.5913 -0.7138  0.4681
12197TIP3   OH258005   1.746   2.838  16.012 -0.0192  0.2089 -0.0191
12197TIP3    H158006   1.842   2.841  16.008  0.0866 -1.8451 -0.0752
12197TIP3    H258007   1.718   2.847  15.921  0.2114 -0.4623 -0.1662
12198TIP3   OH258008   2.811   6.362   4.307  0.1199  0.3726  0.8223
12198TIP3    H158009   2.810   6.297   4.377 -0.4928  0.4496  0.8883
12198TIP3    H258010   2.719   6.377   4.287  0.2648  1.0808  0.6727
12199TIP3   OH258011   6.091   1.340  12.291  0.2034  0.5300 -0.0940
12199TIP3    H158012   6.058   1.428  12.305 -0.9859  0.0290  0.3513
12199TIP3    H258013   6.089   1.299  12.377 -0.9333 -0.4867 -0.5778
12200TIP3   OH258014   4.643   2.938   0.686 -0.0166 -0.3840 -0.4029
12200TIP3    H158015   4.578   2.909   0.750 -1.5799  0.2414 -1.6584
12200TIP3    H258016   4.698   2.861   0.671 -0.1529 -0.7907  1.0069
12201TIP3   OH258017   6.653   6.259  14.644 -0.0099 -0.0892  0.6368
12201TIP3    H158018   6.745   6.269  14.667  0.3414 -0.4758 -0.5436
12201TIP3    H258019   6.653   6.208  14.563 -1.0488  3.0390 -1.5342
12202TIP3   OH258020   4.621   5.025   3.544 -0.0451  0.0538  0.2319
12202TIP3    H158021   4.533   4.988   3.550  0.5966 -1.6777 -0.4781
12202TIP3    H258022   4.621   5.097   3.607 -1.6858 -0.4752  0.8823
12203TIP3   OH258023   2.175   0.514   1.095  0.0592  0.3406 -0.2417
12203TIP3    H158024   2.172   0.558   1.180  0.7967 -0.8038  0.4026
12203TIP3    H258025   2.123   0.570   1.037 -0.9158  0.8590  1.0808
12204TIP3   OH258026   5.512   3.817  14.879  0.1169 -0.0118 -0.6074
12204TIP3    H158027   5.471   3.904  14.876 -0.3606 -0.2046  0.0857
12204TIP3    H258028   5.504   3.783  14.790  1.5918  1.2286 -1.2598
12205TIP3   OH258029   5.267   3.520  12.672  0.3774  0.3769  0.8233
12205TIP3    H158030   5.316   3.443  12.643 -0.3623  0.2692 -0.1526
12205TIP3    H258031   5.334   3.575  12.714  1.0677 -0.4171  0.7988
12206TIP3   OH258032   0.528   2.247  10.806 -0.1881  0.0169  0.3068
12206TIP3    H158033   0.549   2.154  10.817 -0.4931 -0.2161 -1.0108
12206TIP3    H258034   0.446   2.248  10.757 -0.6768  0.9849  1.1036
12207TIP3   OH258035   2.998   4.161   2.286  0.4033 -0.1090  0.9711
12207TIP3    H158036   3.078   4.113   2.264 -0.2399 -0.2507 -1.4327
12207TIP3    H258037   2.992   4.229   2.219 -1.1236  0.3083  1.4921
12208TIP3   OH258038   2.538   1.635  14.085  0.7523 -0.5551 -0.2811
12208TIP3    H158039   2.554   1.564  14.023  0.3566 -0.3317 -0.6434
12208TIP3    H258040   2.625   1.670  14.104  0.9340 -1.0129 -0.2409
12209TIP3   OH258041   2.157   2.159  14.753  0.3286  0.0973 -0.2260
12209TIP3    H158042   2.216   2.234  14.744  0.0600  0.7263  2.3151
12209TIP3    H258043   2.077   2.196  14.790 -1.1443 -0.9840 -2.1233
12210TIP3   OH258044   0.559   6.465  11.848  0.5081  0.0535  0.3199
12210TIP3    H158045   0.519   6.382  11.822  1.9395 -0.1612 -1.3873
12210TIP3    H258046   0.572   6.513  11.766  3.3132  0.2459  0.7563
12211TIP3   OH258047   6.329   3.159   0.307 -0.6502 -0.3174  0.1193
12211TIP3    H158048   6.361   3.070   0.291 -1.2515 -0.4712 -0.2631
12211TIP3    H258049   6.383   3.191   0.380 -0.0737 -0.7994 -0.0853
12212TIP3   OH258050   3.971   5.818   4.040 -0.1003 -0.4083 -0.2149
12212TIP3    H158051   3.955   5.763   3.963  2.3980 -0.0989 -1.0530
12212TIP3    H258052   3.911   5.891   4.029 -1.2269 -1.3907 -0.7786
12213TIP3   OH258053   5.584   5.806   1.937 -0.5286 -0.2589  0.5714
12213TIP3    H158054   5.580   5.837   1.847  1.3299 -1.6553 -0.0625
12213TIP3    H258055   5.545   5.876   1.989  0.3651  1.5545 -1.0949
12214TIP3   OH258056   6.695   0.028   0.580  0.0365  0.0932 -0.8712
12214TIP3    H158057   6.604   0.055   0.591  0.0985 -0.6796  2.2831
12214TIP3    H258058   6.746   0.094   0.628  0.7763 -1.4619  0.5857
12215TIP3   OH258059   3.434   5.450   3.116  0.1508 -0.4419  0.2117
12215TIP3    H158060   3.509   5.392   3.126 -0.8377 -1.6552  0.8607
12215TIP3    H258061   3.398   5.428   3.029 -1.3906 -2.3106  1.2393
12216TIP3   OH258062   3.016   6.198  11.898 -0.4298 -0.1026 -0.5279
12216TIP3    H158063   2.921   6.198  11.887 -0.6577  1.5373  0.9195
12216TIP3    H258064   3.029   6.180  11.991  0.7560 -1.4344 -0.9186
12217TIP3   OH258065   6.497   6.603   0.217  0.2709  0.3315  0.2678
12217TIP3    H158066   6.527   6.600   0.308  1.9268  0.5600 -0.2351
12217TIP3    H258067   6.528   6.687   0.184  0.0324  0.0809 -0.6166
12218TIP3   OH258068   0.131   5.905   2.351 -0.0586  0.0348 -0.2363
12218TIP3    H158069   0.090   5.929   2.267  0.5266 -2.8633 -1.4779
12218TIP3    H258070   0.223   5.928   2.340 -0.0535  0.0083 -0.2496
12219TIP3   OH258071   2.190   0.089  16.823 -0.3903 -0.2994  0.6591
12219TIP3    H158072   2.246   0.123  16.754 -0.6201 -0.7432  0.2517
12219TIP3    H258073   2.184  -0.005  16.805 -0.3473 -0.4417  1.3524
12220TIP3   OH258074   3.021   1.156  14.233  0.4017 -0.1443 -0.0058
12220TIP3    H158075   3.089   1.216  14.264  0.0892  0.1583  0.0938
12220TIP3    H258076   2.974   1.130  14.312  0.2661 -0.1835 -0.0986
12221TIP3   OH258077   5.590   5.440   3.677  0.2814 -0.2444 -0.2609
12221TIP3    H158078   5.659   5.427   3.741 -2.0680  0.5815  2.6870
12221TIP3    H258079   5.626   5.502   3.614  2.3286 -0.1492  0.9389
12222TIP3   OH258080   0.672   2.836  13.149 -0.2394 -0.3681  0.1094
12222TIP3    H158081   0.636   2.793  13.226 -0.3279  0.3657  0.4914
12222TIP3    H258082   0.609   2.905  13.128  0.2204  0.0055 -0.0764
12223TIP3   OH258083   4.977   6.540  15.539 -0.2313  0.3452  0.9158
12223TIP3    H158084   5.017   6.599  15.603 -0.5567 -0.7430  2.1621
12223TIP3    H258085   5.013   6.568  15.455  1.6649  0.6438  1.7722
12224TIP3   OH258086   4.686   5.382   0.863  0.0220 -0.1547 -0.1042
12224TIP3    H158087   4.731   5.427   0.792 -0.7562  0.4443 -0.2405
12224TIP3    H258088   4.594   5.381   0.835 -0.7105  2.0943  1.8381
12225TIP3   OH258089   1.737   1.171  13.543 -0.0092 -0.0695 -0.3016
12225TIP3    H158090   1.829   1.147  13.548  0.3473  0.9591 -1.5184
12225TIP3    H258091   1.736   1.267  13.547 -1.0560 -0.0772  0.0250
12226TIP3   OH258092   2.038   1.844   6.704 -0.1583  0.2185 -0.5431
12226TIP3    H158093   2.118   1.833   6.652  0.2984  0.5698  0.0754
12226TIP3    H258094   2.045   1.777   6.772 -0.2140  0.4846 -0.2749
12227TIP3   OH258095   2.694   5.606  10.795  0.0200 -0.2342 -0.2351
12227TIP3    H158096   2.606   5.597  10.830 -0.1215 -1.1123 -0.7834
12227TIP3    H258097   2.720   5.696  10.816  0.1530 -0.8301  2.5249
12228TIP3   OH258098   0.872   1.738  14.859  0.3278 -0.1953  0.6668
12228TIP3    H158099   0.941   1.799  14.887  0.0272  0.4372  0.0553
12228TIP3    H258100   0.919   1.656  14.842  1.0783  0.4565 -0.5410
12229TIP3   OH258101   4.020   3.902   3.299 -0.4833 -0.1714  0.4811
12229TIP3    H158102   4.035   3.996   3.309 -0.3538  0.1614 -2.0951
12229TIP3    H258103   4.096   3.861   3.341  0.6630  1.0060 -0.3465
12230TIP3   OH258104   2.383   1.741   3.795 -0.3210  0.0516  0.0025
12230TIP3    H158105   2.417   1.743   3.705  0.8505  2.1369  0.4324
12230TIP3    H258106   2.461   1.730   3.850 -0.9854 -0.7797  0.8010
12231TIP3   OH258107   6.801   2.013   1.569 -0.0953  0.1196 -0.1248
12231TIP3    H158108   6.855   1.980   1.496 -2.3173 -0.8123 -1.4613
12231TIP3    H258109   6.757   1.935   1.602 -0.7536  0.8751  0.8026
12232TIP3   OH258110   5.932   6.614   1.098  0.1829  0.0062 -0.3001
12232TIP3    H158111   5.858   6.561   1.129  1.5449 -1.2230  1.0060
12232TIP3    H258112   5.939   6.685   1.163  0.6836 -0.3767  0.0645
12233TIP3   OH258113   6.808   1.494   4.990 -0.6255  0.6422  0.2466
12233TIP3    H158114   6.797   1.476   5.084 -1.2870 -1.3875 -0.1697
12233TIP3    H258115   6.733   1.549   4.967 -0.5833  0.9633  0.8353
12234TIP3   OH258116   6.109   4.579   3.945  0.3116  0.0182 -0.0451
12234TIP3    H158117   6.173   4.512   3.920 -1.6424 -1.6551 -0.8158
12234TIP3    H258118   6.024   4.538   3.929 -0.9824  2.0965  1.1045
12235TIP3   OH258119   6.700   5.347  10.217  0.2268  0.0053  0.1892
12235TIP3    H158120   6.672   5.325  10.128 -2.4152  0.5969  0.7780
12235TIP3    H258121   6.684   5.267  10.267  0.3883  0.0903  0.3744
12236TIP3   OH258122   3.680   1.115   0.029  0.1542  0.3717  0.0738
12236TIP3    H158123   3.602   1.158  -0.005  0.1510 -0.3546 -0.8635
12236TIP3    H258124   3.671   1.023   0.003 -0.1934 -0.3952  2.6335
12237TIP3   OH258125   4.995   5.930  12.125 -0.0847 -0.4445  0.2086
12237TIP3    H158126   5.043   5.918  12.207  1.3551 -0.1725 -0.5641
12237TIP3    H258127   5.052   5.984  12.071 -1.2459 -0.1577 -0.7919
12238TIP3   OH258128   6.671   6.250  12.953 -0.1581  0.6087 -0.8926
12238TIP3    H158129   6.714   6.170  12.921 -0.4137  0.0957  0.0111
12238TIP3    H258130   6.680   6.312  12.881 -0.5496 -0.4456 -1.8890
12239TIP3   OH258131   0.342   2.366   1.539  0.5291  0.2141  0.6141
12239TIP3    H158132   0.288   2.309   1.593 -0.1712 -0.3374 -0.6097
12239TIP3    H258133   0.431   2.330   1.547  0.6827  0.8970  2.3331
12240TIP3   OH258134   5.474   0.602  13.715 -0.0115 -0.1619  0.6946
12240TIP3    H158135   5.380   0.620  13.726  0.0268  0.6924 -0.2256
12240TIP3    H258136   5.478   0.508  13.699 -0.8914 -0.0007 -0.7284
12241TIP3   OH258137   6.400   3.793  15.176 -0.0525 -0.2198 -0.2081
12241TIP3    H158138   6.438   3.705  15.168 -2.1762 -1.3511  1.1749
12241TIP3    H258139   6.378   3.818  15.087  0.4325 -1.1593 -0.6129
12242TIP3   OH258140   4.955   4.408   1.100  0.0235 -0.7515  0.8989
12242TIP3    H158141   4.933   4.381   1.011 -1.7427  3.2401 -0.1049
12242TIP3    H258142   4.871   4.412   1.146  0.6278 -0.5447  2.0221
12243TIP3   OH258143   3.182   5.876  14.460 -0.2417  0.5402 -0.5467
12243TIP3    H158144   3.101   5.918  14.488  1.0155  0.9660  3.0952
12243TIP3    H258145   3.244   5.948  14.448  0.2995  0.0857 -0.5391
12244TIP3   OH258146   6.453   5.075   4.256 -1.2453  0.3353 -0.1821
12244TIP3    H158147   6.394   5.006   4.286 -3.1412  1.7904 -0.3584
12244TIP3    H258148   6.406   5.157   4.273  0.8564  1.6110 -0.0845
12245TIP3   OH258149   1.796   3.001   1.033  0.2208  0.3798  0.2307
12245TIP3    H158150   1.757   2.923   0.994  1.2984 -0.2126  0.3008
12245TIP3    H258151   1.812   2.977   1.124 -3.1617  2.0648  1.4245
12246TIP3   OH258152   1.869   3.280  14.906  0.3374  0.8634 -0.6308
12246TIP3    H158153   1.843   3.189  14.890  0.6938  0.9814 -2.0141
12246TIP3    H258154   1.903   3.279  14.996 -0.7253 -0.1126 -0.2054
12247TIP3   OH258155   0.319   4.573   4.577  0.3895 -0.7175 -0.0870
12247TIP3    H158156   0.283   4.653   4.539 -0.6858 -1.6094 -1.0422
12247TIP3    H258157   0.339   4.517   4.502  0.0423 -1.7802  0.5829
12248TIP3   OH258158   1.598   3.169  15.156  0.0690  0.2259  0.2583
12248TIP3    H158159   1.675   3.149  15.209 -0.4870  1.2481  1.4936
12248TIP3    H258160   1.538   3.212  15.217 -0.6017  1.4202 -1.1996
12249TIP3   OH258161   2.542   1.026   5.623 -0.5039 -0.2077 -0.2051
12249TIP3    H158162   2.504   1.051   5.538 -0.4747 -0.2789 -0.2398
12249TIP3    H258163   2.544   0.930   5.620  0.8868 -0.1818 -0.7475
12250TIP3   OH258164   1.487   4.832   3.367  0.1866  0.1617  0.1425
12250TIP3    H158165   1.399   4.801   3.390 -0.1997  1.9827  1.3182
12250TIP3    H258166   1.547   4.774   3.413 -0.3841 -1.0287 -0.5784
12251TIP3   OH258167   2.906   4.730  16.845  0.3043 -0.1001 -0.6245
12251TIP3    H158168   2.888   4.821  16.819  0.1871  0.2992  0.7708
12251TIP3    H258169   2.991   4.734  16.888 -0.4192 -0.3232  0.9034
12252TIP3   OH258170   3.459   4.211   2.412 -0.2853  0.2650 -0.5769
12252TIP3    H158171   3.475   4.302   2.436  0.9470 -0.2696  0.8174
12252TIP3    H258172   3.496   4.203   2.323  2.1708  0.5213  0.3278
12253TIP3   OH258173   2.506   1.157   1.159  0.3535  0.3667 -0.2584
12253TIP3    H158174   2.447   1.115   1.221  1.5361 -0.0622  0.6285
12253TIP3    H258175   2.537   1.235   1.205  0.5850  0.5067 -0.6465
12254TIP3   OH258176   3.878   0.851   4.678  0.5784 -0.0241  0.2206
12254TIP3    H158177   3.955   0.854   4.621  0.0329 -1.3051 -0.6306
12254TIP3    H258178   3.910   0.810   4.759  0.5432 -1.8132 -0.6210
12255TIP3   OH258179   0.077   2.114  11.630  0.2014  0.1790 -0.2085
12255TIP3    H158180  -0.001   2.126  11.685 -0.3025  0.3283 -0.9500
12255TIP3    H258181   0.043   2.103  11.542  0.8727 -2.1295 -0.2465
12256TIP3   OH258182   5.770   2.544  13.512  0.0367  0.3317 -0.2796
12256TIP3    H158183   5.709   2.617  13.504  1.4321  1.8846  2.0445
12256TIP3    H258184   5.844   2.568  13.455  1.2169  1.6280  1.6989
12257TIP3   OH258185   1.042   2.047  15.713  0.3301  0.6022  0.1256
12257TIP3    H158186   1.031   1.954  15.728  0.1912  0.8390  1.6588
12257TIP3    H258187   0.954   2.079  15.694  0.4915  0.3154 -1.1970
12258TIP3   OH258188   2.762   2.123   4.729  0.1141 -0.1010  0.0454
12258TIP3    H158189   2.692   2.088   4.674 -1.2966 -0.7136  2.1096
12258TIP3    H258190   2.789   2.203   4.685 -1.7262  0.0349 -0.9492
12259TIP3   OH258191   2.554   3.424   2.643 -0.0012  0.4145  0.2179
12259TIP3    H158192   2.487   3.413   2.576  0.1522  1.3454 -0.1014
12259TIP3    H258193   2.506   3.448   2.722 -0.1888 -0.7534  0.4810
12260TIP3   OH258194   1.414   4.542  11.811  0.6923  0.2151  0.7018
12260TIP3    H158195   1.450   4.626  11.838 -1.2974  1.1763  0.5826
12260TIP3    H258196   1.389   4.555  11.719 -0.8799 -0.0220  1.0708
12261TIP3   OH258197   4.378   5.281  15.073 -0.1648  0.0780 -0.4754
12261TIP3    H158198   4.338   5.274  15.160 -1.0232  1.0436 -0.7575
12261TIP3    H258199   4.318   5.233  15.016 -0.0897  0.2158 -0.6690
12262TIP3   OH258200   1.771   2.118  13.728 -0.5651  0.3959 -0.2925
12262TIP3    H158201   1.798   2.208  13.747 -0.9931  0.7392 -1.2603
12262TIP3    H258202   1.850   2.066  13.744  0.1953  1.1653 -1.3564
12263TIP3   OH258203   2.247   1.613  15.875  0.2233 -0.2928 -0.1139
12263TIP3    H158204   2.205   1.694  15.846  0.0124 -0.7145 -0.9977
12263TIP3    H258205   2.181   1.571  15.930  0.1143 -0.1514 -0.1348
12264TIP3   OH258206   2.194   5.056   3.526 -0.1069 -0.5178  0.2238
12264TIP3    H158207   2.173   5.022   3.439  0.6563  2.2984 -1.1711
12264TIP3    H258208   2.282   5.021   3.545 -0.1359 -0.8776 -0.2864
12265TIP3   OH258209   2.099   2.349   6.192  0.5006 -0.0666  0.2304
12265TIP3    H158210   2.167   2.283   6.183  0.0457 -0.3559 -1.2443
12265TIP3    H258211   2.137   2.415   6.251  1.6911 -0.6644  0.1459
12266TIP3   OH258212   6.698   3.152   4.333  0.2185  0.3109 -0.5287
12266TIP3    H158213   6.744   3.075   4.365  0.9230  1.5496  1.6314
12266TIP3    H258214   6.733   3.166   4.245  2.7255  0.2035  0.3840
12267TIP3   OH258215   3.352   2.230  13.025  0.4416  0.0037  0.5611
12267TIP3    H158216   3.330   2.160  12.963 -0.1879  0.6852 -0.0100
12267TIP3    H258217   3.424   2.277  12.982  0.6600 -0.1071  0.8043
12268TIP3   OH258218   3.030   4.105   5.499 -0.1586  0.7201 -0.1043
12268TIP3    H158219   3.047   4.154   5.579  1.0078 -0.2109  0.2469
12268TIP3    H258220   2.949   4.142   5.464  0.1038  2.1258  0.7278
12269TIP3   OH258221   0.749   0.490  14.182  0.1693  0.4134  0.0201
12269TIP3    H158222   0.769   0.556  14.114  1.2210 -1.0553 -1.1636
12269TIP3    H258223   0.809   0.511  14.253  0.5806  0.6805 -0.3932
12270TIP3   OH258224   3.065   0.727   2.439 -0.0304  0.5108  0.2642
12270TIP3    H158225   3.146   0.767   2.409 -0.5956  0.9982 -0.6517
12270TIP3    H258226   3.041   0.666   2.370 -0.8183  0.8975  0.1878
12271TIP3   OH258227   2.556   6.059   1.091  0.0495 -0.3526  0.0303
12271TIP3    H158228   2.604   6.129   1.046 -1.2579  0.2886 -0.4291
12271TIP3    H258229   2.568   6.078   1.184 -2.0270  1.8142 -0.0455
12272TIP3   OH258230   3.248   5.355  11.882 -0.4113 -0.0097 -0.3232
12272TIP3    H158231   3.155   5.337  11.870 -0.4696 -0.4524  0.7628
12272TIP3    H258232   3.251   5.440  11.925 -0.3503 -0.3922  0.4389
12273TIP3   OH258233   6.012   3.067   1.369 -0.0132  0.3457  0.3015
12273TIP3    H158234   6.103   3.097   1.362  0.0336  0.2996  0.6995
12273TIP3    H258235   6.017   2.989   1.424 -0.2425  0.0918 -0.0327
12274TIP3   OH258236   0.008   6.355  15.374  0.2386  0.2007 -0.1471
12274TIP3    H158237  -0.005   6.287  15.440 -1.0591 -0.0500 -0.6336
12274TIP3    H258238  -0.063   6.418  15.389  1.2458  1.3143  0.1072
12275TIP3   OH258239   6.217   5.096  13.718 -0.1281  0.0570  0.0003
12275TIP3    H158240   6.303   5.054  13.709 -0.0111  0.6238 -1.9828
12275TIP3    H258241   6.169   5.039  13.778  1.6333 -0.2381  1.2140
12276TIP3   OH258242   2.368   3.758   6.348 -0.7020  0.3298  0.1797
12276TIP3    H158243   2.350   3.829   6.410 -2.9077 -0.0140  0.0403
12276TIP3    H258244   2.356   3.798   6.262 -0.8625  0.0538  0.0735
12277TIP3   OH258245   6.386   5.720   6.242  0.1395 -0.1749 -0.4370
12277TIP3    H158246   6.368   5.810   6.270  0.2118  0.1815 -1.4796
12277TIP3    H258247   6.437   5.682   6.314  0.8132  0.8792 -0.3349
12278TIP3   OH258248   6.515   4.227   4.233  0.0495  0.7710  0.7829
12278TIP3    H158249   6.580   4.158   4.244 -0.4735  0.1246 -0.0669
12278TIP3    H258250   6.565   4.302   4.201  0.2807  0.0355 -0.6394
12279TIP3   OH258251   3.432   4.967  16.104  0.3822 -0.2843 -0.0663
12279TIP3    H158252   3.515   5.015  16.100  1.4334 -1.8154  1.4997
12279TIP3    H258253   3.444   4.893  16.044 -0.9590  0.9643 -1.9426
12280TIP3   OH258254   0.202   6.419   5.145  0.8816 -0.2863  0.0211
12280TIP3    H158255   0.161   6.472   5.076  2.1606 -0.3253 -0.8109
12280TIP3    H258256   0.129   6.380   5.192 -0.1055  1.6622  0.2334
12281TIP3   OH258257   1.265   6.462   0.189  0.0077  0.1109 -0.4294
12281TIP3    H158258   1.299   6.501   0.270 -1.1770 -1.5140  0.9486
12281TIP3    H258259   1.331   6.398   0.163 -0.0023  0.0135 -0.2221
12282TIP3   OH258260   5.898   2.117  14.273 -1.2045 -0.0426 -0.1682
12282TIP3    H158261   5.836   2.189  14.259 -0.6832  0.8769  1.9481
12282TIP3    H258262   5.958   2.123  14.198 -1.5720  1.3032 -0.3805
12283TIP3   OH258263   4.166   5.716  14.045  0.3671  0.4910 -0.4798
12283TIP3    H158264   4.175   5.781  13.975 -0.3651  1.8352  0.6272
12283TIP3    H258265   4.193   5.763  14.124  3.6017 -1.6859 -0.0892
12284TIP3   OH258266   5.632   6.606   2.357  0.5947  0.2207  0.2184
12284TIP3    H158267   5.676   6.686   2.329  1.1750  0.2255  1.0905
12284TIP3    H258268   5.653   6.541   2.290  2.7567 -0.0406  1.0569
12285TIP3   OH258269   3.959   5.576   4.667 -0.0273 -0.6852 -0.4460
12285TIP3    H158270   4.040   5.572   4.717 -0.7649  0.9281  1.0117
12285TIP3    H258271   3.908   5.646   4.709 -0.1866  1.8372 -4.2799
12286TIP3   OH258272   5.144   1.608  12.869 -0.7225 -0.5112  0.3032
12286TIP3    H158273   5.193   1.534  12.905  2.5409 -0.4084 -3.3066
12286TIP3    H258274   5.194   1.685  12.897 -1.5151  0.0209  0.3026
12287TIP3   OH258275   6.207   0.154   3.893  0.0312 -0.3414 -0.1365
12287TIP3    H158276   6.197   0.068   3.932 -0.2157 -0.0277  0.4984
12287TIP3    H258277   6.271   0.199   3.948  0.1475 -0.1079 -0.4553
12288TIP3   OH258278   2.862   0.661  14.258 -0.6135 -0.0295  0.3106
12288TIP3    H158279   2.850   0.723  14.186  0.3063  0.4951  0.5969
12288TIP3    H258280   2.797   0.592  14.241  1.6530 -1.6704 -2.8629
12289TIP3   OH258281   1.579   2.970   6.555  0.3651 -0.7426 -0.5478
12289TIP3    H158282   1.583   2.898   6.492  2.7815 -0.3659 -0.9023
12289TIP3    H258283   1.530   3.038   6.510 -1.5655 -1.9305 -0.3751
12290TIP3   OH258284   0.767   3.124   2.813  0.3106 -0.0970  0.0491
12290TIP3    H158285   0.814   3.047   2.845  0.9769  0.0861 -0.4659
12290TIP3    H258286   0.807   3.198   2.858  0.1713  0.0165 -0.0116
12291TIP3   OH258287   2.257   2.316   5.478 -0.4374  0.2663  0.2134
12291TIP3    H158288   2.237   2.406   5.505  0.0651  1.0364 -1.7624
12291TIP3    H258289   2.279   2.324   5.385  1.4109 -1.6526  0.4295
12292TIP3   OH258290   3.861   5.745  10.565 -0.4491  0.4211 -0.3496
12292TIP3    H158291   3.930   5.680  10.575 -0.9242  0.1636  1.9061
12292TIP3    H258292   3.800   5.707  10.502 -0.5050 -1.1908  0.6248
12293TIP3   OH258293   4.593   5.416  16.329 -0.1319 -0.3426 -0.2478
12293TIP3    H158294   4.564   5.382  16.414 -1.9919 -3.7740 -2.0246
12293TIP3    H258295   4.518   5.403  16.272  0.4754  3.4373 -2.1489
12294TIP3   OH258296   3.336   3.772   5.401  0.6879  0.4276  0.1548
12294TIP3    H158297   3.295   3.829   5.466 -0.2221  0.4335 -0.4102
12294TIP3    H258298   3.331   3.820   5.319  1.1281  0.0968 -0.0706
12295TIP3   OH258299   5.810   5.253   2.324 -0.3036 -0.1493  0.1792
12295TIP3    H158300   5.735   5.251   2.383 -1.1208 -0.2588 -0.8190
12295TIP3    H258301   5.885   5.226   2.377 -0.4928  2.2534  1.8376
12296TIP3   OH258302   1.672   4.174   0.238 -0.3799  0.3170  0.0573
12296TIP3    H158303   1.606   4.222   0.289 -0.9155 -0.6527  0.2902
12296TIP3    H258304   1.707   4.240   0.179 -2.1372  0.6916 -0.6473
12297TIP3   OH258305   1.660   0.988  15.234  0.2685 -0.7577  0.2348
12297TIP3    H158306   1.736   0.995  15.293  1.8174 -1.1441 -1.5978
12297TIP3    H258307   1.677   1.053  15.166 -1.3725 -0.4563  0.0809
12298TIP3   OH258308   5.461   5.784  13.227  0.4807 -0.5751  0.1608
12298TIP3    H158309   5.535   5.774  13.287  0.4496 -1.8396  0.0111
12298TIP3    H258310   5.438   5.695  13.202 -2.3570 -0.3930  1.7184
12299TIP3   OH258311   6.234   4.687  11.256  0.0845 -0.2652  0.0861
12299TIP3    H158312   6.241   4.782  11.268 -1.0863 -0.0982 -0.4558
12299TIP3    H258313   6.175   4.658  11.326 -2.0619 -0.1120 -1.5468
12300TIP3   OH258314   5.087   6.573  12.033  0.4497 -0.4549  0.1871
12300TIP3    H158315   5.121   6.500  12.085  0.4176 -0.7260 -0.1725
12300TIP3    H258316   4.996   6.548  12.013  0.4662 -0.3566 -0.0140
12301TIP3   OH258317   1.809   5.476  13.158  0.4054  0.0549  0.1780
12301TIP3    H158318   1.882   5.452  13.101  0.8835  0.2938  0.6840
12301TIP3    H258319   1.744   5.408  13.144  0.2390  0.4542 -1.1596
12302TIP3   OH258320   5.081   2.719  12.888  0.3482 -0.0391 -0.2845
12302TIP3    H158321   5.008   2.769  12.925  0.7593 -0.9213  1.8192
12302TIP3    H258322   5.154   2.735  12.947  1.4395 -0.4502 -1.4796
12303TIP3   OH258323   5.439   6.781  16.680  0.2982  0.7926 -0.6784
12303TIP3    H158324   5.418   6.733  16.600  3.6111  0.5946 -1.5729
12303TIP3    H258325   5.466   6.713  16.742  0.4398  1.1560 -0.3390
12304TIP3   OH258326   5.307   4.169   4.124 -0.2987 -0.5708 -0.0538
12304TIP3    H158327   5.215   4.195   4.122 -1.3016 -2.5157  4.7048
12304TIP3    H258328   5.310   4.085   4.077 -1.0465 -0.6266 -0.0047
12305TIP3   OH258329   0.030   5.767   0.326 -0.2076 -0.5637  0.4437
12305TIP3    H158330  -0.002   5.782   0.415  1.4705 -1.8354  1.2968
12305TIP3    H258331  -0.022   5.828   0.272 -2.1847 -0.6876  2.0689
12306TIP3   OH258332   2.332   5.228   5.245 -0.1017  0.0032  0.5525
12306TIP3    H158333   2.245   5.244   5.209  0.8992  2.0244 -1.2003
12306TIP3    H258334   2.382   5.194   5.171  0.2920 -2.5552  1.8989
12307TIP3   OH258335   6.268   3.591  10.937 -0.0168  0.3962 -0.4883
12307TIP3    H158336   6.223   3.674  10.954 -0.5767  0.0906 -0.4786
12307TIP3    H258337   6.246   3.570  10.846 -0.1964  0.0603 -0.3681
12308TIP3   OH258338   2.391   5.862  10.275  0.2809  0.0906 -0.5033
12308TIP3    H158339   2.305   5.897  10.297  1.1886  0.6800  2.5148
12308TIP3    H258340   2.381   5.767  10.280 -0.3793  0.1264 -1.0341
12309TIP3   OH258341   2.178   2.742   5.325 -0.4338 -0.0476 -0.3227
12309TIP3    H158342   2.110   2.778   5.268  0.3618 -0.6939 -1.7564
12309TIP3    H258343   2.240   2.814   5.337 -0.8631  0.2427  0.1385
12310TIP3   OH258344   3.845   0.429  12.410  0.1172 -0.0808 -0.2836
12310TIP3    H158345   3.789   0.458  12.338 -0.9723  3.3674  1.6795
12310TIP3    H258346   3.784   0.393  12.475  0.6684 -0.0739  0.2481
12311TIP3   OH258347   3.983   5.674   3.792  0.0428  0.7524  0.1120
12311TIP3    H158348   3.946   5.587   3.808  0.4226  0.7520  1.0816
12311TIP3    H258349   3.908   5.727   3.763 -0.3392  0.2888  0.2307
12312TIP3   OH258350   2.859   0.503  11.436  0.1237 -0.3385  0.0913
12312TIP3    H158351   2.773   0.468  11.416 -0.7794  1.8166 -0.0654
12312TIP3    H258352   2.864   0.503  11.531  0.0118 -0.6096  0.0969
12313TIP3   OH258353   0.011   0.854  13.128  0.0543 -0.2284 -0.0422
12313TIP3    H158354  -0.053   0.902  13.075  1.3004  1.9785  0.3022
12313TIP3    H258355  -0.015   0.871  13.218  0.1726 -0.7037  0.0821
12314TIP3   OH258356   5.689   4.913  12.407 -0.3011 -0.4039  0.2420
12314TIP3    H158357   5.753   4.977  12.438 -0.5982  0.3138 -0.5570
12314TIP3    H258358   5.683   4.930  12.313 -0.0505 -1.9306 -0.0737
12315TIP3   OH258359   4.537   6.503  14.891 -0.2044  0.1681  0.1518
12315TIP3    H158360   4.553   6.447  14.967  2.4357  0.5037 -0.0785
12315TIP3    H258361   4.552   6.592  14.923  1.1568  0.3003 -0.7790
12316TIP3   OH258362   0.829   5.822   1.786  0.1087  0.0676  0.4561
12316TIP3    H158363   0.908   5.828   1.732  0.6489  2.2496  1.4222
12316TIP3    H258364   0.860   5.789   1.870  0.1185  1.5053  1.0328
12317TIP3   OH258365   1.777   4.007   3.460  0.5533 -0.7017 -0.2750
12317TIP3    H158366   1.857   3.970   3.496  2.9044  2.3382 -1.8705
12317TIP3    H258367   1.767   4.091   3.504 -1.2764 -0.5955 -0.7821
12318TIP3   OH258368   1.699   5.517  10.407  0.3136 -0.3423  0.4580
12318TIP3    H158369   1.626   5.469  10.368  1.2141  0.4480 -2.4206
12318TIP3    H258370   1.777   5.481  10.365  1.0351  3.6649 -2.2290
12319TIP3   OH258371   0.073   4.545   5.986 -0.8316 -0.0049  0.9198
12319TIP3    H158372   0.041   4.577   6.071 -0.9668 -1.3956  1.4124
12319TIP3    H258373   0.112   4.460   6.006  0.0874  0.1217 -0.2555
12320TIP3   OH258374   1.476   5.887  16.017  0.2555 -0.4785 -0.2987
12320TIP3    H158375   1.402   5.904  16.075  0.3575  1.4162 -0.6647
12320TIP3    H258376   1.477   5.961  15.956  2.4847 -0.3931 -0.2455
12321TIP3   OH258377   1.775   5.454  14.242 -0.7393  0.3863  0.1860
12321TIP3    H158378   1.684   5.454  14.210 -0.4120 -0.3205 -0.7998
12321TIP3    H258379   1.794   5.546  14.261 -1.0004  0.8229 -1.5485
12322TIP3   OH258380   2.951   2.830  15.828  0.5693 -0.4128  0.1002
12322TIP3    H158381   2.973   2.862  15.915  2.1400 -0.8964 -0.0860
12322TIP3    H258382   2.935   2.736  15.841 -0.6044 -0.2284  0.0827
12323TIP3   OH258383   6.367   3.182  12.564 -1.1193  0.7259 -0.2751
12323TIP3    H158384   6.422   3.190  12.486 -0.6518 -0.1590 -0.0509
12323TIP3    H258385   6.332   3.093  12.559 -0.5047  0.3972  0.8851
12324TIP3   OH258386   3.940   6.365   4.511 -0.5069 -0.1189  0.0704
12324TIP3    H158387   3.966   6.407   4.429 -1.9528 -0.4257 -0.5799
12324TIP3    H258388   3.918   6.275   4.486  1.9204 -1.1776  1.3254
12325TIP3   OH258389   5.922   2.827  13.963  0.3076  0.3220 -0.2670
12325TIP3    H158390   5.860   2.861  14.029  1.0988 -0.5917  0.9843
12325TIP3    H258391   5.964   2.906  13.928  0.4631  0.7972  0.9327
12326TIP3   OH258392   6.718   0.488  11.495  0.0218  0.1441 -0.5143
12326TIP3    H158393   6.718   0.579  11.466 -0.5134  0.0566 -0.8024
12326TIP3    H258394   6.761   0.440  11.424  1.6775  0.3540  0.2890
12327TIP3   OH258395   0.254   3.867  14.599 -0.4861  0.0198 -0.2418
12327TIP3    H158396   0.166   3.871  14.637  0.0192 -0.2342  1.0325
12327TIP3    H258397   0.306   3.926  14.654  0.2952 -0.3959 -0.5164
12328TIP3   OH258398   5.031   0.961  13.508 -0.3714 -0.8267 -0.2005
12328TIP3    H158399   5.060   1.050  13.527 -0.4851 -0.8398  0.0490
12328TIP3    H258400   4.954   0.949  13.564  0.0945 -1.3507  0.3490
12329TIP3   OH258401   1.476   2.021   3.344 -0.0135  0.1011  0.2012
12329TIP3    H158402   1.537   2.094   3.354 -1.0607  1.0250  0.1362
12329TIP3    H258403   1.508   1.954   3.404 -0.7559  1.8164  2.7061
12330TIP3   OH258404   1.099   3.427   4.016 -0.2034 -0.2668  0.2253
12330TIP3    H158405   1.013   3.415   3.975 -1.2653 -1.8368  2.7230
12330TIP3    H258406   1.104   3.359   4.082  2.5203  0.5193  0.9395
12331TIP3   OH258407   3.095   6.443  11.755  0.5384  0.5175 -0.0481
12331TIP3    H158408   3.074   6.482  11.840  0.4772 -0.3229  0.3418
12331TIP3    H258409   3.010   6.423  11.716  0.4848  2.8425 -1.2899
12332TIP3   OH258410   4.535   1.172  14.441 -0.1935  0.5889 -0.5835
12332TIP3    H158411   4.452   1.158  14.488  1.3655  0.1255  2.2455
12332TIP3    H258412   4.543   1.095  14.384 -0.6452 -0.5606  0.8471
12333TIP3   OH258413   3.346   3.806  16.361 -0.1071 -0.2105  0.1939
12333TIP3    H158414   3.344   3.874  16.428 -0.7147 -0.0232 -0.0075
12333TIP3    H258415   3.314   3.727  16.405  0.3746 -0.3086  0.3670
12334TIP3   OH258416   1.340   6.490  14.609  0.0406  0.4623 -0.1736
12334TIP3    H158417   1.292   6.424  14.659  0.1533  0.0142 -0.6519
12334TIP3    H258418   1.346   6.565  14.669 -1.7647  0.7566 -0.3178
12335TIP3   OH258419   1.130   2.285   0.082 -0.3955  0.1628  0.1026
12335TIP3    H158420   1.148   2.278   0.176 -0.1048  2.4713  0.2686
12335TIP3    H258421   1.077   2.208   0.063  1.8433 -1.8787  1.5353
12336TIP3   OH258422   2.652   6.122   4.198  0.0364  0.1133 -0.2308
12336TIP3    H158423   2.644   6.217   4.186  2.9017  0.3552 -0.9422
12336TIP3    H258424   2.648   6.109   4.292 -0.8840  0.8603 -0.1508
12337TIP3   OH258425   5.478   5.737   4.424 -0.3622  0.0789 -0.3247
12337TIP3    H158426   5.442   5.654   4.455  0.8479 -0.2629  0.2056
12337TIP3    H258427   5.497   5.721   4.331  0.2274 -0.3731 -0.1323
12338TIP3   OH258428   0.384   5.579   0.104 -0.0428 -0.2713  1.1204
12338TIP3    H158429   0.378   5.488   0.134 -0.7456 -0.3392  0.8015
12338TIP3    H258430   0.389   5.572   0.009 -0.4016  0.0312  1.0762
12339TIP3   OH258431   0.321   1.312  12.993  0.2559 -0.2049 -0.5449
12339TIP3    H158432   0.296   1.374  13.061  0.1514 -0.4682 -0.3437
12339TIP3    H258433   0.248   1.250  12.989 -0.2455  0.4219 -1.6412
12340TIP3   OH258434   3.013   4.956   3.850 -0.1366  0.1212  0.3638
12340TIP3    H158435   2.953   4.953   3.776 -0.2291  1.5852  0.3545
12340TIP3    H258436   2.983   4.886   3.908  0.8473 -2.0345 -1.6170
12341TIP3   OH258437   4.930   2.508   2.366 -0.0633 -0.0264 -0.6327
12341TIP3    H158438   4.888   2.452   2.431 -0.7904  0.2218 -0.8818
12341TIP3    H258439   4.862   2.571   2.341  1.4458  2.7907  1.6559
12342TIP3   OH258440   0.375   6.557   4.333  0.6742 -0.4154  0.1313
12342TIP3    H158441   0.455   6.589   4.293  1.1515 -0.0922  1.2931
12342TIP3    H258442   0.323   6.636   4.349  2.1163 -0.0097  3.5756
12343TIP3   OH258443   3.722   6.046  15.340 -0.1978 -0.6493 -0.2851
12343TIP3    H158444   3.679   5.970  15.379 -0.7961 -0.0156  0.3151
12343TIP3    H258445   3.807   6.050  15.385 -0.8254 -0.0069  0.8919
12344TIP3   OH258446   6.693   1.248  11.416  0.1338  0.5656 -0.1143
12344TIP3    H158447   6.770   1.299  11.388  0.2852  0.2745 -0.2329
12344TIP3    H258448   6.673   1.281  11.503  0.4243  0.6156 -0.0656
12345TIP3   OH258449   3.243   0.226  12.754 -0.6091 -0.5065  0.5715
12345TIP3    H158450   3.148   0.238  12.754 -0.4112  1.2160  0.4379
12345TIP3    H258451   3.263   0.195  12.666 -0.9774 -0.2410  0.3925
12346TIP3   OH258452   1.585   4.734   1.583 -0.4131 -0.0682  0.0890
12346TIP3    H158453   1.552   4.823   1.570  0.4484  0.0029 -1.9192
12346TIP3    H258454   1.507   4.678   1.575 -0.9656  0.4622  1.4122
12347TIP3   OH258455   0.544   0.413   3.661 -0.1197 -0.1708  0.0534
12347TIP3    H158456   0.507   0.395   3.747 -3.5497 -0.3363 -1.3137
12347TIP3    H258457   0.542   0.509   3.654  1.1873 -0.0802  0.4809
12348TIP3   OH258458   1.501   1.117   3.870 -0.4456  0.2356 -0.7501
12348TIP3    H158459   1.569   1.058   3.900  0.7644  1.2565 -1.4036
12348TIP3    H258460   1.448   1.064   3.810  0.9461 -0.0585 -1.7568
12349TIP3   OH258461   3.221   2.626   5.547 -0.3950  0.7737 -0.0519
12349TIP3    H158462   3.174   2.587   5.473  1.1973 -3.0966  0.7099
12349TIP3    H258463   3.314   2.618   5.523  0.1673 -0.7077  2.2815
12350TIP3   OH258464   2.448   5.667  13.828  0.2524 -0.3019 -0.4510
12350TIP3    H158465   2.511   5.739  13.826 -1.0842  0.8979 -1.8121
12350TIP3    H258466   2.497   5.591  13.796  0.6599  0.9735 -3.1028
12351TIP3   OH258467   0.013   1.549  14.736  0.0697 -0.0235 -0.0946
12351TIP3    H158468  -0.002   1.593  14.820 -2.5839  0.9870 -0.9898
12351TIP3    H258469   0.004   1.456  14.756  1.8995  0.0101  1.1299
12352TIP3   OH258470   0.964   1.607   0.222 -0.1339  0.2722  0.3239
12352TIP3    H158471   0.929   1.619   0.311  1.0055  1.4916  0.6435
12352TIP3    H258472   1.037   1.669   0.217  1.4048 -1.5082 -0.6144
12353TIP3   OH258473   4.789   6.560  16.605  0.1063 -0.4024  0.5147
12353TIP3    H158474   4.715   6.619  16.591  0.7257  0.2574 -0.0581
12353TIP3    H258475   4.784   6.498  16.532  0.1619 -0.3146  0.4366
12354TIP3   OH258476   2.663   2.409  16.292  0.3826 -0.1387 -0.1985
12354TIP3    H158477   2.644   2.487  16.239 -2.0777  0.8984  1.9856
12354TIP3    H258478   2.758   2.409  16.301  0.5017  2.2839 -0.7603
12355TIP3   OH258479   0.021   6.389   3.933 -0.1093 -0.4081  0.2123
12355TIP3    H158480   0.081   6.386   3.858 -0.3698  0.2233 -0.0225
12355TIP3    H258481  -0.003   6.297   3.948  1.1082 -0.6944  0.4704
12356TIP3   OH258482   0.326   5.923  12.523  0.2701 -0.1588  0.0576
12356TIP3    H158483   0.421   5.909  12.520  0.4018  0.7828 -0.3638
12356TIP3    H258484   0.293   5.875  12.447  0.1868 -1.9341  1.1427
12357TIP3   OH258485   0.007   2.716  14.962  0.6292  0.4764 -0.3328
12357TIP3    H158486   0.040   2.638  14.917  0.1946  0.0233  0.1233
12357TIP3    H258487   0.085   2.756  15.001  0.5318 -1.5223  2.2077
12358TIP3   OH258488   2.349   1.609  12.124 -0.3867 -0.1845  0.2903
12358TIP3    H158489   2.281   1.654  12.175  0.7006  1.0292  0.7101
12358TIP3    H258490   2.312   1.523  12.106 -0.8793 -0.6173  3.0067
12359TIP3   OH258491   1.039   1.268  11.654  0.3995 -0.6820 -0.4061
12359TIP3    H158492   0.987   1.316  11.718 -1.6776 -1.2526 -1.5953
12359TIP3    H258493   1.064   1.187  11.699  2.0882  0.4651  0.8638
12360TIP3   OH258494   0.536   4.403  14.205  0.4798 -0.0870  0.3820
12360TIP3    H158495   0.577   4.318  14.224  0.8865  0.1341  0.5079
12360TIP3    H258496   0.609   4.465  14.204  0.3568  0.0659 -0.9515
12361TIP3   OH258497   0.619   1.761   4.148  0.0393 -0.1185  0.3703
12361TIP3    H158498   0.570   1.685   4.117 -2.2741  0.9442  1.2731
12361TIP3    H258499   0.636   1.743   4.241  2.2434 -0.8588 -0.1001
12362TIP3   OH258500   3.570   5.491  11.921  0.3372  0.4134  0.5490
12362TIP3    H158501   3.555   5.418  11.981 -0.9256  0.5606  0.4392
12362TIP3    H258502   3.489   5.541  11.922  0.0352  0.1031 -1.7103
12363TIP3   OH258503   0.801   6.653  12.049 -0.6243  0.2303 -0.6153
12363TIP3    H158504   0.811   6.740  12.087  2.5929  0.2172 -1.1834
12363TIP3    H258505   0.832   6.662  11.959 -1.3850 -1.2831 -1.0660
12364TIP3   OH258506   1.132   3.591   4.362  0.1753 -0.2394 -0.4003
12364TIP3    H158507   1.092   3.649   4.297 -2.0275 -1.7832 -0.5372
12364TIP3    H258508   1.133   3.505   4.320 -1.2593 -1.2644  1.5108
12365TIP3   OH258509   4.356   2.351   1.527  0.4900  0.2000  0.4334
12365TIP3    H158510   4.435   2.313   1.488 -1.1477 -1.3145 -1.7018
12365TIP3    H258511   4.361   2.444   1.504  1.4724  0.0706  0.0436
12366TIP3   OH258512   1.447   1.843  14.572 -0.5445 -0.4750  0.3630
12366TIP3    H158513   1.474   1.770  14.628 -0.5537 -0.2789  0.6293
12366TIP3    H258514   1.506   1.915  14.596 -0.4314 -0.4417 -0.0098
12367TIP3   OH258515   3.605   5.820   2.221 -0.1393 -0.2401  0.8557
12367TIP3    H158516   3.625   5.737   2.264 -1.1414 -0.6240  0.6165
12367TIP3    H258517   3.606   5.884   2.292 -0.7546 -0.7036  1.3021
12368TIP3   OH258518   0.716   3.298  11.382 -0.2357 -0.2411 -0.5335
12368TIP3    H158519   0.665   3.370  11.419  1.1787  1.2746 -1.4134
12368TIP3    H258520   0.800   3.302  11.427 -0.1660 -1.4293 -0.5213
12369TIP3   OH258521   2.189   4.194  15.409 -0.1196  0.6438 -0.1700
12369TIP3    H158522   2.206   4.105  15.440 -0.5311  0.2860 -0.9325
12369TIP3    H258523   2.275   4.236  15.407 -0.1136  0.7884  1.7224
12370TIP3   OH258524   6.790   2.473   4.673  0.3768  0.3274  0.3222
12370TIP3    H158525   6.797   2.519   4.590  0.9143  0.0472  0.2084
12370TIP3    H258526   6.784   2.543   4.739  1.8393  0.5897  0.2121
12371TIP3   OH258527   3.660   6.392   2.220  0.1268 -0.6318  0.3563
12371TIP3    H158528   3.699   6.471   2.183 -1.7371  0.2098  0.0707
12371TIP3    H258529   3.722   6.322   2.199  0.4740  0.2746 -1.9431
12372TIP3   OH258530   3.395   3.998  16.148 -0.1384 -0.3402 -0.2816
12372TIP3    H158531   3.385   3.966  16.237  0.0661 -0.2809 -0.2369
12372TIP3    H258532   3.487   3.982  16.126 -0.2414 -0.5544 -0.5594
12373TIP3   OH258533   5.923   4.742  10.955 -0.3608 -0.1836 -0.0887
12373TIP3    H158534   5.930   4.661  11.005  1.1385  0.2413  0.4502
12373TIP3    H258535   5.913   4.713  10.864  0.7895 -0.9972  0.0183
12374TIP3   OH258536   0.251   0.959  13.028 -0.3036  0.0593  0.2233
12374TIP3    H158537   0.201   1.037  13.004 -1.4341 -0.9675 -0.9337
12374TIP3    H258538   0.201   0.919  13.099 -0.6175 -0.4454 -0.2690
12375TIP3   OH258539   6.694   2.500   5.523 -0.1306 -0.4140  0.2149
12375TIP3    H158540   6.731   2.423   5.480  0.9054 -0.5852  1.3684
12375TIP3    H258541   6.758   2.569   5.507 -0.1902 -0.2455  0.6995
12376TIP3   OH258542   3.152   5.377   6.550 -0.5944  0.1025 -0.0935
12376TIP3    H158543   3.131   5.370   6.457  2.5937  0.2138 -0.9687
12376TIP3    H258544   3.099   5.310   6.592  0.6150 -2.6492 -2.5990
12377TIP3   OH258545   2.192   3.557  12.305 -0.1654  0.2913  0.7128
12377TIP3    H158546   2.259   3.563  12.237 -2.3052  2.6910 -1.4028
12377TIP3    H258547   2.228   3.606  12.379  0.9284  0.3936  0.1258
12378TIP3   OH258548   5.218   2.086   1.064 -0.1326  0.2741  0.0064
12378TIP3    H158549   5.273   2.133   1.001 -0.2216  0.3048 -0.0501
12378TIP3    H258550   5.183   2.154   1.121 -0.3516  0.2898 -0.1453
12379TIP3   OH258551   1.608   0.887  13.288  0.4346  0.6959  0.1782
12379TIP3    H158552   1.566   0.958  13.338 -0.3791 -1.0544  2.1171
12379TIP3    H258553   1.629   0.821  13.354  0.8731 -1.0265 -1.6030
12380TIP3   OH258554   6.275   3.331   5.107  0.2194  0.2933 -0.1493
12380TIP3    H158555   6.337   3.403   5.105  0.2729  0.2549  0.1462
12380TIP3    H258556   6.319   3.261   5.154  1.4227 -1.1131 -3.0964
12381TIP3   OH258557   2.924   2.876  14.348  0.3659 -0.5449  0.0828
12381TIP3    H158558   2.860   2.907  14.412  1.6634  0.8228  0.7777
12381TIP3    H258559   2.880   2.804  14.303 -1.3745 -0.1275  1.0316
12382TIP3   OH258560   4.290   3.933  14.363 -0.4744  0.4685 -0.1938
12382TIP3    H158561   4.212   3.929  14.307  0.0533 -0.2260 -0.9001
12382TIP3    H258562   4.296   3.846  14.402 -0.0856  0.5377 -0.0956
12383TIP3   OH258563   3.769   6.178   4.389  0.0033  0.5424  0.1912
12383TIP3    H158564   3.783   6.252   4.330  1.2543 -0.1488 -0.4120
12383TIP3    H258565   3.674   6.162   4.386 -0.0254  0.8957 -1.1641
12384TIP3   OH258566   3.958   6.349   0.356  0.2237 -0.1853 -0.0697
12384TIP3    H158567   4.035   6.405   0.350  1.1030 -1.3387  0.1675
12384TIP3    H258568   3.989   6.269   0.397 -0.8035 -1.1991 -1.1766
12385TIP3   OH258569   3.782   5.545   5.499  0.1788  0.0883 -0.3626
12385TIP3    H158570   3.807   5.596   5.576 -0.0948  0.3085 -0.4179
12385TIP3    H258571   3.800   5.603   5.425 -0.3989  0.2107 -0.4076
12386TIP3   OH258572   2.830   0.742  11.007  0.1869  0.2155  0.1289
12386TIP3    H158573   2.871   0.829  11.004  0.8079 -0.0798 -0.1610
12386TIP3    H258574   2.901   0.683  11.031  0.5327 -0.6252 -2.5420
12387TIP3   OH258575   4.680   5.093  11.421  0.0104  0.3275  0.4378
12387TIP3    H158576   4.613   5.034  11.457 -1.3577  2.5200  1.6946
12387TIP3    H258577   4.761   5.068  11.464 -0.3730 -1.0840  0.3826
12388TIP3   OH258578   3.041   3.636  14.339 -0.2518  0.0880 -0.0738
12388TIP3    H158579   3.064   3.553  14.297 -2.1034 -0.5804  0.1633
12388TIP3    H258580   3.033   3.698  14.266 -0.6624 -0.3863 -0.4355
12389TIP3   OH258581   4.317   4.616   0.638 -0.2547  0.1385 -0.1518
12389TIP3    H158582   4.381   4.564   0.590 -0.8831 -1.2088  0.4164
12389TIP3    H258583   4.293   4.687   0.578 -1.7679 -2.0353 -2.3128
12390TIP3   OH258584   6.029   4.644  11.993 -0.1467  0.1435  0.5635
12390TIP3    H158585   6.086   4.702  12.045  1.5585 -0.8201 -0.1520
12390TIP3    H258586   6.067   4.557  12.004 -0.5358 -0.2880 -1.2134
12391TIP3   OH258587   4.638   3.644   2.312 -0.4067 -0.2945  0.1816
12391TIP3    H158588   4.601   3.705   2.248 -0.1809  0.1297  0.4512
12391TIP3    H258589   4.618   3.683   2.397  1.5257  0.4847  0.3330
12392TIP3   OH258590   5.847   4.643   3.624 -0.3050 -0.1627  0.0428
12392TIP3    H158591   5.856   4.593   3.706  0.6867 -0.6237 -0.3290
12392TIP3    H258592   5.857   4.577   3.555  1.3673  0.5663 -0.4671
12393TIP3   OH258593   5.885   3.185  13.081 -0.1698  0.3030 -0.5949
12393TIP3    H158594   5.796   3.150  13.088  0.0128  0.1339  1.8210
12393TIP3    H258595   5.916   3.157  12.995 -2.5132  0.5723 -1.5808
12394TIP3   OH258596   2.885   0.600  16.757  0.0478 -0.2671  0.9782
12394TIP3    H158597   2.941   0.579  16.831  0.0134  0.0264  1.0879
12394TIP3    H258598   2.932   0.564  16.681 -0.5034 -1.6554  1.2595
12395TIP3   OH258599   2.352   6.085  10.916  0.8223 -0.7037  0.4262
12395TIP3    H158600   2.334   5.991  10.924  2.2089 -1.0122  0.0746
12395TIP3    H258601   2.265   6.125  10.906  0.1797 -1.8879  1.0225
12396TIP3   OH258602   4.184   5.210   0.102  0.2862  0.4176  0.3479
12396TIP3    H158603   4.274   5.179   0.104  0.0474 -0.3185  0.0297
12396TIP3    H258604   4.182   5.283   0.163  0.9439  0.0235  0.8467
12397TIP3   OH258605   4.920   4.154  14.872 -0.5360 -0.5197 -0.3963
12397TIP3    H158606   4.979   4.211  14.822 -0.7525  0.0140 -0.0608
12397TIP3    H258607   4.882   4.212  14.938  0.1959 -1.3348  0.7762
12398TIP3   OH258608   4.385   0.503   5.510  0.5495 -0.4073  0.6348
12398TIP3    H158609   4.463   0.539   5.552  0.4186  0.8234 -0.1428
12398TIP3    H258610   4.392   0.531   5.418  0.0360 -1.7036  0.1748
12399TIP3   OH258611   3.964   4.527  12.785 -0.3656  0.0327  1.1084
12399TIP3    H158612   3.895   4.562  12.729 -1.9540  0.5563  3.2443
12399TIP3    H258613   3.917   4.484  12.857  1.5599 -2.1581  1.1648
12400TIP3   OH258614   6.347   5.760   5.292  0.0751  0.0728 -0.7299
12400TIP3    H158615   6.292   5.720   5.359 -1.1686  0.0474 -1.7404
12400TIP3    H258616   6.371   5.845   5.329  4.8217 -2.2112  2.5824
12401TIP3   OH258617   3.062   5.461  13.999  0.3030  0.1918 -0.2582
12401TIP3    H158618   3.123   5.465  14.073  0.3563  2.6219 -0.3350
12401TIP3    H258619   3.119   5.449  13.923  0.3065 -1.5861 -0.0089
12402TIP3   OH258620   1.548   5.120  12.735 -0.7785 -0.1058 -0.2042
12402TIP3    H158621   1.519   5.159  12.652 -2.4670  0.8669  0.7927
12402TIP3    H258622   1.469   5.081  12.772  0.1623 -1.4089  0.5105
12403TIP3   OH258623   5.127   5.734  12.976  0.7125 -0.0552  0.0757
12403TIP3    H158624   5.076   5.661  12.941 -0.8577  0.0783  1.9051
12403TIP3    H258625   5.116   5.726  13.071  0.4030  2.6102  0.3265
12404TIP3   OH258626   6.820   1.218   0.137  0.0605  0.4835 -0.2763
12404TIP3    H158627   6.760   1.283   0.176 -1.9003  0.2919 -2.7450
12404TIP3    H258628   6.864   1.266   0.067 -0.8260 -0.6169 -1.6161
12405TIP3   OH258629   4.356   0.302  12.846  0.1237 -0.3661  0.9718
12405TIP3    H158630   4.416   0.376  12.858  0.5742 -0.3283 -1.1385
12405TIP3    H258631   4.311   0.294  12.930 -0.5964  2.8561  1.0146
12406TIP3   OH258632   5.438   3.627   3.264  0.1177 -0.2399 -0.1700
12406TIP3    H158633   5.425   3.697   3.327 -0.2956 -0.5787  0.1231
12406TIP3    H258634   5.442   3.671   3.179  0.0162  0.1516  0.0293
12407TIP3   OH258635   5.834   3.258   1.461 -0.9319 -0.3441 -0.3378
12407TIP3    H158636   5.878   3.177   1.440  1.9567  0.8821  0.5343
12407TIP3    H258637   5.780   3.237   1.538 -1.5692 -1.7763 -1.1395
12408TIP3   OH258638   3.435   1.559  17.022 -0.1939 -0.2010 -0.1572
12408TIP3    H158639   3.435   1.538  17.115 -0.0917 -0.4660 -0.2165
12408TIP3    H258640   3.400   1.480  16.980  2.0955 -1.0875 -0.5586
12409TIP3   OH258641   4.401   6.043   1.856 -0.6050 -0.8389 -0.1866
12409TIP3    H158642   4.381   6.120   1.909  0.9972 -1.6000  1.6300
12409TIP3    H258643   4.456   6.076   1.785  0.8577 -0.3802  1.1062
12410TIP3   OH258644   6.004   1.944  13.261  0.2631 -0.3611  0.0160
12410TIP3    H158645   6.081   1.888  13.271  0.3160 -0.0500  1.6328
12410TIP3    H258646   6.004   1.999  13.339 -0.9314  0.4783 -0.5460
12411TIP3   OH258647   5.449   5.988   4.647 -0.3902 -0.3355  0.2938
12411TIP3    H158648   5.489   5.916   4.696 -2.5785 -0.6446  1.8162
12411TIP3    H258649   5.510   6.006   4.576  0.1318 -3.8884 -0.3514
12412TIP3   OH258650   4.140   4.296  11.501 -0.1258  0.1729  0.5080
12412TIP3    H158651   4.222   4.335  11.469 -0.2051 -0.1658 -0.1247
12412TIP3    H258652   4.168   4.237  11.571  0.2162 -0.2191  0.0502
12413TIP3   OH258653   2.328   0.038  15.917 -0.5205 -0.2667  0.2425
12413TIP3    H158654   2.318   0.026  15.823  1.6421  0.2480 -0.1042
12413TIP3    H258655   2.283   0.121  15.935  1.5227  1.1825 -0.9239
12414TIP3   OH258656   5.333   2.899  15.213 -0.2817  0.2148  0.0037
12414TIP3    H158657   5.413   2.932  15.255 -0.2914  0.3625 -0.0953
12414TIP3    H258658   5.283   2.977  15.192  0.7886  0.3064 -2.4773
12415TIP3   OH258659   0.629   6.472  16.782 -0.4818  0.9707  0.1087
12415TIP3    H158660   0.620   6.457  16.876 -0.0158  0.8594  0.1376
12415TIP3    H258661   0.576   6.550  16.765 -2.7549 -0.5370 -0.0129
12416TIP3   OH258662   2.145   0.162   0.517  0.6473  0.2850 -0.3312
12416TIP3    H158663   2.225   0.169   0.569  1.8156  1.1411 -2.1630
12416TIP3    H258664   2.075   0.157   0.582  2.1195  0.2402  1.3189
12417TIP3   OH258665   6.147   5.537   0.528 -0.0511  0.2727  0.6153
12417TIP3    H158666   6.133   5.525   0.622 -0.4692  1.2421  0.6932
12417TIP3    H258667   6.104   5.462   0.487 -2.3762  1.2432  1.0673
12418TIP3   OH258668   5.227   6.608   4.300 -0.4511  0.3687 -0.1424
12418TIP3    H158669   5.314   6.576   4.326 -1.4474  0.1078  3.3404
12418TIP3    H258670   5.207   6.677   4.363 -2.4190  1.0817 -1.4738
12419TIP3   OH258671   5.159   3.534  14.229  0.1753 -0.4507 -0.5269
12419TIP3    H158672   5.151   3.446  14.266  1.0144 -0.4903 -0.4219
12419TIP3    H258673   5.146   3.593  14.303  1.0994 -0.5174 -0.3023
12420TIP3   OH258674   0.228   3.035  16.325  0.5320  0.7149 -0.9080
12420TIP3    H158675   0.249   3.066  16.414 -2.4785  1.7578 -0.4387
12420TIP3    H258676   0.312   3.031  16.281  1.9809  1.6211  1.5495
12421TIP3   OH258677   2.404   6.273   2.766 -0.1188 -0.3293  0.3889
12421TIP3    H158678   2.337   6.327   2.809  0.9036  0.3598  1.1591
12421TIP3    H258679   2.421   6.317   2.683  1.2450  1.0058  1.3308
12422TIP3   OH258680   4.449   4.589  15.927  0.0733 -0.4003  0.4507
12422TIP3    H158681   4.448   4.496  15.952 -0.4369 -1.4797 -3.0307
12422TIP3    H258682   4.358   4.617  15.938 -0.5441 -1.3913 -1.7587
12423TIP3   OH258683   5.268   5.093   0.095 -0.2041  0.2384  0.2421
12423TIP3    H158684   5.257   5.163   0.031  1.7368 -0.7742 -1.3286
12423TIP3    H258685   5.181   5.055   0.105 -0.8850  1.5849 -0.4196
12424TIP3   OH258686   4.251   0.095   2.530  0.5813 -0.5755  0.0873
12424TIP3    H158687   4.192   0.162   2.495  0.0345 -0.4914  1.1385
12424TIP3    H258688   4.329   0.143   2.559  0.1712 -0.3731  0.8797
12425TIP3   OH258689   6.426   0.328  16.921 -0.6666  0.7031 -0.1245
12425TIP3    H158690   6.456   0.282  16.999  0.4797  2.3562  0.4553
12425TIP3    H258691   6.397   0.414  16.954  2.1601  2.4232 -1.7100
12426TIP3   OH258692   0.216   6.348   4.420  0.1938 -0.3621  0.0521
12426TIP3    H158693   0.243   6.261   4.389  0.6194 -1.0210  2.1497
12426TIP3    H258694   0.293   6.404   4.405  0.0328 -0.3927 -0.9908
12427TIP3   OH258695   5.169   0.932  15.759  0.2787 -0.0699 -0.1817
12427TIP3    H158696   5.120   0.884  15.825  2.1654 -1.4216  0.3233
12427TIP3    H258697   5.242   0.875  15.737  1.0973  1.4293 -1.6002
12428TIP3   OH258698   1.870   3.680   2.599 -0.3500  0.0520 -0.3148
12428TIP3    H158699   1.958   3.664   2.566 -0.3153 -0.1546 -0.1222
12428TIP3    H258700   1.869   3.641   2.686 -0.6821 -0.0979 -0.3837
12429TIP3   OH258701   5.842   0.737  16.974  0.0303 -0.5629 -0.0559
12429TIP3    H158702   5.762   0.685  16.968 -0.2331 -0.1371 -0.3143
12429TIP3    H258703   5.881   0.731  16.887  1.0559 -1.9718  0.4681
12430TIP3   OH258704   4.782   3.551  16.539 -0.0295  0.3296 -0.7633
12430TIP3    H158705   4.804   3.643  16.552  0.3687  0.0363  0.8693
12430TIP3    H258706   4.751   3.522  16.625 -0.5917 -0.9478 -1.3774
12431TIP3   OH258707   5.259   0.421  16.800 -0.1925 -0.3712 -0.6647
12431TIP3    H158708   5.246   0.333  16.836 -2.0103 -0.6078 -1.7320
12431TIP3    H258709   5.325   0.409  16.732  0.4414 -0.6627 -0.0112
12432TIP3   OH258710   3.003   6.344   4.604 -0.2291  0.2909  0.0415
12432TIP3    H158711   3.050   6.290   4.667  0.5203  0.7080 -0.1462
12432TIP3    H258712   3.070   6.373   4.542 -1.1151 -1.0106 -1.5978
12433TIP3   OH258713   3.827   1.781   3.702 -1.0959 -0.3330  0.1904
12433TIP3    H158714   3.876   1.731   3.767 -0.1322 -1.2051 -1.1619
12433TIP3    H258715   3.758   1.825   3.752 -0.4968 -1.1176  1.7547
12434TIP3   OH258716   2.631   3.362  15.664 -0.5141  0.4588 -0.0550
12434TIP3    H158717   2.583   3.332  15.741 -0.9098 -1.8362 -1.0979
12434TIP3    H258718   2.698   3.296  15.650 -2.1419 -0.7684 -3.1547
12435TIP3   OH258719   6.525   1.506  16.873  0.0177  0.8229 -0.2097
12435TIP3    H158720   6.502   1.419  16.842  0.0503  0.5597  0.5001
12435TIP3    H258721   6.600   1.492  16.931 -1.3281  1.0236  1.6859
12436TIP3   OH258722   1.604   3.695  13.907  0.1771 -0.5187 -0.6601
12436TIP3    H158723   1.598   3.773  13.962 -0.9037 -0.0933 -1.3573
12436TIP3    H258724   1.652   3.724  13.829 -0.7177 -0.3949 -1.1717
12437TIP3   OH258725   4.947   4.319   5.566 -0.0769 -0.0870 -0.2369
12437TIP3    H158726   4.967   4.389   5.629  0.5566  0.4021 -0.9687
12437TIP3    H258727   4.942   4.363   5.481 -0.1685 -0.8553 -0.6418
12438TIP3   OH258728   1.809   5.376  11.410 -0.3996  0.3076  0.2589
12438TIP3    H158729   1.798   5.468  11.432  0.8152  0.7888 -1.0577
12438TIP3    H258730   1.903   5.364  11.400 -0.6584 -0.6047 -1.4591
12439TIP3   OH258731   1.605   0.391  15.982  0.8412 -0.1061  0.4810
12439TIP3    H158732   1.582   0.440  15.904  1.9817  1.4566  1.0886
12439TIP3    H258733   1.529   0.335  15.998 -0.2162  0.9591 -0.6292
12440TIP3   OH258734   2.804   4.233  16.089  0.2445 -0.8505 -0.1565
12440TIP3    H158735   2.798   4.243  15.994  0.7224  1.4180 -0.0147
12440TIP3    H258736   2.738   4.295  16.123  1.5857  0.0056  0.9750
12441TIP3   OH258737   3.860   4.874   3.407 -0.3844  0.2437  0.0318
12441TIP3    H158738   3.884   4.847   3.318  0.0793  1.7418 -0.3469
12441TIP3    H258739   3.791   4.814   3.433  1.4135 -2.0665 -0.2022
12442TIP3   OH258740   5.924   3.996  12.437 -0.9118 -0.1243  0.4925
12442TIP3    H158741   5.848   3.939  12.444 -0.3612 -0.8538  0.6272
12442TIP3    H258742   5.934   4.011  12.343 -1.7079  0.6498  0.5250
12443TIP3   OH258743   0.711   1.408  16.994  0.1024  0.1095  0.0809
12443TIP3    H158744   0.805   1.416  16.979 -0.1659 -0.0712 -2.0785
12443TIP3    H258745   0.702   1.395  17.088  2.2017  0.5118  0.3751
12444TIP3   OH258746   4.755   1.234   2.643 -0.4726 -0.4233 -0.3898
12444TIP3    H158747   4.673   1.267   2.680  0.4073  0.7266  0.6317
12444TIP3    H258748   4.823   1.286   2.686  0.8869 -2.2430 -0.2203
12445TIP3   OH258749   0.309   0.442   2.137  0.0715  0.1621 -0.0116
12445TIP3    H158750   0.269   0.456   2.223 -1.8792  0.8202 -0.9799
12445TIP3    H258751   0.239   0.404   2.084  1.6721 -1.6635 -0.9360
12446TIP3   OH258752   4.643   0.315   0.580  0.3631  0.0365 -0.0544
12446TIP3    H158753   4.610   0.321   0.669  1.1924 -1.0557  0.3447
12446TIP3    H258754   4.711   0.248   0.584 -0.8512 -1.3830 -1.9020
12447TIP3   OH258755   1.630   1.327  15.809  0.3595 -0.1123  0.4788
12447TIP3    H158756   1.650   1.421  15.806  0.4278 -0.1215  0.6239
12447TIP3    H258757   1.541   1.323  15.844  0.4077 -0.1069  0.6040
12448TIP3   OH258758   2.736   1.096  13.811 -0.4362 -0.4395 -0.3315
12448TIP3    H158759   2.648   1.086  13.846 -0.5420 -0.4284 -0.5907
12448TIP3    H258760   2.724   1.139  13.726 -0.0590  1.2808  0.4375
12449TIP3   OH258761   0.400   1.785  14.460  0.1127 -0.2857  0.1107
12449TIP3    H158762   0.400   1.858  14.521  1.0106 -2.2934  2.6715
12449TIP3    H258763   0.477   1.799  14.405  1.9560 -0.6609  2.4335
12450TIP3   OH258764   0.692   1.735   0.888  0.5554 -0.5183 -0.1678
12450TIP3    H158765   0.629   1.687   0.832  0.2948 -0.1930 -0.1554
12450TIP3    H258766   0.714   1.672   0.957 -1.1346 -0.0545  0.8608
12451TIP3   OH258767   3.192   3.112   2.042 -0.6726  0.2357 -0.0390
12451TIP3    H158768   3.107   3.153   2.024 -0.7166  1.2585  2.1117
12451TIP3    H258769   3.218   3.072   1.959 -2.9442  0.4476 -0.9291
12452TIP3   OH258770   0.210   1.335   1.037  0.1779  0.6618 -0.4618
12452TIP3    H158771   0.260   1.371   0.964  0.7295  0.4798 -0.1782
12452TIP3    H258772   0.181   1.412   1.087  2.2684  0.7264  0.7535
12453TIP3   OH258773   4.235   3.002  16.519  0.3705 -0.3638  0.0943
12453TIP3    H158774   4.290   3.040  16.451 -1.2965  1.1538 -0.4724
12453TIP3    H258775   4.149   2.991  16.479 -0.0083 -1.9135  1.1964
12454TIP3   OH258776   4.674   5.737   1.397 -0.0818 -0.4171  0.5720
12454TIP3    H158777   4.747   5.791   1.366 -1.2569 -0.3230 -2.3076
12454TIP3    H258778   4.697   5.648   1.371 -0.2735 -0.6309  1.1176
12455TIP3   OH258779   5.965   6.739  12.562 -0.3151 -0.0956  0.5088
12455TIP3    H158780   5.989   6.826  12.531  0.0858 -0.3652  0.0346
12455TIP3    H258781   6.047   6.690  12.558 -0.8027 -0.8575 -0.4831
12456TIP3   OH258782   5.019   1.198  15.761 -0.4619 -0.3691  0.2455
12456TIP3    H158783   5.013   1.185  15.855 -0.6440 -0.3659  0.2354
12456TIP3    H258784   5.038   1.111  15.726 -1.7674 -0.6500  0.1688
12457TIP3   OH258785   3.456   2.398   3.725  1.1609  0.4201  0.1357
12457TIP3    H158786   3.402   2.418   3.648  1.7728  0.2496 -0.3488
12457TIP3    H258787   3.518   2.331   3.694 -0.6856 -2.1636  1.6417
12458TIP3   OH258788   1.531   4.866   0.352 -0.3139 -0.7175  0.1828
12458TIP3    H158789   1.551   4.782   0.393 -2.7588 -1.2344  0.4890
12458TIP3    H258790   1.605   4.882   0.293  1.3560 -1.8946  1.8436
12459TIP3   OH258791   0.407   5.612  14.423  0.2667 -0.6494 -0.8254
12459TIP3    H158792   0.469   5.540  14.437 -0.1779 -1.0212 -0.7136
12459TIP3    H258793   0.374   5.632  14.511  0.4184 -0.2862 -0.8542
12460TIP3   OH258794   2.346   4.304   1.915 -0.5291 -0.3939 -0.3305
12460TIP3    H158795   2.277   4.239   1.922 -0.1904 -1.0139 -2.1790
12460TIP3    H258796   2.301   4.388   1.922 -1.0369 -0.7797  1.5095
12461TIP3   OH258797   6.370   6.292   5.370 -0.0430  0.0569 -0.0458
12461TIP3    H158798   6.347   6.336   5.288 -2.0779 -2.1569 -0.7569
12461TIP3    H258799   6.289   6.290   5.420  1.0264  0.7993  1.7957
12462TIP3   OH258800   0.981   3.767  10.597 -0.2064  0.1021  0.5803
12462TIP3    H158801   0.980   3.726  10.683 -1.2597 -1.5171 -0.1495
12462TIP3    H258802   0.891   3.759  10.565 -0.3979  2.8083  0.2646
12463TIP3   OH258803   0.230   5.447  11.490 -0.3545 -0.1685  0.8329
12463TIP3    H158804   0.135   5.445  11.494 -0.3412 -0.4158  1.0168
12463TIP3    H258805   0.257   5.356  11.499 -0.1824 -0.4201 -1.6001
12464TIP3   OH258806   2.615   5.444  12.925 -0.0592 -0.1070  0.5189
12464TIP3    H158807   2.651   5.488  12.848 -0.0985 -1.4782 -0.3178
12464TIP3    H258808   2.658   5.358  12.927 -2.8786 -1.6734 -0.2981
12465TIP3   OH258809   2.790   2.251   5.270  0.1853 -0.8162  0.6490
12465TIP3    H158810   2.859   2.307   5.308 -0.4849  1.5117 -1.3201
12465TIP3    H258811   2.711   2.276   5.317 -0.3014  0.7340 -0.8913
12466TIP3   OH258812   5.981   0.491  16.658 -0.2266  0.0347  0.1467
12466TIP3    H158813   6.002   0.467  16.568 -1.1744  0.4002 -0.1861
12466TIP3    H258814   6.051   0.452  16.710 -0.7575 -1.9299 -0.5267
12467TIP3   OH258815   0.522   6.808   3.575  0.1584  0.2925  0.3199
12467TIP3    H158816   0.540   6.751   3.500 -1.0292  1.3840 -0.8819
12467TIP3    H258817   0.441   6.773   3.612  0.0235  0.5361  0.2571
12468TIP3   OH258818   6.666   6.472   0.888 -0.1561 -0.3155 -0.4807
12468TIP3    H158819   6.698   6.540   0.948  0.2261  0.0910 -1.1318
12468TIP3    H258820   6.631   6.520   0.813 -0.2606 -0.8254 -0.7634
12469TIP3   OH258821   1.007   2.301   1.412 -0.3959  0.3108  0.9890
12469TIP3    H158822   1.070   2.229   1.420  2.2266  2.2541 -0.7097
12469TIP3    H258823   0.939   2.266   1.354 -0.2161 -1.3927  1.7366
12470TIP3   OH258824   2.144   1.567   3.735  0.2700 -0.3775 -0.4616
12470TIP3    H158825   2.052   1.545   3.752 -0.1614  1.4532 -0.2403
12470TIP3    H258826   2.189   1.482   3.733 -1.1101 -1.2106  1.2505
12471TIP3   OH258827   6.364   1.744   4.273 -0.1714  0.3501  0.8092
12471TIP3    H158828   6.446   1.767   4.228 -0.8482 -0.6772 -1.0715
12471TIP3    H258829   6.379   1.656   4.307 -0.4342  0.2026  0.5517
12472TIP3   OH258830   5.337   5.934   0.568 -0.1472 -0.0725  0.0028
12472TIP3    H158831   5.313   6.015   0.523  0.7016 -0.1396 -0.5774
12472TIP3    H258832   5.289   5.866   0.521  0.1787 -0.0587 -0.3518
12473TIP3   OH258833   0.834   1.995  14.023 -0.4372  0.0835  0.8702
12473TIP3    H158834   0.886   2.031  14.094  0.9006  0.5366 -0.2891
12473TIP3    H258835   0.743   2.011  14.049  0.0265  0.3137  2.4116
12474TIP3   OH258836   1.209   0.236  13.827 -0.4477  0.3495  0.1171
12474TIP3    H158837   1.257   0.280  13.897 -0.5248  0.1044  0.3286
12474TIP3    H258838   1.217   0.143  13.848 -2.2474  0.3408  1.0010
12475TIP3   OH258839   1.342   6.279  13.133 -0.3442 -0.3461  0.0754
12475TIP3    H158840   1.303   6.340  13.070  0.7556 -1.5133 -1.8458
12475TIP3    H258841   1.358   6.332  13.211 -3.3945  0.7589  0.1071
12476TIP3   OH258842   4.895   1.422  15.967  0.5504 -0.5290 -0.4327
12476TIP3    H158843   4.802   1.431  15.948  0.8399 -0.8440 -2.2664
12476TIP3    H258844   4.903   1.337  16.009 -0.1262  0.0919  1.0074
12477TIP3   OH258845   5.233   5.088  12.649  0.2047  0.1947  0.3277
12477TIP3    H158846   5.160   5.026  12.647  0.0276  0.3087  1.9341
12477TIP3    H258847   5.306   5.040  12.609 -0.7520  0.1380 -1.4475
12478TIP3   OH258848   0.223   6.306  15.817  0.0859  0.2179 -0.0351
12478TIP3    H158849   0.278   6.369  15.863 -0.5151 -0.9860  2.5112
12478TIP3    H258850   0.135   6.321  15.853 -0.0460 -2.0906  0.7557
12479TIP3   OH258851   6.518   2.000   1.431 -0.2684  0.1921  0.3342
12479TIP3    H158852   6.530   1.906   1.418  0.1985  0.2994 -0.0566
12479TIP3    H258853   6.596   2.029   1.479  0.2227  0.5877 -0.6577
12480TIP3   OH258854   6.296   1.207  11.545 -0.2873  0.0444 -0.1250
12480TIP3    H158855   6.319   1.189  11.637 -0.5649 -0.7915 -0.2118
12480TIP3    H258856   6.275   1.300  11.544 -1.4042 -0.1710  0.8998
12481TIP3   OH258857   6.286   2.205  14.708 -0.1054  0.3610  0.3807
12481TIP3    H158858   6.238   2.269  14.656 -1.8052 -0.9529  0.2064
12481TIP3    H258859   6.329   2.149  14.644  0.6120  0.7752  0.5008
12482TIP3   OH258860   4.845   5.965   2.812  0.4948 -0.0667 -0.3475
12482TIP3    H158861   4.883   6.021   2.745  0.5072  1.7026  1.0548
12482TIP3    H258862   4.750   5.973   2.799  0.4924  0.4162 -0.0748
12483TIP3   OH258863   2.826   0.249  13.035  0.3175 -0.2192  0.2100
12483TIP3    H158864   2.841   0.311  13.106 -0.1716  0.1121  0.0281
12483TIP3    H258865   2.814   0.303  12.958 -0.4349 -0.5225  0.1054
12484TIP3   OH258866   3.740   0.373   5.428  0.0705 -0.0988 -0.0479
12484TIP3    H158867   3.653   0.399   5.459  1.0661  1.0017  2.0675
12484TIP3    H258868   3.768   0.445   5.372 -0.2417 -0.3285 -0.5123
12485TIP3   OH258869   0.216   3.415  11.114  0.0875  0.3698 -0.4355
12485TIP3    H158870   0.142   3.391  11.057 -0.6567  1.1393  0.1862
12485TIP3    H258871   0.200   3.366  11.195  1.0309 -0.5576 -0.7927
12486TIP3   OH258872   0.167   3.229  12.438  0.0451  0.0211  0.4158
12486TIP3    H158873   0.139   3.156  12.381 -0.0846 -1.8418  2.6979
12486TIP3    H258874   0.087   3.256  12.483  0.4561  0.1186  1.1105
12487TIP3   OH258875   4.886   0.750   2.786  0.2864 -0.7590  0.2340
12487TIP3    H158876   4.864   0.720   2.698 -0.2729 -0.4255  0.2561
12487TIP3    H258877   4.958   0.811   2.773  0.1301 -0.6236 -0.0078
12488TIP3   OH258878   0.738   3.274  15.251  0.2525 -0.1037 -0.4234
12488TIP3    H158879   0.816   3.321  15.282 -1.2817  1.6492  0.9707
12488TIP3    H258880   0.668   3.302  15.309 -1.9720  0.2797 -3.0851
12489TIP3   OH258881   2.123   1.558   2.244  0.0707  0.2324  0.7913
12489TIP3    H158882   2.052   1.538   2.305 -1.5857 -0.5242 -1.2633
12489TIP3    H258883   2.147   1.473   2.207  0.7646  0.7205  0.0893
12490TIP3   OH258884   0.360   5.479   5.564  0.4776 -0.1047  0.0501
12490TIP3    H158885   0.375   5.385   5.564 -0.7846 -0.3262 -0.5787
12490TIP3    H258886   0.389   5.508   5.478  1.2455  0.1570  0.3905
12491TIP3   OH258887   1.297   1.531  13.677 -0.0610  0.8878 -0.3421
12491TIP3    H158888   1.224   1.537  13.738  0.5584  0.8590  0.4219
12491TIP3    H258889   1.272   1.587  13.603 -0.1135  2.2645  0.6871
12492TIP3   OH258890   4.828   2.849   4.127  0.2935 -0.6067 -0.2995
12492TIP3    H158891   4.873   2.879   4.206  0.3121 -0.8713 -0.2080
12492TIP3    H258892   4.764   2.785   4.158  0.0030 -0.3941 -0.4527
12493TIP3   OH258893   5.961   0.583  13.127 -0.4543 -0.0991 -0.3507
12493TIP3    H158894   5.943   0.490  13.132  1.5214 -0.4849  1.2310
12493TIP3    H258895   5.899   0.623  13.187  0.2399 -0.7319  0.8357
12494TIP3   OH258896   0.905   6.052  16.023  0.2492 -0.1224 -0.1804
12494TIP3    H158897   0.984   6.004  15.997  1.6563  2.3523 -0.7847
12494TIP3    H258898   0.857   6.065  15.941  1.3038  1.8520 -0.5404
12495TIP3   OH258899   4.436   5.377   4.962  0.3990  0.2593 -0.0926
12495TIP3    H158900   4.403   5.391   4.873  0.9765  0.5102 -0.2749
12495TIP3    H258901   4.530   5.366   4.950  0.8109  2.4038  0.6651
12496TIP3   OH258902   5.385   2.816   2.430  0.3752 -0.8609  0.9479
12496TIP3    H158903   5.303   2.798   2.476  0.3447  0.9091  1.6654
12496TIP3    H258904   5.441   2.857   2.496  1.1875 -0.4146  0.0078
12497TIP3   OH258905   4.587   6.282   5.986 -0.5188 -0.2578  0.0415
12497TIP3    H158906   4.509   6.312   5.940  0.3365 -0.0834 -1.3440
12497TIP3    H258907   4.607   6.352   6.048 -2.4423 -1.0702  1.7181
12498TIP3   OH258908   2.399   6.513   0.496 -0.0838  0.3620 -0.6306
12498TIP3    H158909   2.386   6.555   0.411  1.0370 -0.9773 -1.5070
12498TIP3    H258910   2.346   6.564   0.556 -1.1553  1.1659 -2.1883
12499TIP3   OH258911   5.951   6.322   6.304 -0.7263  0.1728 -0.1997
12499TIP3    H158912   5.975   6.372   6.226 -1.6656  0.5450 -0.2672
12499TIP3    H258913   5.960   6.384   6.376 -1.3187  0.2860 -0.2118
12500TIP3   OH258914   0.954   4.428   3.753  0.0177 -0.0556 -0.0465
12500TIP3    H158915   0.902   4.360   3.711 -0.2977 -0.3086  0.7405
12500TIP3    H258916   0.905   4.451   3.832  1.3777 -0.7403  1.0410
12501TIP3   OH258917   4.255   0.912  14.545 -0.2636 -0.0861  0.4304
12501TIP3    H158918   4.288   0.990  14.589 -2.9779  1.4487 -0.0500
12501TIP3    H258919   4.213   0.861  14.614 -0.9022  0.2832  0.3271
12502TIP3   OH258920   4.152   5.678  14.435  0.1833  0.1694  0.2683
12502TIP3    H158921   4.197   5.762  14.447 -0.5717  0.4676  1.1528
12502TIP3    H258922   4.059   5.701  14.430  0.1022 -0.4067 -1.8165
12503TIP3   OH258923   2.162   6.751   3.566 -0.1043 -0.0288  0.5559
12503TIP3    H158924   2.255   6.732   3.580 -0.1670  0.4283  1.6629
12503TIP3    H258925   2.117   6.706   3.638 -1.0387 -2.4627 -1.3888
12504TIP3   OH258926   5.864   2.313   5.101  0.0858  0.0395 -0.2210
12504TIP3    H158927   5.816   2.249   5.154  0.0657  1.0068  0.9827
12504TIP3    H258928   5.797   2.360   5.052 -0.3414  1.7075  1.8074
12505TIP3   OH258929   3.689   2.112   0.011  0.8788 -0.1658 -0.0541
12505TIP3    H158930   3.645   2.057   0.076  0.9087  1.8854  1.7705
12505TIP3    H258931   3.635   2.102  -0.068 -1.1637 -0.0652  1.2464
12506TIP3   OH258932   3.281   2.380  16.398  0.3481 -0.0407  0.7065
12506TIP3    H158933   3.192   2.388  16.364  0.4271  1.5996  0.8218
12506TIP3    H258934   3.314   2.299  16.358 -0.2282  0.7875 -1.6204
12507TIP3   OH258935   0.358   6.432  16.449  0.0862  0.5781 -1.1633
12507TIP3    H158936   0.355   6.499  16.518  0.1573 -1.1811  0.6568
12507TIP3    H258937   0.445   6.392  16.459  0.2851  0.6166 -2.6272
12508TIP3   OH258938   6.239   4.684  16.412 -0.0142 -0.0218 -0.2413
12508TIP3    H158939   6.148   4.668  16.386  0.1145 -0.3525 -0.4816
12508TIP3    H258940   6.280   4.598  16.411  0.1489  0.0364  0.4732
12509TIP3   OH258941   2.174   5.807  14.522  0.4159  0.4660 -0.7391
12509TIP3    H158942   2.148   5.830  14.433  0.0164  1.4069 -0.3951
12509TIP3    H258943   2.140   5.878  14.576 -0.7680 -0.9028  0.3822
12510TIP3   OH258944   6.155   4.493   1.459 -0.3463  0.2359  0.4004
12510TIP3    H158945   6.059   4.490   1.464 -0.3702  1.3240  0.8896
12510TIP3    H258946   6.183   4.407   1.490 -1.2035 -0.9736 -1.9003
12511TIP3   OH258947   0.948   5.861  13.364  0.1523 -0.2689  0.4452
12511TIP3    H158948   1.001   5.941  13.361 -1.0407  0.6402  2.0561
12511TIP3    H258949   1.004   5.797  13.408  0.6143  0.0627  0.3515
12512TIP3   OH258950   6.352   3.030  15.671 -0.0967 -0.0258 -0.2751
12512TIP3    H158951   6.339   2.979  15.591 -0.8059  0.7574 -0.6704
12512TIP3    H258952   6.439   3.003  15.702 -0.5507 -1.6504 -0.3212
12513TIP3   OH258953   1.201   4.609  15.802 -0.0443  0.0809 -0.1145
12513TIP3    H158954   1.215   4.517  15.779 -0.6717  0.3214 -1.5834
12513TIP3    H258955   1.210   4.656  15.719 -0.3234  1.2770  0.5144
12514TIP3   OH258956   6.813   1.276  12.483  1.0853 -0.2215  0.2290
12514TIP3    H158957   6.759   1.323  12.547 -2.1915 -1.1692 -1.6003
12514TIP3    H258958   6.780   1.186  12.485  2.1886 -0.7121 -1.4622
12515TIP3   OH258959   1.993   0.305  14.693  0.1248  0.1149 -0.6469
12515TIP3    H158960   1.898   0.302  14.704  0.1331 -0.0668 -0.6107
12515TIP3    H258961   2.012   0.237  14.628  0.0864  1.1367 -1.7523
12516TIP3   OH258962   3.262   6.439  15.890  0.0938  0.2130 -0.1040
12516TIP3    H158963   3.184   6.470  15.845  0.1107  0.0108 -0.2714
12516TIP3    H258964   3.289   6.513  15.945  0.0817  0.4611 -0.4335
12517TIP3   OH258965   5.304   6.582  15.388 -0.7488 -0.2457 -0.3161
12517TIP3    H158966   5.305   6.664  15.438  0.0794 -0.6591  0.3638
12517TIP3    H258967   5.215   6.578  15.352 -1.2809  0.2058  0.8903
12518TIP3   OH258968   4.115   3.097   2.724  0.1781  0.0542 -0.3081
12518TIP3    H158969   4.139   3.188   2.706 -0.3693  0.0290 -1.2034
12518TIP3    H258970   4.028   3.087   2.687  0.3389 -0.9084 -0.4406
12519TIP3   OH258971   2.899   1.214  15.557 -0.2143  0.2735 -0.5266
12519TIP3    H158972   2.930   1.154  15.488 -0.1311 -1.3434  0.8476
12519TIP3    H258973   2.979   1.252  15.593 -0.1745  0.1613 -0.4958
12520TIP3   OH258974   3.273   5.170   2.833  0.0165 -0.2388  0.3745
12520TIP3    H158975   3.193   5.183   2.782  0.2207  1.1219  0.3721
12520TIP3    H258976   3.301   5.258   2.857  1.1530 -0.7360  0.9483
12521TIP3   OH258977   6.238   4.562  11.005 -0.5199  0.0185  0.2072
12521TIP3    H158978   6.226   4.593  11.095 -1.6738  1.1195 -0.3020
12521TIP3    H258979   6.268   4.639  10.957 -1.2275 -0.2154 -0.6255
12522TIP3   OH258980   0.654   2.318   0.447  0.6377 -0.0208 -0.5242
12522TIP3    H158981   0.698   2.234   0.457 -1.6318 -1.2647 -0.0819
12522TIP3    H258982   0.631   2.343   0.537 -3.1703 -1.6104 -0.8772
12523TIP3   OH258983   1.491   2.732  13.654 -0.1720  0.2786  0.6626
12523TIP3    H158984   1.497   2.769  13.742 -0.8149  1.3304  0.2780
12523TIP3    H258985   1.566   2.770  13.608  2.2207 -2.7984  1.5735
12524TIP3   OH258986   0.843   5.024   1.294 -0.3605  0.0893 -0.6124
12524TIP3    H158987   0.832   5.070   1.377  1.5995 -0.5145  0.0432
12524TIP3    H258988   0.902   5.080   1.244 -0.5996 -0.1222 -1.1327
12525TIP3   OH258989   2.547   0.429   0.743 -0.0996 -0.0257 -0.2303
12525TIP3    H158990   2.597   0.495   0.789 -1.2634  0.8613 -0.1901
12525TIP3    H258991   2.459   0.435   0.780 -0.3056 -1.4055 -0.4243
12526TIP3   OH258992   5.549   2.276   2.499  0.2681 -0.1899  0.4248
12526TIP3    H158993   5.530   2.200   2.554 -1.3688  0.3218  0.6175
12526TIP3    H258994   5.612   2.328   2.549 -0.4365 -0.2364  1.3811
12527TIP3   OH258995   2.725   1.221  13.578  0.0904  0.1156 -0.0409
12527TIP3    H158996   2.687   1.306  13.554 -1.3437 -0.4027  0.2856
12527TIP3    H258997   2.808   1.217  13.530  1.4015  2.7268  1.7826
12528TIP3   OH258998   2.862   3.644  12.524  0.2373 -0.1342  0.4839
12528TIP3    H158999   2.793   3.659  12.589 -0.1387  0.8166 -0.1110
12528TIP3    H259000   2.853   3.717  12.462  1.0331 -0.6409 -0.2515
12529TIP3   OH259001   0.869   4.584  12.441 -0.4608 -0.0002 -0.0414
12529TIP3    H159002   0.890   4.677  12.442 -1.4898  0.3217 -2.1014
12529TIP3    H259003   0.942   4.542  12.486  0.3409  1.7351  0.3599
12530TIP3   OH259004   5.216   4.033  13.864  0.4225  0.3599 -0.1951
12530TIP3    H159005   5.226   3.998  13.953 -0.5950  0.1459 -0.1481
12530TIP3    H259006   5.283   4.100  13.857  1.2099 -0.3550  0.3640
12531TIP3   OH259007   2.985   6.109   3.551 -0.6334 -0.2342  0.3378
12531TIP3    H159008   2.915   6.099   3.615 -0.1619 -0.6915  0.7869
12531TIP3    H259009   3.002   6.203   3.548 -0.3131 -0.2608  1.2603
12532TIP3   OH259010   4.038   1.551   1.277  0.2110 -0.1293  0.3206
12532TIP3    H159011   3.980   1.508   1.214  0.1946 -1.8755  1.4587
12532TIP3    H259012   3.983   1.617   1.319 -0.6665 -1.0334  0.6340
12533TIP3   OH259013   5.771   1.675  11.367 -0.2637  0.5873 -1.0413
12533TIP3    H159014   5.804   1.764  11.378  0.3839  0.0914  2.3323
12533TIP3    H259015   5.676   1.685  11.357 -0.6387  1.6914  2.3252
12534TIP3   OH259016   0.220   6.296  11.038  0.4581 -0.6466  0.1197
12534TIP3    H159017   0.220   6.263  10.948 -0.3736 -0.7757  0.1597
12534TIP3    H259018   0.133   6.334  11.049  0.6427 -0.4110  0.7921
12535TIP3   OH259019   1.909   6.646   1.935  0.6134  0.1379  0.0753
12535TIP3    H159020   1.941   6.556   1.928  0.8736  0.2204  0.2185
12535TIP3    H259021   1.813   6.636   1.938  0.5853 -0.0621 -0.9719
12536TIP3   OH259022   6.251   3.679  16.380 -0.2822  0.0566  0.3577
12536TIP3    H159023   6.325   3.707  16.326 -0.2497 -0.3572  0.1834
12536TIP3    H259024   6.176   3.729  16.346  0.2366  1.8568  1.7257
12537TIP3   OH259025   5.367   2.052   3.524  0.3730  0.1693  0.4801
12537TIP3    H159026   5.442   1.996   3.544 -0.1742  0.1681  2.8429
12537TIP3    H259027   5.402   2.141   3.530  1.0013  0.1969 -2.2536
12538TIP3   OH259028   4.957   5.756   0.908  0.1574 -0.8354  0.2093
12538TIP3    H159029   4.892   5.785   0.844  1.1322 -0.4569 -0.6219
12538TIP3    H259030   5.011   5.692   0.861  1.0210 -0.3940  0.5862
12539TIP3   OH259031   5.523   0.966   0.374 -0.3798  0.7043 -0.1840
12539TIP3    H159032   5.529   1.008   0.460 -0.8194  2.1497 -0.8266
12539TIP3    H259033   5.429   0.965   0.355 -0.6414 -2.4236  0.6391
12540TIP3   OH259034   3.560   6.098  16.903  0.0797  0.0704 -0.1608
12540TIP3    H159035   3.645   6.118  16.943  0.6692 -1.1513 -0.7683
12540TIP3    H259036   3.540   6.175  16.851  0.2490  0.8606  0.9065
12541TIP3   OH259037   2.270   1.125   1.724 -0.1177  0.1941  0.1935
12541TIP3    H159038   2.212   1.154   1.794 -0.0913  0.4037  0.1312
12541TIP3    H259039   2.298   1.038   1.750 -2.0100 -0.7585 -0.7075
12542TIP3   OH259040   4.885   6.341  12.592 -0.4395 -0.5506 -0.1307
12542TIP3    H159041   4.926   6.425  12.573 -0.2844 -0.4570  0.6029
12542TIP3    H259042   4.957   6.278  12.587 -0.4511 -0.5652 -0.1135
12543TIP3   OH259043   6.330   0.769   3.116 -0.0258  0.2597 -0.1928
12543TIP3    H159044   6.265   0.836   3.139 -1.2176 -0.3523 -1.5885
12543TIP3    H259045   6.410   0.818   3.097 -0.5686  1.1847 -0.1673
12544TIP3   OH259046   6.128   3.629   2.354 -0.4237 -0.3345  0.2747
12544TIP3    H159047   6.207   3.615   2.407 -0.8247 -0.6010  0.8121
12544TIP3    H259048   6.100   3.541   2.329 -2.2172 -0.4946  2.5621
12545TIP3   OH259049   3.431   1.352   3.779 -0.2057  0.3121 -0.2127
12545TIP3    H159050   3.452   1.267   3.819 -0.7266  1.0512  1.7283
12545TIP3    H259051   3.350   1.379   3.822 -0.2301  1.6402 -1.0643
12546TIP3   OH259052   1.512   2.568  15.631 -0.0140  0.7060 -0.5598
12546TIP3    H159053   1.551   2.523  15.556  1.5921 -0.9977  1.1907
12546TIP3    H259054   1.443   2.509  15.661  2.2723 -0.8676  1.9094
12547TIP3   OH259055   0.198   4.589  14.153  0.1715 -0.4428  0.1949
12547TIP3    H159056   0.143   4.526  14.200 -2.2615  0.8531 -0.7134
12547TIP3    H259057   0.148   4.610  14.074  2.5953 -0.0740 -1.3564
12548TIP3   OH259058   4.611   6.388   5.228  0.0135  0.7574  0.0302
12548TIP3    H159059   4.654   6.303   5.240  0.8297  1.3111  1.1517
12548TIP3    H259060   4.575   6.409   5.314 -0.6593  1.3089 -0.3761
12549TIP3   OH259061   4.654   6.440  13.418 -0.0458 -0.6236  0.2851
12549TIP3    H159062   4.749   6.444  13.421 -0.0492  0.3871 -0.5172
12549TIP3    H259063   4.632   6.356  13.459  1.0557  0.1909  2.7659
12550TIP3   OH259064   1.992   2.720   2.957  0.5791  0.7595  0.3847
12550TIP3    H159065   2.061   2.755   2.900  1.3387  2.2135  2.0872
12550TIP3    H259066   2.038   2.697   3.038 -0.5313 -0.8152  0.6016
12551TIP3   OH259067   1.662   2.557  16.529  0.5241  0.5637 -0.5578
12551TIP3    H159068   1.728   2.626  16.530  3.2267 -1.8231 -0.7454
12551TIP3    H259069   1.639   2.547  16.436 -0.3853  1.6021 -0.4613
12552TIP3   OH259070   5.972   0.421  14.625 -0.5631 -0.1982  0.0973
12552TIP3    H159071   6.051   0.467  14.654 -1.0796  0.8478 -0.1040
12552TIP3    H259072   5.905   0.489  14.621 -1.6541 -1.1852  0.9117
12553TIP3   OH259073   0.611   4.400   6.510  0.5535  0.6690 -0.2677
12553TIP3    H159074   0.622   4.311   6.544 -0.4032  0.4969 -0.3648
12553TIP3    H259075   0.699   4.436   6.506  1.1287 -0.7969 -1.6850
12554TIP3   OH259076   5.193   3.363  13.277  0.4245  0.3060 -0.1739
12554TIP3    H159077   5.203   3.370  13.372  1.2152 -2.4100  0.0200
12554TIP3    H259078   5.272   3.317  13.248  0.7471  2.0573 -2.3551
12555TIP3   OH259079   5.623   2.107   6.175  0.1822 -0.0697  0.1518
12555TIP3    H159080   5.704   2.124   6.224 -0.3906 -0.9987  1.5013
12555TIP3    H259081   5.554   2.143   6.231 -0.4050 -0.1314 -0.5285
12556TIP3   OH259082   0.959   3.874   0.935 -0.4990  0.0705 -0.2784
12556TIP3    H159083   1.005   3.869   1.018 -0.4820 -1.4242 -0.3607
12556TIP3    H259084   0.993   3.954   0.894 -0.2460  0.6267  0.9773
12557TIP3   OH259085   3.321   4.744   5.638 -0.5540  0.2003 -0.7871
12557TIP3    H159086   3.254   4.681   5.611  1.4548 -2.3564 -0.2373
12557TIP3    H259087   3.334   4.725   5.731  0.7407  0.7990 -0.8316
12558TIP3   OH259088   5.417   4.214  13.868 -0.3160  0.8219  0.2889
12558TIP3    H159089   5.459   4.295  13.840  0.6039  0.0412 -0.6706
12558TIP3    H259090   5.473   4.144  13.832 -0.1799 -0.2496  2.4162
12559TIP3   OH259091   6.338   2.508   5.195 -0.1555  0.3666  0.5189
12559TIP3    H159092   6.373   2.546   5.276  0.2980  0.7562  0.1466
12559TIP3    H259093   6.244   2.521   5.202 -0.1737 -0.0311  1.1980
12560TIP3   OH259094   3.497   6.092   4.337 -0.3566  0.1193 -0.3425
12560TIP3    H159095   3.407   6.066   4.320 -0.0485 -0.8704 -0.5083
12560TIP3    H259096   3.489   6.170   4.393 -1.3126 -0.4710  0.3800
12561TIP3   OH259097   0.739   4.620  13.422  0.1888 -0.2886  0.3121
12561TIP3    H159098   0.807   4.563  13.385  0.3021  1.1514 -1.8746
12561TIP3    H259099   0.666   4.612  13.361 -2.1184 -2.5352  3.0965
12562TIP3   OH259100   4.900   3.839   2.111 -0.0645  0.7302  0.1511
12562TIP3    H159101   4.881   3.923   2.070 -0.2511  0.1218 -1.0870
12562TIP3    H259102   4.827   3.783   2.084 -0.3101  0.3499  1.5449
12563TIP3   OH259103   5.599   5.012   3.348  0.4966 -0.1359  0.0793
12563TIP3    H159104   5.531   4.953   3.314  1.1587 -0.7926 -0.1550
12563TIP3    H259105   5.593   5.003   3.443 -0.5871  0.8059  0.1231
12564TIP3   OH259106   2.441   6.303  13.139 -0.3935  0.2921 -0.0036
12564TIP3    H159107   2.392   6.382  13.116 -0.2258  0.1664 -0.7946
12564TIP3    H259108   2.523   6.310  13.091  0.0358  0.0983  0.6711
12565TIP3   OH259109   0.319   2.704   1.880  0.8904  0.0647  0.3795
12565TIP3    H159110   0.328   2.776   1.943  0.1852  2.2762 -1.8831
12565TIP3    H259111   0.231   2.669   1.897  1.4409 -0.6575  1.8466
12566TIP3   OH259112   2.582   6.158   1.345  0.4615  0.1987 -0.3513
12566TIP3    H159113   2.538   6.151   1.429 -0.7547 -0.2435 -1.0002
12566TIP3    H259114   2.602   6.252   1.336 -1.7707  0.6878 -0.7196
12567TIP3   OH259115   0.708   1.184   2.829  0.0210  0.5655 -0.1340
12567TIP3    H159116   0.697   1.131   2.908  1.3336  0.6050  0.0954
12567TIP3    H259117   0.619   1.207   2.804 -0.4181  0.7963  1.5035
12568TIP3   OH259118   2.093   0.609   2.968 -0.0596  0.4510 -0.4432
12568TIP3    H159119   2.101   0.695   3.011 -0.2857  0.9364 -1.3363
12568TIP3    H259120   2.005   0.578   2.992 -0.7403  1.3522 -1.6305
12569TIP3   OH259121   1.459   4.923  12.055 -0.4686 -0.0837  0.5752
12569TIP3    H159122   1.368   4.945  12.078 -0.5553 -0.3287  0.4729
12569TIP3    H259123   1.467   4.830  12.076 -0.7036 -0.4488 -0.8449
12570TIP3   OH259124   0.977   6.748  16.503 -0.9781 -0.0279  0.3068
12570TIP3    H159125   0.957   6.714  16.590 -3.5833  0.6247  0.0504
12570TIP3    H259126   0.946   6.838  16.504  0.7573  0.6486 -0.7402
12571TIP3   OH259127   3.487   2.589  12.972 -0.1630  0.2015 -0.0345
12571TIP3    H159128   3.540   2.587  13.052 -2.1650  0.2504  1.3943
12571TIP3    H259129   3.547   2.563  12.902  1.8367  0.8067  1.3665
12572TIP3   OH259130   2.809   6.591  16.070  0.0529 -0.7291 -0.4061
12572TIP3    H159131   2.894   6.568  16.109 -0.2255 -0.0980  0.5944
12572TIP3    H259132   2.824   6.676  16.030  0.2920 -1.3017 -1.5680
12573TIP3   OH259133   2.655   2.178  10.811  0.1851 -0.3511 -0.1079
12573TIP3    H159134   2.746   2.167  10.783  0.1573 -2.6213  0.4582
12573TIP3    H259135   2.605   2.180  10.729  0.5046 -2.3848 -0.4184
12574TIP3   OH259136   5.807   4.035   6.247 -0.0443 -0.3173 -0.5137
12574TIP3    H159137   5.770   3.953   6.281 -0.1216 -0.2146 -0.3499
12574TIP3    H259138   5.898   4.014   6.228  0.8903  0.4183  2.6465
12575TIP3   OH259139   4.153   3.184   0.551 -0.1100 -0.3303 -0.1104
12575TIP3    H159140   4.071   3.211   0.592 -2.2036 -2.3312 -2.5796
12575TIP3    H259141   4.195   3.127   0.616 -1.1412 -0.0505  0.8291
12576TIP3   OH259142   2.888   3.686  11.590 -0.2124 -0.3350 -0.0082
12576TIP3    H159143   2.891   3.781  11.581 -0.8638 -0.2435  0.6498
12576TIP3    H259144   2.846   3.656  11.509 -0.6370 -0.0017  0.0830
12577TIP3   OH259145   2.537   3.078   2.465  0.1301 -0.4501  0.0759
12577TIP3    H159146   2.505   3.033   2.387 -0.1879  1.4466 -0.9225
12577TIP3    H259147   2.592   3.149   2.431  0.2182  0.2348  1.5857
12578TIP3   OH259148   4.434   2.003  11.465 -0.2053  0.0457  0.1853
12578TIP3    H159149   4.497   2.049  11.409 -0.8467  0.0280 -0.5812
12578TIP3    H259150   4.352   2.052  11.454 -1.4159 -2.2262 -2.0853
12579TIP3   OH259151   6.650   3.691  11.640  0.4197 -0.1150  0.2955
12579TIP3    H159152   6.682   3.633  11.571 -2.7828 -1.1466 -0.5035
12579TIP3    H259153   6.621   3.770  11.593  0.6701  0.2904  0.8169
12580TIP3   OH259154   4.176   1.369  16.254  0.2264  0.6292 -0.6181
12580TIP3    H159155   4.223   1.299  16.298 -1.0835 -0.2652 -0.5672
12580TIP3    H259156   4.167   1.338  16.164 -1.2026  0.2318 -0.3733
12581TIP3   OH259157   2.816   2.954  16.337 -0.0225 -0.7361  0.2424
12581TIP3    H159158   2.793   2.896  16.410  0.8292  0.3462  1.4084
12581TIP3    H259159   2.892   2.912  16.297  1.3271  0.0902  1.8038
12582TIP3   OH259160   3.716   5.535  13.973 -0.1105 -0.1051 -0.2166
12582TIP3    H159161   3.741   5.608  13.917 -1.3817  0.5318  0.0170
12582TIP3    H259162   3.785   5.470  13.960  0.8008  0.9444 -0.7746
12583TIP3   OH259163   3.415   5.056  11.761 -0.1355  0.8823 -0.4900
12583TIP3    H159164   3.384   5.141  11.728 -1.5734  0.4736 -0.2393
12583TIP3    H259165   3.336   5.006  11.778  0.6961 -0.6650 -0.9724
12584TIP3   OH259166   2.222   3.275   3.329  0.0595 -0.3160  0.0376
12584TIP3    H159167   2.217   3.351   3.387  0.0259 -1.7981  2.0631
12584TIP3    H259168   2.158   3.293   3.261 -0.2081  1.2974  0.6664
12585TIP3   OH259169   2.669   2.642  11.170 -0.3015 -0.2593  0.4627
12585TIP3    H159170   2.645   2.606  11.085 -2.5289 -0.0779  0.9362
12585TIP3    H259171   2.645   2.734  11.165  1.8656  0.3575  0.5073
12586TIP3   OH259172   5.790   5.332   3.894 -0.6958 -0.4149 -0.0270
12586TIP3    H159173   5.847   5.280   3.837 -1.0976 -0.6305 -0.2419
12586TIP3    H259174   5.749   5.267   3.952 -1.7764 -0.4401 -0.7976
12587TIP3   OH259175   0.513   2.614   4.892  0.6976  0.5213  0.4015
12587TIP3    H159176   0.470   2.679   4.836  0.4625  1.8287  2.0214
12587TIP3    H259177   0.552   2.666   4.963  1.6678 -0.9991  1.0202
12588TIP3   OH259178   6.380   0.338  13.083 -0.6372 -1.0863 -0.5786
12588TIP3    H159179   6.347   0.394  13.154 -2.3825 -0.2962 -1.9362
12588TIP3    H259180   6.464   0.376  13.060 -0.4945 -0.7675  0.4104
12589TIP3   OH259181   5.931   3.645   4.208 -0.2752 -0.6394  0.6315
12589TIP3    H159182   5.897   3.568   4.164  0.2433 -1.6902  1.9954
12589TIP3    H259183   5.893   3.642   4.296  0.5566  0.0838  1.0400
12590TIP3   OH259184   4.515   5.848  12.196  0.6919  0.0014  0.1872
12590TIP3    H159185   4.563   5.776  12.155  1.0353  0.5096 -0.3231
12590TIP3    H259186   4.507   5.914  12.126 -2.2390 -0.7301 -0.3246
12591TIP3   OH259187   6.774   0.265   5.434  0.6736  0.3041 -0.3683
12591TIP3    H159188   6.811   0.297   5.352 -0.8865  0.9349 -0.8649
12591TIP3    H259189   6.693   0.220   5.407 -1.0722  2.4636  0.9607
12592TIP3   OH259190   4.853   2.322  16.063 -0.0996 -0.5054 -0.0886
12592TIP3    H159191   4.858   2.234  16.025  2.0421  0.2417 -1.7945
12592TIP3    H259192   4.826   2.377  15.990 -0.0105  0.4441  0.5833
12593TIP3   OH259193   1.074   3.967  13.266  0.8853  0.0134  0.2662
12593TIP3    H159194   1.026   3.908  13.325 -1.1370 -0.8783 -2.0917
12593TIP3    H259195   1.155   3.919  13.246  0.5360 -0.7194  0.5558
12594TIP3   OH259196   3.229   0.181  14.275  0.2318  0.3334  0.1106
12594TIP3    H159197   3.256   0.094  14.303 -0.0740  0.5607  1.1313
12594TIP3    H259198   3.164   0.166  14.206  0.4972 -0.2376 -0.0138
12595TIP3   OH259199   1.438   1.910  10.626 -0.3707 -0.3198  0.1432
12595TIP3    H159200   1.508   1.895  10.689  0.5246 -0.1121 -0.7788
12595TIP3    H259201   1.479   1.895  10.541 -0.5312  3.0200 -0.6436
12596TIP3   OH259202   4.268   6.809  14.768  0.2589 -0.2782 -0.1173
12596TIP3    H159203   4.271   6.854  14.684 -2.5617  0.3918  0.0361
12596TIP3    H259204   4.187   6.758  14.765  0.3420 -0.6383  2.0184
12597TIP3   OH259205   0.077   0.158   2.669 -0.2901 -0.6478  0.2802
12597TIP3    H159206   0.018   0.172   2.743 -1.1410 -1.6408 -0.1893
12597TIP3    H259207   0.164   0.156   2.709 -0.4614  1.5666  0.8904
12598TIP3   OH259208   0.783   3.280  10.160 -0.4530  1.0419 -0.1913
12598TIP3    H159209   0.855   3.318  10.211 -1.1011 -0.2166  1.7620
12598TIP3    H259210   0.776   3.336  10.083  2.9125  0.9438 -0.7060
12599TIP3   OH259211   5.350   6.359   1.901 -0.3158  0.4422 -0.0494
12599TIP3    H159212   5.283   6.339   1.835 -1.7600 -0.4005  1.5660
12599TIP3    H259213   5.433   6.352   1.854 -1.2511 -0.6530 -1.6576
12600TIP3   OH259214   5.463   5.092  13.783  0.8546  0.7349  0.0554
12600TIP3    H159215   5.474   4.999  13.799 -0.2760  0.4850 -0.5323
12600TIP3    H259216   5.485   5.103  13.690 -3.6159  0.1513 -1.2894
12601TIP3   OH259217   4.103   0.126   4.581  0.3550 -0.6463 -0.3893
12601TIP3    H159218   4.048   0.074   4.523 -2.5722  1.8803 -0.1804
12601TIP3    H259219   4.111   0.210   4.537  0.4834  0.4006  1.5295
12602TIP3   OH259220   3.650   0.840   2.235  0.0337 -0.0217  0.7159
12602TIP3    H159221   3.645   0.852   2.330  1.7636  0.5687  0.7677
12602TIP3    H259222   3.704   0.912   2.205 -0.5601 -0.1523 -0.7571
12603TIP3   OH259223   1.348   3.808  16.727  0.7638 -0.4244 -0.1213
12603TIP3    H159224   1.258   3.777  16.714  0.5733 -0.7092  1.5816
12603TIP3    H259225   1.375   3.841  16.642 -0.3786 -1.8208 -1.0693
12604TIP3   OH259226   3.810   5.846  10.981  0.0845 -0.2521 -0.4670
12604TIP3    H159227   3.758   5.829  10.903  0.1921  0.1013 -0.6184
12604TIP3    H259228   3.887   5.790  10.971  0.4144  0.2717 -0.9377
12605TIP3   OH259229   6.696   3.243   5.940  0.1828  0.2570  0.3977
12605TIP3    H159230   6.789   3.265   5.947  0.5581 -1.6491  2.4230
12605TIP3    H259231   6.667   3.234   6.030 -1.6872 -0.3611 -0.2298
12606TIP3   OH259232   3.574   2.880  12.750 -0.0677  0.3921  0.1297
12606TIP3    H159233   3.493   2.856  12.795  0.2313 -1.8608 -0.4264
12606TIP3    H259234   3.643   2.863  12.815  0.0356  1.9328  0.4680
12607TIP3   OH259235   2.950   1.280  13.812 -0.0928 -0.4907 -0.5990
12607TIP3    H159236   2.943   1.375  13.802  1.1262  0.0213  2.2809
12607TIP3    H259237   2.860   1.249  13.805 -0.5904  0.9363 -1.0274
12608TIP3   OH259238   6.446   4.995  16.689 -0.2053  0.5922 -0.1113
12608TIP3    H159239   6.416   5.002  16.599  2.2854 -0.9178 -1.1792
12608TIP3    H259240   6.525   4.941  16.683 -0.0444  0.3296  3.0106
12609TIP3   OH259241   3.846   5.975   2.885 -0.2081  0.4227  0.7333
12609TIP3    H159242   3.883   5.951   2.970  0.2794  2.1687  1.0482
12609TIP3    H259243   3.897   6.051   2.857 -0.0988 -0.3478 -1.3272
12610TIP3   OH259244   4.539   5.880  14.094 -0.1037  0.1654  0.1412
12610TIP3    H159245   4.509   5.943  14.029 -2.8499 -0.2689  0.8884
12610TIP3    H259246   4.460   5.834  14.124  1.5998 -2.9192  0.4301
12611TIP3   OH259247   2.153   0.488  14.044 -0.0373  0.5691  0.5045
12611TIP3    H159248   2.118   0.433  14.114  0.1813  1.2006  1.1238
12611TIP3    H259249   2.091   0.477  13.972 -1.3994  1.4306  1.4755
12612TIP3   OH259250   6.749   1.541   2.614  0.6457  0.0280 -0.1160
12612TIP3    H159251   6.812   1.591   2.563 -0.1005  0.5127 -0.5791
12612TIP3    H259252   6.736   1.593   2.694  1.5098 -0.5303  0.4046
12613TIP3   OH259253   4.129   3.494  13.303  0.4711  0.4340  0.2815
12613TIP3    H159254   4.110   3.407  13.268  1.2893 -0.1340  1.2113
12613TIP3    H259255   4.084   3.554  13.243  0.3463 -0.5952 -0.6915
12614TIP3   OH259256   6.280   1.528   5.878 -0.1011 -0.3081 -0.7526
12614TIP3    H159257   6.227   1.574   5.943 -0.0645  3.1317 -2.8937
12614TIP3    H259258   6.216   1.493   5.816 -0.0385  0.3040 -1.1754
12615TIP3   OH259259   4.788   1.975  14.310 -0.4936 -0.0057  0.7686
12615TIP3    H159260   4.742   2.055  14.335 -2.3134 -1.0510  0.9768
12615TIP3    H259261   4.746   1.906  14.363  1.6204 -0.9815  1.2719
12616TIP3   OH259262   2.610   5.246  16.026  0.1620  0.1925 -0.0592
12616TIP3    H159263   2.612   5.218  15.935 -1.7423 -0.4126  0.0366
12616TIP3    H259264   2.550   5.321  16.027 -1.8502 -1.3098  0.9856
12617TIP3   OH259265   2.496   2.276  12.937 -0.4729 -0.3680  0.3134
12617TIP3    H159266   2.468   2.226  12.859 -0.1016  2.8665 -2.1075
12617TIP3    H259267   2.589   2.256  12.945  0.0388  0.9492 -1.5914
12618TIP3   OH259268   6.550   5.617  15.983 -0.4370 -0.4000  0.7097
12618TIP3    H159269   6.554   5.710  16.007 -0.8717 -0.2241  0.1448
12618TIP3    H259270   6.598   5.612  15.900 -0.5149 -0.6532  0.6799
12619TIP3   OH259271   4.937   4.659  16.720  0.2616 -0.2493  0.1618
12619TIP3    H159272   4.886   4.655  16.801 -3.0476 -1.3736 -1.8121
12619TIP3    H259273   4.895   4.728  16.668  0.4586 -1.4563 -1.6912
12620TIP3   OH259274   6.511   1.918  16.396  0.0887  0.4205  0.1911
12620TIP3    H159275   6.436   1.967  16.429 -0.4094  1.1874 -1.9313
12620TIP3    H259276   6.510   1.836  16.446 -1.3372  0.9665  1.1355
12621TIP3   OH259277   0.317   3.301   1.242  0.1835 -0.2384 -0.0356
12621TIP3    H159278   0.391   3.247   1.270 -1.4933 -2.5831  0.1042
12621TIP3    H259279   0.295   3.353   1.319  0.5381 -0.8489  0.4843
12622TIP3   OH259280   1.845   0.264   0.413  0.4353  0.3983 -0.0886
12622TIP3    H159281   1.884   0.177   0.419  0.2400  0.2730 -0.6434
12622TIP3    H259282   1.917   0.321   0.387  0.6901  0.5056  0.7934
12623TIP3   OH259283   4.068   5.660   1.630 -0.2640  0.2375 -0.7144
12623TIP3    H159284   4.007   5.692   1.696 -0.2203 -0.0053 -0.5549
12623TIP3    H259285   4.023   5.674   1.547 -1.3448 -1.6211 -0.5082
12624TIP3   OH259286   0.857   0.807   2.436  0.3262 -0.1147 -0.0241
12624TIP3    H159287   0.784   0.768   2.485  0.3265 -0.0089  0.0595
12624TIP3    H259288   0.850   0.901   2.453  1.0601 -0.2027  0.7655
12625TIP3   OH259289   4.687   5.792   4.720  0.4141 -0.5391  0.2757
12625TIP3    H159290   4.599   5.826   4.704  0.8371  0.7805  0.6303
12625TIP3    H259291   4.687   5.766   4.812  0.5577  0.0075  0.4341
12626TIP3   OH259292   5.262   1.794   3.205 -0.1214 -0.3118  0.0195
12626TIP3    H159293   5.174   1.791   3.168  0.5697 -0.2531 -1.7136
12626TIP3    H259294   5.261   1.871   3.263 -0.8940  0.3247 -0.8186
12627TIP3   OH259295   1.938   4.552   4.775  0.0104 -0.3858 -0.0620
12627TIP3    H159296   1.916   4.549   4.869  1.4410  0.7150  0.3364
12627TIP3    H259297   1.918   4.463   4.744 -0.0526 -0.9148  1.3891
12628TIP3   OH259298   1.133   3.355   0.465  0.2119 -0.0147 -0.3639
12628TIP3    H159299   1.054   3.334   0.516  0.7455 -0.2713  0.3804
12628TIP3    H259300   1.205   3.317   0.516  0.8238  0.2492 -1.0124
12629TIP3   OH259301   2.741   0.704   0.116 -0.4998 -0.1881 -0.4838
12629TIP3    H159302   2.786   0.623   0.090 -1.1511 -0.4509 -0.8105
12629TIP3    H259303   2.650   0.690   0.090 -0.6407  0.6071 -0.4284
12630TIP3   OH259304   4.320   2.152   4.784 -0.2514 -0.3120  0.6001
12630TIP3    H159305   4.319   2.183   4.874 -0.2005 -0.8251  0.7841
12630TIP3    H259306   4.357   2.064   4.790  1.4276  0.3057 -0.1324
12631TIP3   OH259307   2.218   2.978  15.371  0.0479 -0.2386 -0.0044
12631TIP3    H159308   2.286   2.912  15.380  0.3870  0.2992  1.6728
12631TIP3    H259309   2.155   2.959  15.441 -0.8507  0.0636 -0.7062
12632TIP3   OH259310   2.347   0.128   0.719  0.4383 -0.1133  0.4133
12632TIP3    H159311   2.308   0.050   0.759 -0.6164  1.1622  2.0083
12632TIP3    H259312   2.440   0.122   0.740  0.2337 -0.5481  1.2268
12633TIP3   OH259313   3.113   6.765   4.554  0.1865 -0.1388  0.5632
12633TIP3    H159314   3.039   6.749   4.495  1.6470 -1.6558 -0.9842
12633TIP3    H259315   3.081   6.831   4.615 -1.8120  0.6315 -1.1851
12634TIP3   OH259316   4.517   4.930   6.467 -0.2214 -0.4000 -1.2788
12634TIP3    H159317   4.562   5.014   6.468  0.6806 -0.8661 -0.7248
12634TIP3    H259318   4.576   4.872   6.418  0.4056 -1.3261  0.4631
12635TIP3   OH259319   4.791   0.475   1.259 -0.1144  0.0395 -0.0591
12635TIP3    H159320   4.833   0.458   1.174 -0.1886  0.1063 -0.1100
12635TIP3    H259321   4.697   0.461   1.242  0.0455 -2.1223  0.5483
12636TIP3   OH259322   3.239   1.081   4.301 -0.3039 -0.0392  0.1276
12636TIP3    H159323   3.289   1.049   4.226  0.3209  0.5562  0.2774
12636TIP3    H259324   3.305   1.112   4.363 -0.8389  0.2189  0.5841
12637TIP3   OH259325   1.324   6.710   0.674 -0.3638 -0.2448 -0.2551
12637TIP3    H159326   1.280   6.691   0.757 -0.0118  2.1065  0.5521
12637TIP3    H259327   1.291   6.796   0.648  1.9954  0.5812 -0.7921
12638TIP3   OH259328   2.007   4.538  15.196 -0.6318  0.0587 -0.7756
12638TIP3    H159329   2.003   4.500  15.284  0.4864  1.0498 -0.2644
12638TIP3    H259330   1.998   4.463  15.137  3.1843 -1.3706  0.1710
12639TIP3   OH259331   0.937   3.217   2.522 -0.2766  0.2592 -0.2953
12639TIP3    H159332   0.895   3.241   2.604 -1.2195  0.3041 -0.7819
12639TIP3    H259333   0.931   3.295   2.467 -0.4138 -0.0392 -0.7130
12640TIP3   OH259334   5.669   5.990  16.376 -0.0309 -0.0644  0.6476
12640TIP3    H159335   5.602   6.058  16.382 -1.1224 -1.2226  2.5248
12640TIP3    H259336   5.751   6.038  16.364 -1.1621  1.3799 -2.0982
12641TIP3   OH259337   4.872   6.265  10.565 -0.1929 -0.0080  0.7973
12641TIP3    H159338   4.963   6.257  10.537 -0.6870 -0.0676 -0.9045
12641TIP3    H259339   4.852   6.181  10.607 -0.1544 -0.9808 -1.0339
12642TIP3   OH259340   2.313   5.469   2.487 -0.2091 -0.0074  0.3509
12642TIP3    H159341   2.232   5.425   2.512 -2.2370  3.7125  1.2400
12642TIP3    H259342   2.285   5.532   2.420  1.5185  2.5325  1.8524
12643TIP3   OH259343   2.582   4.978   1.799 -0.3131  0.3389  0.2046
12643TIP3    H159344   2.494   4.980   1.838 -0.4229 -2.2183  0.2310
12643TIP3    H259345   2.587   5.059   1.748 -2.8498  0.3821 -0.1079
12644TIP3   OH259346   3.905   1.799  16.458  0.7896  0.0603 -0.2928
12644TIP3    H159347   3.812   1.789  16.478  0.0459  3.3179 -1.5453
12644TIP3    H259348   3.948   1.802  16.543 -0.4729  0.2441  0.3623
12645TIP3   OH259349   1.539   1.096   5.340  0.2265 -0.1563  0.3671
12645TIP3    H159350   1.501   1.036   5.405  0.3148 -0.0942  0.4750
12645TIP3    H259351   1.485   1.175   5.346  0.5722  0.0561  0.7512
12646TIP3   OH259352   3.236   6.388   5.229 -0.4925  0.0515  0.3138
12646TIP3    H159353   3.219   6.467   5.280 -3.0096  0.8440 -1.5390
12646TIP3    H259354   3.330   6.390   5.212 -0.1667  1.5693  1.9563
12647TIP3   OH259355   4.616   0.200  15.086  0.0411  0.1827 -0.5425
12647TIP3    H159356   4.621   0.222  15.179 -1.1979 -0.4555 -0.3148
12647TIP3    H259357   4.522   0.194  15.067  0.2893 -1.3552 -1.4377
12648TIP3   OH259358   4.211   3.745   5.675 -0.1842  0.1068  0.1406
12648TIP3    H159359   4.188   3.772   5.586  2.6803 -0.8866 -1.0187
12648TIP3    H259360   4.233   3.652   5.668  1.7493  0.3927  1.4654
12649TIP3   OH259361   5.914   5.018   2.139 -0.4069 -0.3193 -0.4040
12649TIP3    H159362   5.916   4.925   2.116 -0.3696 -0.9249  1.8330
12649TIP3    H259363   5.983   5.029   2.204 -0.7782  1.1651 -0.2059
12650TIP3   OH259364   2.067   1.961  14.572  0.7022 -0.4960  0.3301
12650TIP3    H159365   2.146   1.911  14.553  1.2449  0.6419 -0.5636
12650TIP3    H259366   2.099   2.039  14.618  0.1778  0.2156 -0.4742
12651TIP3   OH259367   1.889   1.540   2.391  0.5085  0.1910 -0.0521
12651TIP3    H159368   1.869   1.606   2.457 -1.4759  0.5189 -0.9279
12651TIP3    H259369   1.833   1.562   2.317  1.1657 -1.3903 -1.0588
12652TIP3   OH259370   2.176   0.696   1.745  0.2014  0.1729 -0.0797
12652TIP3    H159371   2.227   0.616   1.757  0.5969  0.3820 -0.3470
12652TIP3    H259372   2.089   0.665   1.720  0.6826 -0.1588 -1.4119
12653TIP3   OH259373   5.911   6.169   4.199 -0.0862 -0.2855 -0.1659
12653TIP3    H159374   5.837   6.111   4.216 -2.1518  1.5618 -2.2382
12653TIP3    H259375   5.917   6.224   4.277 -0.7890 -0.5868  0.1104
12654TIP3   OH259376   4.312   0.030  13.549  0.1497 -0.0937 -0.1252
12654TIP3    H159377   4.384  -0.031  13.531 -0.5839 -0.5112 -1.7275
12654TIP3    H259378   4.335   0.068  13.634  0.4824 -2.7949  1.0876
12655TIP3   OH259379   2.037   3.137   2.043  0.0312  0.5247  0.2789
12655TIP3    H159380   2.125   3.172   2.052  1.9103 -3.5372 -0.3584
12655TIP3    H259381   2.019   3.094   2.127 -1.3939  1.2258  0.3726
12656TIP3   OH259382   0.930   0.641  16.553  0.2314 -0.1327  0.1604
12656TIP3    H159383   0.923   0.610  16.463  0.4404 -0.3706  0.2234
12656TIP3    H259384   1.007   0.596  16.588  1.6243  1.8167 -0.2773
12657TIP3   OH259385   4.539   5.676  13.328 -1.0813  0.2335  1.1975
12657TIP3    H159386   4.515   5.592  13.367 -0.4003 -1.3434 -1.5574
12657TIP3    H259387   4.460   5.704  13.281 -0.6935  0.1037  0.4540
12658TIP3   OH259388   4.206   3.020   1.827 -0.2706  0.0651  0.0864
12658TIP3    H159389   4.198   3.046   1.919  1.4863 -3.3776  1.3888
12658TIP3    H259390   4.238   3.099   1.783 -0.0805  1.5292  2.6417
12659TIP3   OH259391   4.391   6.282   4.759 -0.0733  0.2057  0.0834
12659TIP3    H159392   4.446   6.260   4.834 -0.4069  0.3527  0.3711
12659TIP3    H259393   4.301   6.273   4.791 -0.2208  0.1279 -0.3377
12660TIP3   OH259394   0.930   0.682   1.431 -0.2348  0.0791  0.1005
12660TIP3    H159395   0.998   0.745   1.407 -2.4543  1.9595 -1.7853
12660TIP3    H259396   0.884   0.724   1.504 -1.0313  0.1876 -0.4442
12661TIP3   OH259397   3.936   0.136  14.527 -0.4328  0.0375  0.1797
12661TIP3    H159398   3.968   0.215  14.483 -0.4596  0.1036  0.2793
12661TIP3    H259399   3.953   0.066  14.465  0.6532 -0.0491  0.5467
12662TIP3   OH259400   3.988   1.963  16.754 -0.1597  0.6865  0.3331
12662TIP3    H159401   3.943   2.045  16.735 -0.9634  0.0515 -0.5366
12662TIP3    H259402   3.918   1.898  16.764  0.5211 -0.2080 -0.5027
12663TIP3   OH259403   1.583   5.830   2.530  0.2451 -0.2654 -0.4543
12663TIP3    H159404   1.524   5.754   2.531 -0.2459  0.1195  0.0831
12663TIP3    H259405   1.627   5.827   2.615  2.1140 -1.3900 -1.3788
12664TIP3   OH259406   3.506   5.224   2.495 -0.2143  0.2200  0.4693
12664TIP3    H159407   3.573   5.253   2.433 -0.5898 -1.0674 -0.5736
12664TIP3    H259408   3.436   5.289   2.486 -0.1818  0.1495 -0.3099
12665TIP3   OH259409   4.079   2.024   6.358 -0.2111 -0.0668 -0.3581
12665TIP3    H159410   4.101   2.089   6.425 -0.1139 -0.0463 -0.4093
12665TIP3    H259411   3.983   2.025   6.353 -0.1763  0.8774 -1.1459
12666TIP3   OH259412   5.338   3.712   0.903 -0.0698 -0.0522  0.2959
12666TIP3    H159413   5.365   3.706   0.812 -0.0280  1.2812  0.2030
12666TIP3    H259414   5.413   3.750   0.949 -0.8495  1.3497  0.4743
12667TIP3   OH259415   3.497   0.718   1.228  0.4508  0.2135 -0.1251
12667TIP3    H159416   3.501   0.793   1.288  1.9077  0.9953 -1.1445
12667TIP3    H259417   3.424   0.666   1.261 -0.6443  2.0848  0.6193
12668TIP3   OH259418   5.071   0.929   5.821  0.1020 -0.4392  0.1662
12668TIP3    H159419   5.012   0.880   5.878 -0.9965 -1.4866 -1.8030
12668TIP3    H259420   5.151   0.937   5.872 -0.6155 -1.8810  1.6190
12669TIP3   OH259421   6.619   3.529   2.043  0.2148  0.3837 -0.2462
12669TIP3    H159422   6.657   3.459   2.095 -0.3822 -0.7597 -1.3100
12669TIP3    H259423   6.574   3.585   2.107  0.7730 -0.1482  0.6216
12670TIP3   OH259424   0.246   2.219   3.695  0.1173  0.0676 -0.1920
12670TIP3    H159425   0.246   2.134   3.738  0.1324 -0.2016 -0.7153
12670TIP3    H259426   0.159   2.226   3.656  0.1170  0.2899 -0.1510
12671TIP3   OH259427   0.444   6.201   5.555  0.5649 -0.0208 -0.3737
12671TIP3    H159428   0.458   6.212   5.649  2.1169  1.0667 -0.6916
12671TIP3    H259429   0.464   6.109   5.538  1.7566  0.1237  0.1544
12672TIP3   OH259430   2.747   3.464   1.066 -0.1049 -0.1835 -0.0663
12672TIP3    H159431   2.688   3.402   1.022  0.2041  0.6879 -1.8033
12672TIP3    H259432   2.757   3.536   1.003  0.1918  1.2548  1.5492
12673TIP3   OH259433   4.409   5.804   4.742  0.3836  0.4813  0.1761
12673TIP3    H159434   4.375   5.729   4.693  1.6095  0.1173 -0.1442
12673TIP3    H259435   4.349   5.875   4.720 -0.6712 -0.3326  0.3176
12674TIP3   OH259436   3.337   4.112   2.666  0.9122 -0.5972  0.0688
12674TIP3    H159437   3.395   4.132   2.740  1.8207 -3.8004  0.3757
12674TIP3    H259438   3.390   4.132   2.588  0.6149  1.0322  0.2498
12675TIP3   OH259439   2.429   3.385   1.252  0.2396  0.4908 -0.0878
12675TIP3    H159440   2.432   3.374   1.348  1.2929  1.1387 -0.0284
12675TIP3    H259441   2.460   3.301   1.218 -0.9499 -0.0508  0.0955
12676TIP3   OH259442   5.023   1.871  12.926  0.0237  0.1748 -0.5889
12676TIP3    H159443   5.005   1.954  12.883 -1.5421  0.0916 -0.1516
12676TIP3    H259444   5.061   1.816  12.857 -0.7895  0.6121 -1.3998
12677TIP3   OH259445   4.749   1.401  13.141  0.1946 -0.0148  0.0083
12677TIP3    H159446   4.731   1.449  13.060 -0.7214 -2.0137 -1.0211
12677TIP3    H259447   4.668   1.407  13.191 -0.7006 -2.2249 -1.0778
12678TIP3   OH259448   3.523   2.033  15.422  0.2486  0.0131 -0.3109
12678TIP3    H159449   3.479   2.076  15.348 -0.5592  1.6822  1.0729
12678TIP3    H259450   3.611   2.069  15.421 -0.8839  3.3185  1.8671
12679TIP3   OH259451   5.837   6.167   1.388  0.3619  0.0463 -0.2609
12679TIP3    H159452   5.859   6.168   1.481 -0.3050  2.2834 -0.0744
12679TIP3    H259453   5.776   6.093   1.379  0.1563  0.0062  1.1573
12680TIP3   OH259454   5.564   3.286   2.016  0.2177  0.1357  0.0301
12680TIP3    H159455   5.584   3.358   2.076  1.2316 -0.6295  0.6464
12680TIP3    H259456   5.629   3.294   1.946 -0.8127  0.8827 -0.8791
12681TIP3   OH259457   0.656   2.460   5.413 -0.9147  0.7267  0.0306
12681TIP3    H159458   0.746   2.491   5.402 -0.8286  0.2677 -0.6036
12681TIP3    H259459   0.618   2.463   5.326 -0.9011 -0.9302 -0.0731
12682TIP3   OH259460   0.875   2.418  10.812  0.3393  0.2550  0.4631
12682TIP3    H159461   0.897   2.452  10.899  1.1765 -3.1962  1.7698
12682TIP3    H259462   0.927   2.338  10.804 -0.5980 -0.1541 -2.7763
12683TIP3   OH259463   0.040   3.513  16.681  0.2592 -0.1879  0.3084
12683TIP3    H159464   0.095   3.562  16.620 -0.9368  1.9327  0.8142
12683TIP3    H259465  -0.016   3.458  16.625  1.6565 -1.0586 -0.2756
12684TIP3   OH259466   0.475   2.220  12.150  0.2201 -0.4623 -0.0917
12684TIP3    H159467   0.476   2.269  12.232 -0.2824  0.3155 -0.5359
12684TIP3    H259468   0.498   2.285  12.083 -1.2310 -0.6236 -0.7875
12685TIP3   OH259469   6.426   3.638   3.612  0.3461  0.1619 -0.1353
12685TIP3    H159470   6.336   3.606   3.617  0.0262  0.7832 -1.4039
12685TIP3    H259471   6.456   3.609   3.526  0.4990  2.0327 -0.7588
12686TIP3   OH259472   4.999   5.272  12.570 -0.3051 -0.0830 -0.5019
12686TIP3    H159473   5.084   5.230  12.579 -0.5856 -0.7248 -0.7876
12686TIP3    H259474   4.978   5.265  12.477 -1.1703 -0.9319 -0.2552
12687TIP3   OH259475   0.708   0.212  16.080 -0.4472 -0.2814  0.6265
12687TIP3    H159476   0.682   0.173  15.997 -0.4077 -1.4692  1.1569
12687TIP3    H259477   0.783   0.269  16.057 -1.4523  0.6872 -0.3828
12688TIP3   OH259478   5.279   5.604  15.234  0.5902  0.1412 -0.0366
12688TIP3    H159479   5.257   5.626  15.325  0.9852  1.3536 -0.2177
12688TIP3    H259480   5.373   5.588  15.235  0.1901 -2.5174  0.2523
12689TIP3   OH259481   4.192   2.590   2.114 -0.2052 -0.3804  0.5774
12689TIP3    H159482   4.144   2.652   2.168  0.1372 -0.9860  1.6206
12689TIP3    H259483   4.265   2.640   2.078 -1.5048  0.5116 -0.9227
12690TIP3   OH259484   2.814   3.324   4.107 -0.4478 -0.3325  0.3304
12690TIP3    H159485   2.748   3.264   4.142  0.7759 -1.3991  0.9353
12690TIP3    H259486   2.869   3.268   4.052 -0.1143  0.5457 -0.2391
12691TIP3   OH259487   0.500   1.046   3.493  0.2792 -0.2781  0.0556
12691TIP3    H159488   0.433   1.101   3.453  0.0223  0.2673  1.1902
12691TIP3    H259489   0.464   0.957   3.487 -1.5450  0.1920  2.4153
12692TIP3   OH259490   6.230   6.129  14.632 -0.0064  0.0423 -0.2759
12692TIP3    H159491   6.225   6.033  14.639  0.9206  0.0481  0.9292
12692TIP3    H259492   6.166   6.160  14.696  1.0047  0.1843  0.7141
12693TIP3   OH259493   3.404   4.019   1.048  0.0538  0.2932 -0.1804
12693TIP3    H159494   3.448   4.080   0.988 -3.4696  0.5982 -2.7197
12693TIP3    H259495   3.404   3.936   1.001 -0.8742 -0.0197  0.3634
12694TIP3   OH259496   5.161   1.570  13.210  0.4105  0.3628 -0.4082
12694TIP3    H159497   5.110   1.651  13.202 -0.2240 -0.1393 -1.6974
12694TIP3    H259498   5.098   1.504  13.238  0.8234  0.2033  0.1617
12695TIP3   OH259499   3.565   3.634   1.693  0.3780  0.1083 -0.1624
12695TIP3    H159500   3.471   3.621   1.683  0.3973 -1.7260  1.4164
12695TIP3    H259501   3.574   3.717   1.741 -0.4998 -0.1477  0.4677
12696TIP3   OH259502   5.246   2.578   5.469 -0.0210 -0.0010  0.3252
12696TIP3    H159503   5.311   2.618   5.526 -0.4142  1.0045  0.0762
12696TIP3    H259504   5.163   2.589   5.515 -0.2450  0.2113 -0.1232
12697TIP3   OH259505   1.151   6.054   0.718  0.3213 -0.2589 -0.0807
12697TIP3    H159506   1.072   6.089   0.677  1.1745  0.7870 -0.9089
12697TIP3    H259507   1.155   6.098   0.803 -0.4521 -1.0105  0.3629
12698TIP3   OH259508   2.130   2.417  11.388 -0.4182 -0.1643 -0.1762
12698TIP3    H159509   2.078   2.343  11.419 -0.5490  0.1327  0.3328
12698TIP3    H259510   2.221   2.388  11.400 -0.4109  0.6033  2.2752
12699TIP3   OH259511   1.205   3.879   1.784  0.4527  0.1450  0.3988
12699TIP3    H159512   1.276   3.891   1.847  2.2978 -3.3307 -0.7498
12699TIP3    H259513   1.147   3.815   1.826 -1.1518  1.6892  0.6191
12700TIP3   OH259514   4.954   1.409   2.293  0.0995 -0.4278 -0.4119
12700TIP3    H159515   4.940   1.458   2.375 -0.9682  1.6746 -1.7513
12700TIP3    H259516   4.903   1.329   2.304 -0.1560 -0.1162  0.9064
12701TIP3   OH259517   1.210   4.496   3.639  0.1761 -0.1686  0.0904
12701TIP3    H159518   1.129   4.490   3.690 -0.5831 -0.4721 -1.1014
12701TIP3    H259519   1.260   4.418   3.664 -0.1833 -0.3103  0.3741
12702TIP3   OH259520   2.932   3.144   5.221 -0.0346  0.3792 -0.3127
12702TIP3    H159521   2.852   3.150   5.169  0.0788  1.3942 -0.4034
12702TIP3    H259522   2.977   3.066   5.188 -0.9202 -0.1365 -0.3416
12703TIP3   OH259523   3.368   5.201   5.398  0.2229 -0.6186 -0.4429
12703TIP3    H159524   3.439   5.262   5.419 -0.7763  1.1070 -1.8095
12703TIP3    H259525   3.333   5.174   5.484  0.2294  1.3251  0.2101
12704TIP3   OH259526   2.777   6.647   6.181  0.3476 -0.1336  0.2394
12704TIP3    H159527   2.764   6.664   6.088 -0.4920 -0.4618  0.2857
12704TIP3    H259528   2.694   6.671   6.222  0.8713  0.4765  0.9772
12705TIP3   OH259529   1.121   0.849   2.257 -0.6935  0.0372  0.1310
12705TIP3    H159530   1.055   0.800   2.306 -0.9535  0.1164 -0.1387
12705TIP3    H259531   1.101   0.941   2.276 -0.0392  0.0398  0.8548
12706TIP3   OH259532   5.582   4.852  13.789  0.6244 -0.4670 -0.2587
12706TIP3    H159533   5.665   4.896  13.774  0.8347 -0.1902  1.5385
12706TIP3    H259534   5.605   4.768  13.828  0.0552 -0.2395  0.5910
12707TIP3   OH259535   6.016   3.844  11.794  0.0309 -0.2866 -0.7190
12707TIP3    H159536   6.103   3.832  11.831  0.3754 -2.3641 -2.0110
12707TIP3    H259537   6.031   3.869  11.703 -0.7569  0.6128 -0.6214
12708TIP3   OH259538   1.956   0.155   2.397 -0.1610 -0.3202  0.3228
12708TIP3    H159539   1.890   0.098   2.358  0.6896 -1.3974  0.4029
12708TIP3    H259540   2.020   0.095   2.434  0.1362  0.6946  1.5108
12709TIP3   OH259541   4.015   2.144   3.663 -0.2504  0.2301 -0.7564
12709TIP3    H159542   4.102   2.168   3.697 -0.6800  0.4484  0.2372
12709TIP3    H259543   3.990   2.217   3.607  1.0893 -0.7798 -2.7712
12710TIP3   OH259544   1.376   4.822   5.829  1.0037 -0.0882 -0.6508
12710TIP3    H159545   1.420   4.741   5.855  0.8646  0.0354 -0.0066
12710TIP3    H259546   1.294   4.793   5.790  1.8467 -0.3436 -2.3154
12711TIP3   OH259547   5.794   5.931  15.617 -0.0489  0.3217  0.0880
12711TIP3    H159548   5.700   5.921  15.633 -0.0993  1.5812  0.6783
12711TIP3    H259549   5.799   6.000  15.550  0.4114 -0.7491 -1.0111
12712TIP3   OH259550   4.653   1.675  16.471 -0.4952 -0.2155 -0.4872
12712TIP3    H159551   4.628   1.583  16.478 -1.0188 -0.2272 -2.1411
12712TIP3    H259552   4.694   1.683  16.385 -0.2890  1.0595 -0.2927
12713TIP3   OH259553   4.029   4.174   3.347  0.0606  0.7953 -0.3578
12713TIP3    H159554   4.058   4.236   3.414 -0.6098  0.9153 -0.1792
12713TIP3    H259555   4.103   4.170   3.285  0.3004  1.3984 -0.1182
12714TIP3   OH259556   3.750   1.063  16.532 -0.2074 -0.2360 -0.1756
12714TIP3    H159557   3.835   1.044  16.572  0.3624 -0.7739 -1.5789
12714TIP3    H259558   3.731   1.154  16.557  0.6526 -0.1961  0.3714
12715TIP3   OH259559   6.712   3.644   2.612 -0.3554  0.5744  0.2058
12715TIP3    H159560   6.625   3.640   2.651  0.8317 -0.3194  3.0084
12715TIP3    H259561   6.759   3.570   2.651  1.2874  0.1991 -2.2800
12716TIP3   OH259562   1.839   4.705   2.287 -0.0880 -0.2605 -0.1090
12716TIP3    H159563   1.820   4.613   2.310  1.6773 -0.4065  0.9274
12716TIP3    H259564   1.867   4.701   2.196  1.6976 -1.0632  0.4240
12717TIP3   OH259565   4.854   3.773  13.351  0.0304  0.0757 -0.5049
12717TIP3    H159566   4.855   3.865  13.378  1.1175  0.0840 -0.5456
12717TIP3    H259567   4.852   3.777  13.255  0.8999  0.0705 -0.5307
12718TIP3   OH259568   0.482   1.825  13.143 -0.2652  0.1132 -0.5344
12718TIP3    H159569   0.456   1.795  13.230 -0.3939  0.4175 -0.4656
12718TIP3    H259570   0.509   1.746  13.097 -0.4747 -0.0866 -0.3144
12719TIP3   OH259571   5.834   0.236   4.380  0.6648 -0.2868 -0.1252
12719TIP3    H159572   5.783   0.315   4.399 -0.5064 -0.7318 -1.2743
12719TIP3    H259573   5.810   0.175   4.450 -0.0146 -0.3114 -0.3655
12720TIP3   OH259574   2.236   4.539  12.721 -0.1257  0.4931 -0.4391
12720TIP3    H159575   2.249   4.447  12.743 -2.2710  0.1822 -0.3031
12720TIP3    H259576   2.226   4.541  12.626 -0.4132  0.5246 -0.4106
12721TIP3   OH259577   5.655   6.605  14.062 -0.0373  0.7756  0.1823
12721TIP3    H159578   5.745   6.635  14.051  0.0501  0.9357  1.2234
12721TIP3    H259579   5.622   6.596  13.972  0.5068  2.2323 -0.2092
12722TIP3   OH259580   6.591   0.307  16.627 -0.2865  0.0786  0.1740
12722TIP3    H159581   6.613   0.325  16.535 -2.3139 -0.3481 -0.4629
12722TIP3    H259582   6.594   0.392  16.670  0.8437  0.2624 -0.2257
12723TIP3   OH259583   3.300   0.394  10.874 -0.2795  0.2548 -0.6264
12723TIP3    H159584   3.316   0.317  10.820  1.4294 -1.7810  2.4661
12723TIP3    H259585   3.237   0.446  10.824 -2.5721 -3.7373 -2.3287
12724TIP3   OH259586   2.993   0.219   2.021  0.6791 -0.0133  0.3194
12724TIP3    H159587   2.923   0.240   2.083  2.4791  1.8837  1.8038
12724TIP3    H259588   3.038   0.144   2.060  0.7696  0.1087  0.4504
12725TIP3   OH259589   0.675   5.180  14.720 -0.2058  0.3888  0.2818
12725TIP3    H159590   0.742   5.137  14.774 -1.0994 -2.0711 -0.4488
12725TIP3    H259591   0.716   5.262  14.692  1.3843  0.3241  2.2062
12726TIP3   OH259592   2.297   1.766  13.627 -0.5006  0.4313 -0.6952
12726TIP3    H159593   2.364   1.703  13.602 -1.8701 -0.9455 -1.0799
12726TIP3    H259594   2.344   1.847  13.644  1.0200  0.1396 -3.1214
12727TIP3   OH259595   6.772   1.589   3.235  0.0065  0.1780  0.0610
12727TIP3    H159596   6.676   1.582   3.234  0.0475 -0.7718  1.0674
12727TIP3    H259597   6.789   1.666   3.289 -0.1862 -0.6565  1.3762
12728TIP3   OH259598   6.795   5.361   1.899  0.2605  0.2505  0.2658
12728TIP3    H159599   6.711   5.318   1.916 -0.0690  0.1512 -1.4059
12728TIP3    H259600   6.818   5.403   1.981 -0.8169 -0.7557  1.1126
12729TIP3   OH259601   5.408   2.699  16.032  0.0666 -0.0911  0.1490
12729TIP3    H159602   5.425   2.615  15.991 -2.4342 -0.5958 -0.0177
12729TIP3    H259603   5.413   2.681  16.126 -2.8155 -1.1107  0.2022
12730TIP3   OH259604   4.974   3.103   2.341  0.4245 -0.3236 -0.4590
12730TIP3    H159605   4.920   3.160   2.287  0.0170  0.2078  0.4780
12730TIP3    H259606   4.957   3.015   2.307 -0.2644 -0.0572 -0.8176
12731TIP3   OH259607   3.708   4.623   0.063 -0.0019 -0.0315 -0.1105
12731TIP3    H159608   3.732   4.710   0.092 -1.0580  0.4871 -0.7479
12731TIP3    H259609   3.636   4.636   0.002  0.6386 -1.2466 -1.1966
12732TIP3   OH259610   5.070   3.470   2.857  0.2287 -0.2220 -0.1846
12732TIP3    H159611   5.054   3.536   2.924 -0.9281 -0.7313  0.0615
12732TIP3    H259612   5.021   3.501   2.781  1.9184  0.6004 -0.9867
12733TIP3   OH259613   1.630   2.853  16.840 -0.1030 -0.1255 -0.8251
12733TIP3    H159614   1.617   2.758  16.833 -0.3200 -0.2033  0.3960
12733TIP3    H259615   1.542   2.889  16.843 -0.0220  0.0710 -0.8170
12734TIP3   OH259616   3.682   4.478  12.999 -0.2903 -0.5721  0.4185
12734TIP3    H159617   3.683   4.540  12.926 -0.3295  1.0911  1.7911
12734TIP3    H259618   3.607   4.421  12.980 -0.9907  0.5445 -0.2791
12735TIP3   OH259619   0.990   4.702   5.431  0.0922  0.0273  0.1458
12735TIP3    H159620   0.900   4.727   5.450 -0.6033 -2.1950  0.0093
12735TIP3    H259621   0.983   4.627   5.372  2.0764  0.8990 -1.3541
12736TIP3   OH259622   3.548   5.776  15.464  0.5468  0.0147  0.2172
12736TIP3    H159623   3.570   5.730  15.383 -0.3768  0.1859 -0.1398
12736TIP3    H259624   3.457   5.804  15.453  0.2806 -0.2852  1.4728
12737TIP3   OH259625   5.223   5.889   0.233 -0.0563  0.6181  0.7611
12737TIP3    H159626   5.263   5.848   0.157 -2.2314  3.3393 -2.0839
12737TIP3    H259627   5.217   5.982   0.210 -1.2538  1.5041  4.0844
12738TIP3   OH259628   1.408   5.502  15.756  0.4726 -0.1725  0.5466
12738TIP3    H159629   1.471   5.523  15.688 -0.9849  1.0969 -0.4803
12738TIP3    H259630   1.450   5.433  15.807  2.9662  1.1143  0.3751
12739TIP3   OH259631   3.310   0.264  13.243  0.0698 -0.1679 -0.2971
12739TIP3    H159632   3.305   0.225  13.330  2.0354  0.3866  0.1180
12739TIP3    H259633   3.389   0.227  13.204 -0.3934  0.1283 -1.5799
12740TIP3   OH259634   0.952   4.969  11.951  0.0454  0.2232 -0.3098
12740TIP3    H159635   0.975   4.957  11.859  1.5657 -1.7737  0.2661
12740TIP3    H259636   0.901   4.891  11.973 -0.8430  0.9833  0.4031
12741TIP3   OH259637   6.373   1.963  16.165  0.3130  0.1214  0.5927
12741TIP3    H159638   6.432   2.028  16.126 -0.1698  0.1654 -0.0923
12741TIP3    H259639   6.407   1.949  16.253  1.5255 -0.0830  0.1101
12742TIP3   OH259640   0.752   3.655  13.736  0.6215  0.6476 -0.1171
12742TIP3    H159641   0.743   3.724  13.670  0.3971  1.0876  0.3611
12742TIP3    H259642   0.720   3.696  13.817 -1.3350 -0.6233 -0.1806
12743TIP3   OH259643   3.774   1.955  13.248 -0.0483  0.2615 -0.5757
12743TIP3    H159644   3.809   2.017  13.311 -0.6858  0.1483 -0.0991
12743TIP3    H259645   3.851   1.913  13.209  0.4745  2.5045 -2.1189
12744TIP3   OH259646   2.436   1.167   0.762  0.2348  0.0403 -0.0875
12744TIP3    H159647   2.518   1.185   0.808  0.1735  1.4272 -0.4765
12744TIP3    H259648   2.369   1.178   0.829  0.3247 -0.8066  0.1598
12745TIP3   OH259649   0.290   3.201   0.994  0.2583  0.3503 -0.0913
12745TIP3    H159650   0.263   3.131   1.053  0.1825  0.5466  0.1102
12745TIP3    H259651   0.293   3.279   1.050  0.3302  0.5088 -0.3155
12746TIP3   OH259652   0.917   6.366   1.168 -0.9372  0.2110 -0.1604
12746TIP3    H159653   0.833   6.378   1.124 -1.0714  1.2934  0.3734
12746TIP3    H259654   0.937   6.451   1.207  0.2982 -0.0913 -0.0796
12747TIP3   OH259655   5.527   5.344  12.297 -0.0185  0.2975 -0.8444
12747TIP3    H159656   5.478   5.383  12.225  1.5584  3.4633 -0.3817
12747TIP3    H259657   5.594   5.290  12.254 -0.1491  0.8061 -1.7189
12748TIP3   OH259658   2.817   2.484   1.406 -0.2224 -0.1872 -0.0669
12748TIP3    H159659   2.818   2.504   1.312  0.5749  1.0269  0.1655
12748TIP3    H259660   2.760   2.551   1.444 -0.2104 -0.4163  0.3571
12749TIP3   OH259661   1.971   5.176  14.317  0.7076  0.4143 -0.5015
12749TIP3    H159662   1.991   5.266  14.343  1.0643  0.3724 -0.6343
12749TIP3    H259663   1.951   5.181  14.224 -1.3304  0.6882 -0.0936
12750TIP3   OH259664   6.476   3.644  12.831  0.3480  0.5243  0.2974
12750TIP3    H159665   6.556   3.683  12.796  0.6471 -0.5953 -0.3167
12750TIP3    H259666   6.405   3.686  12.781  0.3886  2.6453  1.8814
12751TIP3   OH259667   6.640   4.388   5.544  0.0936 -0.1557 -0.4026
12751TIP3    H159668   6.691   4.336   5.606 -1.3260  0.6364  1.5511
12751TIP3    H259669   6.597   4.323   5.488  1.3381 -0.8975 -0.5388
12752TIP3   OH259670   3.979   4.019  10.998 -0.2321 -0.0191  0.2361
12752TIP3    H159671   4.035   4.035  10.922  0.7226  0.1346  0.9579
12752TIP3    H259672   3.941   4.104  11.018 -1.1291 -0.2148 -0.5440
12753TIP3   OH259673   5.151   4.069   1.190  0.2106  0.2268 -0.2853
12753TIP3    H159674   5.135   4.011   1.115  0.1766  0.1505 -0.2187
12753TIP3    H259675   5.193   4.147   1.151 -1.6388  1.0790 -0.6898
12754TIP3   OH259676   6.494   4.672  14.582  0.6240  0.2868 -0.5736
12754TIP3    H159677   6.417   4.618  14.599  0.5294  0.9273  1.2410
12754TIP3    H259678   6.519   4.651  14.492 -0.7101 -1.1155 -0.6499
12755TIP3   OH259679   2.506   3.387  14.477 -0.1716  0.1802  0.0506
12755TIP3    H159680   2.508   3.316  14.412 -0.0816 -0.6903  0.9793
12755TIP3    H259681   2.413   3.395  14.501 -0.4167  1.4933 -1.2189
12756TIP3   OH259682   4.254   2.094   0.982 -0.8471 -0.3847 -0.3982
12756TIP3    H159683   4.232   2.001   0.973 -3.2170 -0.0670  1.2818
12756TIP3    H259684   4.347   2.094   1.007 -0.9526 -2.3259  0.1619
12757TIP3   OH259685   5.476   2.453  13.588 -0.1189 -0.0328 -0.0225
12757TIP3    H159686   5.553   2.454  13.645 -0.0023 -0.6737 -0.1610
12757TIP3    H259687   5.429   2.373  13.614 -2.1328  1.6449  1.8988
12758TIP3   OH259688   5.717   5.443   0.581  0.0578 -0.2817 -0.1977
12758TIP3    H159689   5.683   5.526   0.550 -0.7311 -1.1655 -1.8418
12758TIP3    H259690   5.640   5.387   0.589  0.7186 -1.2556 -0.4812
12759TIP3   OH259691   4.743   2.149   4.116  0.2276 -0.1913  0.3293
12759TIP3    H159692   4.838   2.142   4.130  0.0900  0.2566  1.5875
12759TIP3    H259693   4.727   2.242   4.104  0.0396 -0.3501 -0.8251
12760TIP3   OH259694   0.262   1.600  12.809  0.0536 -0.2774 -0.2841
12760TIP3    H159695   0.264   1.631  12.900  0.0090  0.5278 -0.5486
12760TIP3    H259696   0.348   1.625  12.774  0.1519 -0.7781 -0.4068
12761TIP3   OH259697   6.301   0.499   3.144 -0.4808  0.8465  0.0769
12761TIP3    H159698   6.220   0.454   3.119  0.0457  0.1454 -0.3991
12761TIP3    H259699   6.291   0.587   3.107  0.5230 -0.3010 -3.3756
12762TIP3   OH259700   4.427   6.332  11.828  0.4618 -0.0876 -0.4868
12762TIP3    H159701   4.367   6.380  11.885  0.3532 -0.4874 -0.2621
12762TIP3    H259702   4.508   6.327  11.879  0.8587  0.8916 -0.9915
12763TIP3   OH259703   1.162   4.356   4.057  0.2838  0.6234 -0.3686
12763TIP3    H159704   1.250   4.367   4.093  0.0886  0.2937  0.2186
12763TIP3    H259705   1.173   4.296   3.984  0.4340 -0.0362  0.1864
12764TIP3   OH259706   6.779   4.830  12.016 -0.3483 -0.7626 -0.2655
12764TIP3    H159707   6.846   4.836  11.948 -1.4002  1.5322 -1.2191
12764TIP3    H259708   6.708   4.885  11.985 -0.8476  0.5196  2.7388
12765TIP3   OH259709   4.202   2.224  16.617 -0.4069 -0.3692 -1.1442
12765TIP3    H159710   4.220   2.316  16.597  1.1714 -0.5171 -0.5604
12765TIP3    H259711   4.206   2.219  16.713  2.5146 -1.5205 -1.1998
12766TIP3   OH259712   2.821   3.609  15.852 -0.3500  0.0729 -0.0936
12766TIP3    H159713   2.882   3.683  15.846  0.4076 -0.5845 -0.8022
12766TIP3    H259714   2.809   3.595  15.946 -0.5288  1.1148  0.0435
12767TIP3   OH259715   4.274   3.020   5.915 -0.8563  0.5405  0.6684
12767TIP3    H159716   4.363   3.053   5.929 -0.7171  0.6466 -0.3651
12767TIP3    H259717   4.285   2.945   5.856 -1.3414 -0.2643  1.5689
12768TIP3   OH259718   5.165   4.410   3.673  0.4497 -0.0093  0.3891
12768TIP3    H159719   5.093   4.353   3.645  2.4879 -2.1239 -0.8630
12768TIP3    H259720   5.227   4.408   3.600  2.2256  0.9681  1.7986
12769TIP3   OH259721   1.953   3.041  12.213 -0.0056  0.4848 -0.3307
12769TIP3    H159722   1.891   3.063  12.144 -1.8835 -1.5631  0.6034
12769TIP3    H259723   1.947   3.113  12.275  0.1389  1.3053 -1.2365
12770TIP3   OH259724   4.493   3.968  15.365 -0.4892  0.3638 -0.1983
12770TIP3    H159725   4.478   3.912  15.441 -0.7311  3.7489  2.4659
12770TIP3    H259726   4.405   3.997  15.339 -0.3130  0.1905 -1.0066
12771TIP3   OH259727   1.372   4.577   1.493 -0.1173 -0.2852 -0.7970
12771TIP3    H159728   1.306   4.621   1.547  0.0854 -1.2069  0.2339
12771TIP3    H259729   1.369   4.624   1.409 -1.0784  0.5954 -0.3002
12772TIP3   OH259730   5.755   5.585  10.981 -0.6239  0.8245 -0.2765
12772TIP3    H159731   5.767   5.600  10.887 -1.2632 -1.9735 -0.9026
12772TIP3    H259732   5.835   5.538  11.007 -1.0328  0.4275  0.2682
12773TIP3   OH259733   3.552   1.040  15.507  0.4563 -0.0089  0.2365
12773TIP3    H159734   3.647   1.030  15.492  0.7632  1.9481  0.6953
12773TIP3    H259735   3.533   1.131  15.483 -0.6898  0.6424  3.2144
12774TIP3   OH259736   3.334   4.188   4.337  0.0992  0.0798  0.8364
12774TIP3    H159737   3.391   4.259   4.307  0.7034 -0.6404  0.2042
12774TIP3    H259738   3.258   4.192   4.279  0.4610 -0.2181  0.3312
12775TIP3   OH259739   1.452   6.361   2.733 -0.5897 -0.0668  0.1628
12775TIP3    H159740   1.516   6.337   2.801 -1.1589 -0.0657  0.7043
12775TIP3    H259741   1.480   6.310   2.656  0.1394  0.0317  0.3483
12776TIP3   OH259742   3.557   4.771  13.509  0.9940 -0.0669 -0.1509
12776TIP3    H159743   3.574   4.721  13.429  0.3142 -1.0674  0.3166
12776TIP3    H259744   3.624   4.839  13.509  1.8345 -0.8673 -0.8932
12777TIP3   OH259745   6.511   3.889  16.733  0.7270  0.3328 -0.3406
12777TIP3    H159746   6.458   3.831  16.678  1.6346  0.1537 -1.0440
12777TIP3    H259747   6.576   3.831  16.773  1.6629  0.8410 -1.0729
12778TIP3   OH259748   3.393   4.513  15.791 -0.0423 -0.4367  0.3201
12778TIP3    H159749   3.397   4.511  15.695 -3.1731  1.4588  0.0036
12778TIP3    H259750   3.359   4.427  15.815 -2.9465  0.3020 -0.7139
12779TIP3   OH259751   0.747   5.888   4.568 -0.9366  0.3833 -0.4066
12779TIP3    H159752   0.825   5.842   4.538  0.4919  0.8271  2.2922
12779TIP3    H259753   0.709   5.831   4.634 -1.1392  1.4790  0.4559
12780TIP3   OH259754   0.885   3.086  14.195 -0.0660 -0.0525 -0.2164
12780TIP3    H159755   0.872   3.144  14.121 -1.5592 -0.6510 -0.4590
12780TIP3    H259756   0.896   3.144  14.270  3.1909  0.6139 -1.0749
12781TIP3   OH259757   1.224   5.366  11.954 -0.0295  0.4614 -0.4066
12781TIP3    H159758   1.270   5.309  11.893 -0.0648 -2.7532  2.2828
12781TIP3    H259759   1.133   5.336  11.950 -1.0874  3.4153 -2.0285
12782TIP3   OH259760   6.536   5.645  13.489 -0.0948  0.2513 -0.3424
12782TIP3    H159761   6.533   5.715  13.554 -1.4475  0.5553 -0.6935
12782TIP3    H259762   6.609   5.668  13.432  1.1783 -0.0715  1.0988
12783TIP3   OH259763   3.313   2.853  16.757  0.2460 -0.0114  0.0827
12783TIP3    H159764   3.259   2.786  16.799  0.3893 -0.4380 -0.4040
12783TIP3    H259765   3.376   2.878  16.825 -0.7704  0.7386  0.7597
12784TIP3   OH259766   4.179   3.577  13.565  0.1795 -0.3521  0.6435
12784TIP3    H159767   4.214   3.489  13.582 -1.5001 -0.9512  1.2426
12784TIP3    H259768   4.151   3.574  13.473  1.1639 -0.0605  0.3308
12785TIP3   OH259769   3.146   4.870   0.695 -0.1605 -0.1632 -0.0029
12785TIP3    H159770   3.167   4.820   0.616 -0.6122  0.2211 -0.3706
12785TIP3    H259771   3.089   4.813   0.746  0.0167 -0.3539 -0.0140
12786TIP3   OH259772   3.001   5.297  13.213 -0.0152 -0.3511  0.1445
12786TIP3    H159773   2.976   5.299  13.305  2.4767  1.7647  0.8855
12786TIP3    H259774   2.923   5.329  13.166 -1.0822 -0.8122  1.5304
12787TIP3   OH259775   2.525   3.114  16.374  0.5332  0.1308  0.1391
12787TIP3    H159776   2.449   3.171  16.370  0.4483  0.0561  0.6264
12787TIP3    H259777   2.592   3.160  16.323  0.5881  0.8569  0.8429
12788TIP3   OH259778   2.131   6.614   1.222  0.4320 -0.0098  0.1548
12788TIP3    H159779   2.055   6.667   1.196  0.0997 -0.7890 -0.5260
12788TIP3    H259780   2.206   6.657   1.181  0.4043  0.9402  1.0810
12789TIP3   OH259781   3.128   0.958  11.816  0.3462  0.1764  0.4578
12789TIP3    H159782   3.064   0.958  11.887 -0.6348 -0.1303 -0.4025
12789TIP3    H259783   3.165   1.046  11.816 -1.0933  0.8030  0.0877
12790TIP3   OH259784   6.656   4.525  14.004  0.0173 -0.1757  0.2326
12790TIP3    H159785   6.584   4.582  14.032 -2.1999  1.2187 -6.4103
12790TIP3    H259786   6.730   4.584  13.992  0.1117 -0.2399  0.4903
12791TIP3   OH259787   6.504   4.915   6.192 -0.4842 -0.0011  0.0918
12791TIP3    H159788   6.523   5.006   6.170  0.6358 -0.4649 -0.9663
12791TIP3    H259789   6.409   4.911   6.199 -0.5067  1.4633  1.1820
12792TIP3   OH259790   5.997   4.915   1.025  0.1224  0.1614  0.4114
12792TIP3    H159791   6.077   4.951   0.986 -1.3897  3.4425 -0.0136
12792TIP3    H259792   5.985   4.831   0.981  1.5671  1.1213 -2.0480
12793TIP3   OH259793   5.092   0.556   2.463 -1.1167  0.5012 -0.6249
12793TIP3    H159794   5.130   0.637   2.498 -0.6712 -0.1271  0.3965
12793TIP3    H259795   5.044   0.519   2.537 -1.0122 -0.3605 -0.9826
12794TIP3   OH259796   6.804   2.156   2.864 -0.1031 -0.0535  0.4641
12794TIP3    H159797   6.721   2.169   2.909  0.6172 -1.7201  2.4612
12794TIP3    H259798   6.864   2.218   2.906  1.0244 -2.7979  3.3819
12795TIP3   OH259799   6.418   4.695   5.012 -0.6097 -0.1984 -0.0538
12795TIP3    H159800   6.333   4.664   5.043 -0.8279  0.2656 -0.1782
12795TIP3    H259801   6.477   4.682   5.087 -0.7794 -0.5571  0.0198
12796TIP3   OH259802   3.188   3.927   1.409 -0.0471 -0.2650 -0.1644
12796TIP3    H159803   3.152   3.847   1.369 -1.3045  0.2771 -0.1856
12796TIP3    H259804   3.178   3.994   1.342 -0.5585  0.2714  0.4286
12797TIP3   OH259805   3.134   1.076   1.233  0.0235 -0.2043  0.4247
12797TIP3    H159806   3.109   0.986   1.257  0.0382 -0.9907 -2.2661
12797TIP3    H259807   3.076   1.099   1.160  1.3568  1.2355 -0.2324
12798TIP3   OH259808   3.460   0.625   5.930 -0.0730 -0.0192 -0.2331
12798TIP3    H159809   3.497   0.538   5.921  2.3255  0.8200  0.7210
12798TIP3    H259810   3.455   0.639   6.025 -0.1354  1.0006 -0.3741
12799TIP3   OH259811   3.881   1.050  14.975 -0.2418 -0.5281 -0.0535
12799TIP3    H159812   3.953   0.997  14.941  0.9685  0.3429  1.0388
12799TIP3    H259813   3.853   1.103  14.901 -0.3802 -1.5163 -0.7281
12800TIP3   OH259814   2.101   1.472  14.372  0.1416  0.3564  0.2769
12800TIP3    H159815   2.080   1.539  14.438 -1.9782 -0.2083  0.2447
12800TIP3    H259816   2.070   1.390  14.411 -0.5388 -0.0797 -1.1075
12801TIP3   OH259817   5.436   5.033   4.978  0.0706  0.6182 -1.0631
12801TIP3    H159818   5.350   5.075   4.969  0.0266  0.1611 -3.2077
12801TIP3    H259819   5.496   5.106   4.996 -0.6834  0.9828  0.1348
12802TIP3   OH259820   2.390   4.707   1.080  0.1387 -0.1288  0.5282
12802TIP3    H159821   2.296   4.719   1.092 -0.1837 -1.0435 -0.8729
12802TIP3    H259822   2.415   4.774   1.016  0.2605 -0.4658  0.2190
12803TIP3   OH259823   2.672   5.922  11.702  0.0848  0.2371  0.2708
12803TIP3    H159824   2.603   5.973  11.659 -0.1666 -0.6644 -0.4109
12803TIP3    H259825   2.679   5.842  11.651  2.2892  0.6776 -0.2432
12804TIP3   OH259826   2.047   1.792   1.240 -0.1259 -0.2567  0.2816
12804TIP3    H159827   2.117   1.857   1.251  1.3571 -1.8414  0.6668
12804TIP3    H259828   1.969   1.844   1.220  0.1742  1.9284  3.8829
12805TIP3   OH259829   6.523   0.466   5.362  0.2658 -0.3648  0.1825
12805TIP3    H159830   6.517   0.389   5.419 -3.9834  0.2617  0.8881
12805TIP3    H259831   6.440   0.468   5.315  1.0228  2.7414 -1.2776
12806TIP3   OH259832   6.165   6.345   4.115 -0.0903  0.3159 -0.5255
12806TIP3    H159833   6.108   6.306   4.182 -0.1737  0.4772 -0.5014
12806TIP3    H259834   6.117   6.423   4.086 -0.6908 -0.4857 -1.7446
12807TIP3   OH259835   0.250   3.300   2.321 -0.8373 -0.7472 -0.0632
12807TIP3    H159836   0.300   3.354   2.382  1.1916 -0.3873 -1.9070
12807TIP3    H259837   0.197   3.363   2.272  0.7090 -0.4631 -1.4664
12808TIP3   OH259838   1.163   4.957   2.010  0.5633  0.4078 -0.9519
12808TIP3    H159839   1.096   4.950   2.077 -0.1028 -0.6866 -1.7069
12808TIP3    H259840   1.223   4.885   2.027 -0.4779 -0.8645 -2.4321
12809TIP3   OH259841   1.281   4.572   4.186  0.7421 -0.0897  0.4950
12809TIP3    H159842   1.360   4.582   4.239  0.7119  1.4879  0.2923
12809TIP3    H259843   1.312   4.581   4.096  0.1372  2.6808  0.4607
12810TIP3   OH259844   2.518   5.639   1.704  0.5446 -0.3956 -0.1310
12810TIP3    H159845   2.441   5.669   1.656 -0.6320 -2.8104  0.0983
12810TIP3    H259846   2.580   5.612   1.636  0.6502  0.2301 -0.2938
12811TIP3   OH259847   4.524   2.758   5.273  0.4042  0.0614  0.0925
12811TIP3    H159848   4.501   2.848   5.295  0.8151  0.1547  0.1492
12811TIP3    H259849   4.499   2.707   5.350 -0.1325  0.0748 -0.0663
12812TIP3   OH259850   3.997   0.974  15.868 -0.3438 -0.5209 -0.1945
12812TIP3    H159851   3.956   0.927  15.941 -3.0323  0.4981 -0.9219
12812TIP3    H259852   4.071   1.021  15.907 -1.2419 -0.6028  1.7188
12813TIP3   OH259853   6.741   0.111  13.680  0.1489 -0.0556 -0.7388
12813TIP3    H159854   6.803   0.184  13.683 -0.0498  0.1377 -1.2428
12813TIP3    H259855   6.657   0.149  13.702  0.1908 -0.3036 -0.1362
12814TIP3   OH259856   5.326   5.633   3.155  0.4859  0.1208  0.1504
12814TIP3    H159857   5.420   5.646   3.145  0.2851  1.0150 -0.7198
12814TIP3    H259858   5.291   5.645   3.067 -0.7662  2.7647  0.9307
12815TIP3   OH259859   2.943   0.430  16.021  0.1203  0.1753 -0.4429
12815TIP3    H159860   2.961   0.460  16.110  2.0541  1.9128 -1.3644
12815TIP3    H259861   2.905   0.506  15.977 -0.2806 -0.4983 -1.2844
12816TIP3   OH259862   6.545   0.308   2.034  0.0001  0.1828  0.0907
12816TIP3    H159863   6.584   0.389   2.066  1.1083 -0.4338  0.3309
12816TIP3    H259864   6.452   0.316   2.059  0.2724  0.9603  0.9404
12817TIP3   OH259865   2.934   5.143   5.404  0.2541  0.1472  0.2425
12817TIP3    H159866   2.861   5.136   5.343 -0.7250 -0.6377  1.4421
12817TIP3    H259867   2.925   5.230   5.443 -1.1628 -0.5843  1.6731
12818TIP3   OH259868   5.016   6.446  14.134 -0.4093 -0.0091 -0.1464
12818TIP3    H159869   5.077   6.374  14.145  0.1050  0.1522 -1.6485
12818TIP3    H259870   4.933   6.414  14.170  0.2533 -0.6694  0.8171
12819TIP3   OH259871   3.463   3.427   5.035 -0.0290  0.3042 -0.5844
12819TIP3    H159872   3.505   3.367   5.097  0.4366  1.9787  0.8035
12819TIP3    H259873   3.381   3.452   5.077 -0.8071 -0.2725 -1.7133
12820TIP3   OH259874   6.010   3.362   5.062  0.3313  0.2259 -0.7295
12820TIP3    H159875   5.971   3.347   4.976 -0.9817 -1.0038  0.0319
12820TIP3    H259876   6.098   3.324   5.055 -0.3493 -1.3788 -1.0681
12821TIP3   OH259877   6.362   4.713   0.906 -0.5446 -0.1142  0.1217
12821TIP3    H159878   6.289   4.678   0.854 -0.5797 -0.8929  0.6803
12821TIP3    H259879   6.434   4.720   0.844 -0.7954 -0.3431 -0.2034
12822TIP3   OH259880   6.291   3.182   1.367 -0.0901  0.6450  0.6596
12822TIP3    H159881   6.276   3.243   1.439  1.0257  0.0861  1.3868
12822TIP3    H259882   6.371   3.135   1.390  0.0507  0.1288 -0.7305
12823TIP3   OH259883   4.454   4.892  15.513 -0.1408  0.3282 -0.3879
12823TIP3    H159884   4.402   4.967  15.542  2.2033  2.3632 -1.0647
12823TIP3    H259885   4.448   4.829  15.586 -2.9429  0.6874 -0.2089
12824TIP3   OH259886   6.693   0.231  14.562  0.0138  0.6060  0.0270
12824TIP3    H159887   6.656   0.214  14.648  0.5284  0.3593  0.2053
12824TIP3    H259888   6.715   0.324  14.563  0.3231  0.5322  0.2855
12825TIP3   OH259889   5.891   0.776  12.200 -0.1673  0.1919 -0.3182
12825TIP3    H159890   5.942   0.808  12.275 -0.7443  1.8834 -0.6000
12825TIP3    H259891   5.898   0.681  12.205  1.3626  0.3257  0.7918
12826TIP3   OH259892   2.811   4.062  12.548  0.5090  0.3609  0.1854
12826TIP3    H159893   2.719   4.049  12.569  0.5538 -0.2356  0.0436
12826TIP3    H259894   2.832   3.990  12.487  0.0187  2.7640 -3.1205
12827TIP3   OH259895   1.411   5.075   4.221  0.4643 -0.6288  0.5647
12827TIP3    H159896   1.401   5.100   4.129  1.7815 -0.5125  0.4286
12827TIP3    H259897   1.505   5.079   4.236  0.4030 -2.0070  1.5326
12828TIP3   OH259898   0.550   4.379  13.867 -0.2015 -0.3234 -0.1059
12828TIP3    H159899   0.618   4.389  13.934  0.5811 -0.0872 -0.9224
12828TIP3    H259900   0.481   4.330  13.911  0.1966  0.0197  0.9471
12829TIP3   OH259901   0.440   6.676   1.889  0.4680 -0.6565 -0.2685
12829TIP3    H159902   0.512   6.653   1.948  0.4509  1.2887  0.5798
12829TIP3    H259903   0.374   6.608   1.904  1.3724 -1.4382  0.2809
12830TIP3   OH259904   4.553   6.729  14.501 -0.2621 -0.0409  0.2266
12830TIP3    H159905   4.506   6.651  14.532 -0.0331 -1.2550 -2.2086
12830TIP3    H259906   4.494   6.802  14.521 -1.2257 -1.0204  1.0948
12831TIP3   OH259907   6.650   2.759   6.136  0.5320  0.0312 -0.0742
12831TIP3    H159908   6.557   2.752   6.159 -0.0308 -2.2363 -2.5343
12831TIP3    H259909   6.683   2.830   6.191 -2.6554  0.9810  0.8390
12832TIP3   OH259910   1.978   5.091   3.676  0.1766  0.6547 -0.0011
12832TIP3    H159911   2.053   5.083   3.617  1.0412 -1.0040  1.2345
12832TIP3    H259912   1.932   5.007   3.668 -1.8656  1.7698 -1.0369
12833TIP3   OH259913   6.740   2.536  10.967 -0.4254  0.3210  0.3141
12833TIP3    H159914   6.696   2.592  10.903 -3.4729  0.9225  2.7105
12833TIP3    H259915   6.833   2.560  10.959 -0.8541  1.5147 -2.6407
12834TIP3   OH259916   0.407   4.785   1.260 -0.2751 -0.4645  0.1534
12834TIP3    H159917   0.406   4.822   1.172  0.5238 -0.6148  0.0724
12834TIP3    H259918   0.473   4.716   1.257 -0.8435 -1.0432  0.6496
12835TIP3   OH259919   1.043   0.331   5.390 -0.4587 -0.4316 -0.7947
12835TIP3    H159920   1.095   0.338   5.310 -0.0998 -2.1249 -0.7401
12835TIP3    H259921   0.968   0.278   5.366  0.3423 -2.1433  0.2652
12836TIP3   OH259922   3.500   0.547  10.690  0.4940  0.3331  0.4251
12836TIP3    H159923   3.590   0.516  10.699 -0.0392 -1.1965  0.7363
12836TIP3    H259924   3.451   0.500  10.757 -0.8178 -0.0508 -0.7465
12837TIP3   OH259925   2.833   0.175  12.613 -0.3341  0.3403 -0.2166
12837TIP3    H159926   2.887   0.115  12.665 -0.0864 -0.4685 -1.3763
12837TIP3    H259927   2.751   0.127  12.599 -0.6853  0.8535  0.0408
12838TIP3   OH259928   6.730   0.833  14.543 -0.7577 -0.2634  0.3720
12838TIP3    H159929   6.639   0.852  14.567 -0.5277 -0.9347  1.9218
12838TIP3    H259930   6.782   0.889  14.601 -0.1828 -0.4135  0.0095
12839TIP3   OH259931   5.602   0.829   4.003 -0.0850  0.0947 -0.2270
12839TIP3    H159932   5.638   0.916   4.020 -1.6529  0.6660  0.3176
12839TIP3    H259933   5.513   0.833   4.037  0.7163 -2.6682  2.6081
12840TIP3   OH259934   2.457   3.955   0.138  0.4978  0.1674  0.2062
12840TIP3    H159935   2.419   4.028   0.089  0.4293 -0.9236 -1.4638
12840TIP3    H259936   2.386   3.892   0.146  0.9195 -0.2828  0.4244
12841TIP3   OH259937   5.001   5.686   2.709 -0.0205  0.6039  0.2674
12841TIP3    H159938   4.963   5.693   2.796 -0.0691  0.1898  0.2798
12841TIP3    H259939   4.989   5.773   2.671 -2.4047  0.1000 -0.3148
12842TIP3   OH259940   4.545   6.294  10.751 -0.3313 -0.3964  0.0969
12842TIP3    H159941   4.584   6.374  10.786  1.7957 -0.7958 -1.1939
12842TIP3    H259942   4.483   6.325  10.685  0.2456  0.2274 -0.1732
12843TIP3   OH259943   2.025   3.611  15.575 -0.0333  0.4259  0.1411
12843TIP3    H159944   2.023   3.536  15.516  0.6394 -0.1079  0.7695
12843TIP3    H259945   2.073   3.579  15.652 -2.0276  0.6559  1.5674
12844TIP3   OH259946   6.593   5.547  11.055  0.0555 -0.6456 -0.3081
12844TIP3    H159947   6.593   5.575  11.147  2.3807 -0.8455 -0.1701
12844TIP3    H259948   6.527   5.479  11.051 -1.5070  0.7142  0.7244
12845TIP3   OH259949   2.739   1.994  13.548 -0.6170 -0.4776 -0.0330
12845TIP3    H159950   2.795   1.996  13.470  0.8886 -2.2440  0.9189
12845TIP3    H259951   2.691   2.076  13.545  0.9093  0.4281 -1.7254
12846TIP3   OH259952   6.073   3.343   0.635 -0.5769 -0.0642 -0.0389
12846TIP3    H159953   6.058   3.257   0.595 -1.2130  0.5196 -1.0726
12846TIP3    H259954   6.041   3.406   0.571  0.8585  1.0159  0.2523
12847TIP3   OH259955   6.068   5.645  13.622 -0.7103  0.0023 -0.4916
12847TIP3    H159956   6.133   5.620  13.555  0.1211 -0.1444  0.3403
12847TIP3    H259957   6.041   5.561  13.660 -1.6472  0.0392 -1.0487
12848TIP3   OH259958   6.334   5.557   3.418  0.8011 -0.0502 -0.3731
12848TIP3    H159959   6.416   5.582   3.461  0.7161 -0.3221 -0.0490
12848TIP3    H259960   6.359   5.540   3.327  0.8481  1.2672 -0.6284
12849TIP3   OH259961   1.814   5.079  16.010 -0.2991 -0.2487  0.1841
12849TIP3    H159962   1.816   5.091  15.915 -0.2636  1.2513  0.3552
12849TIP3    H259963   1.745   5.014  16.024 -0.7225 -0.0362 -0.8247
12850TIP3   OH259964   2.822   3.428  15.033  0.0101  0.3872 -0.8541
12850TIP3    H159965   2.735   3.389  15.042  0.2258  0.0235 -0.3451
12850TIP3    H259966   2.820   3.470  14.947  0.4391 -2.4553 -2.3773
12851TIP3   OH259967   3.331   1.780  16.893  0.1932  0.4743  0.6123
12851TIP3    H159968   3.367   1.802  16.807 -1.8245  0.5918 -0.2538
12851TIP3    H259969   3.379   1.701  16.919  0.7608  0.3652 -0.6838
12852TIP3   OH259970   1.274   6.198   0.514 -0.0450  0.4464  0.3074
12852TIP3    H159971   1.250   6.174   0.604  1.3457 -0.5566  0.4523
12852TIP3    H259972   1.304   6.289   0.521 -0.1676  0.4534  0.8252
12853TIP3   OH259973   1.050   1.428   2.598 -0.3932  0.0550 -0.0369
12853TIP3    H159974   0.983   1.474   2.548 -2.6061  0.4926  3.0734
12853TIP3    H259975   1.005   1.399   2.677  3.0518  0.1442  2.1303
12854TIP3   OH259976   2.068   4.068   5.948  0.6572  0.3817  0.1978
12854TIP3    H159977   2.079   4.083   5.854  0.5674  1.0224  0.2795
12854TIP3    H259978   1.982   4.027   5.955  0.5278  0.6130  0.0189
12855TIP3   OH259979   1.502   6.807  15.361 -0.2794 -0.0177  0.0720
12855TIP3    H159980   1.469   6.846  15.442 -0.4225  0.8831 -0.3962
12855TIP3    H259981   1.503   6.880  15.299  2.7728  0.1042  0.1030
12856TIP3   OH259982   0.301   0.303   3.533 -0.4093 -0.2151 -0.2871
12856TIP3    H159983   0.372   0.289   3.595 -1.5120  1.7253  1.5481
12856TIP3    H259984   0.240   0.231   3.549  0.2253 -0.8142 -0.5280
12857TIP3   OH259985   1.042   6.563   3.329 -0.2802  1.2173 -0.2989
12857TIP3    H159986   1.112   6.505   3.298  1.0470  3.0902 -1.0060
12857TIP3    H259987   1.077   6.601   3.410 -0.4964  2.1260 -0.6227
12858TIP3   OH259988   4.539   1.036   0.281  0.3042 -0.1206  0.2831
12858TIP3    H159989   4.575   0.981   0.351  1.2460  1.1979  0.8499
12858TIP3    H259990   4.534   1.124   0.318  0.7436  0.6022 -1.2808
12859TIP3   OH259991   6.458   6.802   6.174  0.0017 -0.2929 -0.2013
12859TIP3    H159992   6.391   6.853   6.128  0.4114  0.0681 -0.4001
12859TIP3    H259993   6.530   6.863   6.187  0.5269 -0.8436 -0.5061
12860TIP3   OH259994   1.366   1.599   6.061 -0.4688  0.0975  0.0096
12860TIP3    H159995   1.300   1.652   6.015 -3.3064 -1.3596  2.1232
12860TIP3    H259996   1.429   1.664   6.094 -1.7622  1.7684 -0.6300
12861TIP3   OH259997   2.645   1.630   5.100  0.2349  0.0103  0.3291
12861TIP3    H159998   2.595   1.704   5.064  0.9871 -0.3730 -1.6265
12861TIP3    H259999   2.726   1.629   5.048  0.0142 -2.4976 -0.0526
12862TIP3   OH260000   6.297   2.043   0.865 -0.0781  0.3469  0.0951
12862TIP3    H160001   6.269   1.988   0.791  1.3333  0.5129 -0.5874
12862TIP3    H260002   6.268   2.131   0.841 -1.1604  0.1345  0.5695
12863TIP3   OH260003   0.465   3.293   3.207  0.2953 -0.1440  0.1077
12863TIP3    H160004   0.407   3.226   3.171  0.8886  0.1088 -1.4240
12863TIP3    H260005   0.411   3.371   3.215  0.1102 -0.2493 -0.1140
12864TIP3   OH260006   2.682   5.569   3.542  0.5338  0.4245 -0.2807
12864TIP3    H160007   2.629   5.536   3.470 -0.7409  0.2849  0.6838
12864TIP3    H260008   2.654   5.518   3.618  0.4890  1.8208  0.6911
12865TIP3   OH260009   1.464   2.173  13.602  0.0972  0.0540  0.4862
12865TIP3    H160010   1.529   2.219  13.655  0.7125  0.4345 -0.5674
12865TIP3    H260011   1.386   2.227  13.607  0.7540  1.1441 -0.5747
12866TIP3   OH260012   2.368   2.215   5.197 -0.4463  0.2614  0.2217
12866TIP3    H160013   2.437   2.228   5.261  0.2136 -0.4642 -0.3180
12866TIP3    H260014   2.335   2.303   5.179  1.5106  0.8592 -0.7882
12867TIP3   OH260015   5.793   1.199   0.217 -0.3336  0.1243  0.4608
12867TIP3    H160016   5.796   1.148   0.136 -2.5772 -0.0444  0.4361
12867TIP3    H260017   5.802   1.134   0.287 -0.3405  0.0467  0.3891
12868TIP3   OH260018   0.605   3.979   3.006 -0.0746  0.2021  0.2967
12868TIP3    H160019   0.632   3.887   3.005 -2.5414 -0.6277  1.1022
12868TIP3    H260020   0.564   3.993   2.921 -0.3723  0.3042  0.4528
12869TIP3   OH260021   1.661   0.529  13.916 -0.6909 -0.4562 -0.4485
12869TIP3    H160022   1.728   0.597  13.906 -0.0419 -0.9206  0.6494
12869TIP3    H260023   1.705   0.457  13.961 -1.9078 -0.8105  0.2280
12870TIP3   OH260024   3.958   3.185   2.225  0.1200  0.8079  1.0421
12870TIP3    H160025   3.895   3.232   2.171  0.8631  0.1360 -0.5076
12870TIP3    H260026   3.909   3.110   2.259  0.2256 -0.2584 -0.9447
12871TIP3   OH260027   5.710   1.795   1.213 -0.1957 -0.4711 -0.2981
12871TIP3    H160028   5.758   1.877   1.200 -1.5918  0.6391  1.1046
12871TIP3    H260029   5.620   1.815   1.188 -0.4973 -1.6887 -0.2673
12872TIP3   OH260030   4.354   1.250   1.609 -0.2712  0.3773 -0.2706
12872TIP3    H160031   4.309   1.264   1.526  2.5428 -0.5696 -2.0901
12872TIP3    H260032   4.296   1.193   1.659 -2.0513  1.0091 -1.5342
12873TIP3   OH260033   0.830   1.516  14.405  0.0671 -0.3493  0.1786
12873TIP3    H160034   0.796   1.514  14.494  0.8372  0.2479  0.4908
12873TIP3    H260035   0.837   1.424  14.380  2.1792 -0.6584  1.6561
12874TIP3   OH260036   5.014   4.739   0.625  0.3159  0.1910 -0.3476
12874TIP3    H160037   5.076   4.675   0.660 -0.2251  0.8023  1.8694
12874TIP3    H260038   4.928   4.702   0.646 -0.0230  0.8777 -0.4968
12875TIP3   OH260039   5.733   6.005   6.019 -0.2199 -0.0387  0.1603
12875TIP3    H160040   5.658   5.980   5.965  0.3451 -0.0804 -0.6248
12875TIP3    H260041   5.788   5.927   6.020 -0.5670 -0.2841  1.4196
12876TIP3   OH260042   4.431   1.867   1.609 -0.1347 -0.0510  0.2710
12876TIP3    H160043   4.455   1.912   1.690 -0.3820  2.2695 -0.8576
12876TIP3    H260044   4.350   1.911   1.581  0.0741 -0.6433 -1.3528
12877TIP3   OH260045   5.135   3.759   0.316  0.5231 -0.1212  0.2240
12877TIP3    H160046   5.205   3.738   0.255 -0.8702  2.1577 -2.3953
12877TIP3    H260047   5.172   3.824   0.374  0.5541  1.4246 -1.4450
12878TIP3   OH260048   6.803   2.343  14.206 -0.3591 -0.2151 -1.0251
12878TIP3    H160049   6.791   2.428  14.162  1.3944  0.9950  0.6702
12878TIP3    H260050   6.890   2.349  14.246 -1.0839 -1.9801  0.9712
12879TIP3   OH260051   4.721   4.044  16.623 -0.4405 -0.3384  0.5241
12879TIP3    H160052   4.644   3.995  16.594  0.5648 -1.5146 -0.2826
12879TIP3    H260053   4.691   4.092  16.700 -2.6051  1.0935 -1.0927
12880TIP3   OH260054   4.403   1.730   2.534 -0.1418  0.6428  0.2267
12880TIP3    H160055   4.405   1.712   2.440  0.6742  1.5958  0.0388
12880TIP3    H260056   4.495   1.742   2.557 -0.3768  0.8872  1.0518
12881TIP3   OH260057   4.567   0.750   0.050  0.4775  0.4341 -0.4810
12881TIP3    H160058   4.481   0.778   0.083 -0.5396  0.9400 -3.2711
12881TIP3    H260059   4.621   0.830   0.054 -0.2301  1.0098 -1.7270
12882TIP3   OH260060   4.366   0.167  14.965 -0.4973 -0.4591  0.2145
12882TIP3    H160061   4.286   0.165  15.017  0.0837  0.5006  1.1917
12882TIP3    H260062   4.345   0.116  14.887 -1.5120 -1.6500  1.2159
12883TIP3   OH260063   0.970   3.788   2.206 -0.2604 -0.3348  0.0387
12883TIP3    H160064   0.971   3.800   2.301  1.8084 -0.0725  0.0297
12883TIP3    H260065   0.882   3.813   2.179 -0.1391  2.0837  1.6123
12884TIP3   OH260066   3.643   1.339   4.821  0.1115 -0.2841 -0.1854
12884TIP3    H160067   3.676   1.249   4.831  2.4666  0.3405 -1.5600
12884TIP3    H260068   3.721   1.394   4.830 -1.1300  1.5891 -0.3111
12885TIP3   OH260069   0.955   4.852   1.557 -0.3850 -0.3901 -0.9085
12885TIP3    H160070   0.928   4.944   1.562 -2.1090 -0.9426  1.6419
12885TIP3    H260071   0.960   4.835   1.463 -1.4661  1.9184 -1.4770
12886TIP3   OH260072   5.362   6.136   3.595 -0.1967 -0.1867 -0.3277
12886TIP3    H160073   5.365   6.042   3.578 -1.7516 -0.1427 -1.0517
12886TIP3    H260074   5.330   6.142   3.686  1.2902 -0.3470  0.2303
12887TIP3   OH260075   2.118   5.378  13.984 -0.4009 -0.2102  0.1017
12887TIP3    H160076   2.201   5.331  13.976  0.7578  1.7992 -0.3209
12887TIP3    H260077   2.117   5.439  13.910 -1.6658  0.6884  0.8185
12888TIP3   OH260078   0.723   6.225  13.005 -0.1734 -0.6289  0.3376
12888TIP3    H160079   0.783   6.200  12.935 -0.5310 -1.4347  0.3049
12888TIP3    H260080   0.724   6.321  13.005  0.9020 -0.6282  0.1660
12889TIP3   OH260081   1.106   4.897  16.239  0.0431 -0.1817  0.2922
12889TIP3    H160082   1.056   4.876  16.160  1.0913 -1.1666 -0.1412
12889TIP3    H260083   1.186   4.939  16.206 -0.5490  1.5980  0.9839
12890TIP3   OH260084   4.030   6.014   1.950 -0.5531 -0.1716  0.1025
12890TIP3    H160085   3.989   5.966   2.022  0.9978 -0.7111  0.6908
12890TIP3    H260086   4.034   5.951   1.878  1.1875 -0.9121  0.7705
12891TIP3   OH260087   0.573   0.751   1.803  0.5472  0.3456 -0.0112
12891TIP3    H160088   0.495   0.697   1.790  0.7575 -0.0168  0.1806
12891TIP3    H260089   0.633   0.693   1.851  0.4313  1.0654  1.0327
12892TIP3   OH260090   4.482   0.876  16.583  0.0835  0.0280 -0.0666
12892TIP3    H160091   4.506   0.823  16.507  4.1132  0.9121  0.3592
12892TIP3    H260092   4.516   0.828  16.658  2.4516  2.2643  0.4571
12893TIP3   OH260093   0.167   2.597  13.116 -0.9569 -0.1145  0.0201
12893TIP3    H160094   0.258   2.580  13.137 -0.3826  1.3194 -1.1055
12893TIP3    H260095   0.146   2.534  13.046 -1.6150 -2.0609  1.8618
12894TIP3   OH260096   3.664   1.411  12.694 -0.0822 -0.3626 -0.7557
12894TIP3    H160097   3.710   1.394  12.776  0.0289  1.0338 -0.5075
12894TIP3    H260098   3.610   1.333  12.681 -0.1020 -0.6174  0.6391
12895TIP3   OH260099   6.580   2.317   1.139  0.2905  0.4217 -0.2479
12895TIP3    H160100   6.610   2.407   1.135  0.5755  0.3681  0.5391
12895TIP3    H260101   6.571   2.290   1.047  0.5093  1.1421 -0.4835
12896TIP3   OH260102   3.848   0.310   2.508  0.1529 -0.1834  0.1336
12896TIP3    H160103   3.768   0.338   2.464 -1.6016 -1.7232  2.1364
12896TIP3    H260104   3.887   0.390   2.542  0.4645  0.7886 -2.3387
12897TIP3   OH260105   6.032   1.318   2.125  0.7970 -0.4356  0.5333
12897TIP3    H160106   6.067   1.258   2.060  0.1975  0.0365 -0.2418
12897TIP3    H260107   5.946   1.342   2.092  1.9403  2.7651 -0.4873
12898TIP3   OH260108   3.916   1.436  12.134  0.3315 -0.4347  0.4964
12898TIP3    H160109   3.978   1.433  12.062 -1.5096 -0.7683 -1.1779
12898TIP3    H260110   3.895   1.344  12.152  1.3558 -0.3893  2.0172
12899TIP3   OH260111   3.616   2.684  10.642 -0.1531 -0.0824 -0.2568
12899TIP3    H160112   3.699   2.732  10.638  0.3037 -0.6030  1.7166
12899TIP3    H260113   3.641   2.596  10.671 -1.2293 -0.7643 -1.3195
12900TIP3   OH260114   2.438   2.959   1.716 -0.4882 -0.2372  0.1388
12900TIP3    H160115   2.392   3.039   1.742  1.5278  0.9019  0.3840
12900TIP3    H260116   2.408   2.942   1.626  0.2247  1.7458 -0.5293
12901TIP3   OH260117   2.612   2.920  15.393 -0.3994 -0.2087  0.2432
12901TIP3    H160118   2.626   3.015  15.396  0.3040 -0.2309 -1.4565
12901TIP3    H260119   2.627   2.892  15.483 -0.7732  1.3062  0.8126
12902TIP3   OH260120   2.505   1.655   3.272  0.0913  0.7435  0.6078
12902TIP3    H160121   2.502   1.658   3.176  1.1971  3.1151  0.5623
12902TIP3    H260122   2.417   1.628   3.298 -0.9340  2.1856 -1.0795
12903TIP3   OH260123   2.252   6.170   2.458  0.3861 -0.0369 -0.4806
12903TIP3    H160124   2.228   6.247   2.510  1.8833  0.9925 -1.2372
12903TIP3    H260125   2.192   6.102   2.487 -2.3334  1.9008 -1.1314
12904TIP3   OH260126   6.177   6.413  13.273 -0.0526  0.2794  0.2261
12904TIP3    H160127   6.250   6.357  13.298  0.1259 -0.1607 -1.1892
12904TIP3    H260128   6.169   6.476  13.345  0.8791 -0.4575  1.0041
12905TIP3   OH260129   4.401   3.756  13.512 -0.0890 -0.3113 -0.4065
12905TIP3    H160130   4.322   3.705  13.531 -0.5012  0.1762 -0.7757
12905TIP3    H260131   4.454   3.750  13.591 -0.9925  0.2543  0.2564
12906TIP3   OH260132   0.105   4.966  16.194  0.2901 -0.3188 -0.3522
12906TIP3    H160133   0.030   4.948  16.250  1.2193 -2.0770  0.4198
12906TIP3    H260134   0.167   5.012  16.250  0.2470  0.1367 -0.6709
12907TIP3   OH260135   5.320   5.230  13.301  0.3592  0.4566 -0.3082
12907TIP3    H160136   5.390   5.241  13.237  0.5375 -1.5097 -0.5102
12907TIP3    H260137   5.282   5.144  13.281 -2.0106  1.3674 -0.0908
12908TIP3   OH260138   0.958   5.650  14.246  0.2316  0.6251 -0.1978
12908TIP3    H160139   1.040   5.600  14.254 -1.7394 -2.8522  0.6550
12908TIP3    H260140   0.922   5.652  14.334 -1.0848  1.1796 -0.7187
12909TIP3   OH260141   6.468   5.185   6.026  0.4398  0.2142  0.4466
12909TIP3    H160142   6.502   5.264   6.068  0.5441 -0.5822  1.9350
12909TIP3    H260143   6.539   5.156   5.969  0.6834  0.7784  0.4552
12910TIP3   OH260144   1.619   5.593  12.173 -0.1533 -0.3238  0.2605
12910TIP3    H160145   1.599   5.677  12.133  0.3300  0.9135  2.4528
12910TIP3    H260146   1.558   5.531  12.132 -0.9574  1.1969 -0.9351
12911TIP3   OH260147   4.716   2.086  15.957  0.0765  0.2197 -0.1178
12911TIP3    H160148   4.649   2.111  15.894  2.6802  0.2369 -3.1052
12911TIP3    H260149   4.683   2.006  15.997 -0.4151 -1.7013 -3.9443
12912TIP3   OH260150   6.074   2.872  14.812  0.1217 -0.1962  0.1841
12912TIP3    H160151   6.046   2.806  14.749 -0.3947  0.0057  0.2009
12912TIP3    H260152   6.011   2.866  14.884 -1.0452  1.5446 -0.6294
12913TIP3   OH260153   5.957   6.416  16.367  0.3099  0.3132  0.4222
12913TIP3    H160154   6.019   6.360  16.414 -0.2736  1.0332  2.1394
12913TIP3    H260155   6.005   6.497  16.352  0.4986  0.0812 -0.2679
12914TIP3   OH260156   3.289   4.324   3.237  0.2649  0.2121 -0.0458
12914TIP3    H160157   3.245   4.312   3.321 -0.2350 -1.2521 -0.4860
12914TIP3    H260158   3.266   4.246   3.186 -0.3472  1.5607 -1.9592
12915TIP3   OH260159   1.738   1.674   0.512  0.0932 -0.3456  0.3779
12915TIP3    H160160   1.746   1.699   0.420  0.5835 -1.6243  0.0391
12915TIP3    H260161   1.661   1.618   0.514 -0.2235  0.1102  0.8487
12916TIP3   OH260162   5.973   1.341   1.375 -0.4624 -0.2294 -0.5628
12916TIP3    H160163   5.918   1.359   1.451 -1.0042  0.2846 -1.0654
12916TIP3    H260164   5.911   1.316   1.306  0.1053 -1.8448 -0.5184
12917TIP3   OH260165   4.442   3.518   6.531  0.1491  0.1965  0.6322
12917TIP3    H160166   4.492   3.442   6.500  0.2430  0.4924  0.0487
12917TIP3    H260167   4.486   3.593   6.492  0.3651  0.5945  1.6252
12918TIP3   OH260168   3.020   6.100  11.638 -0.3495  0.2630 -0.7431
12918TIP3    H160169   3.000   6.107  11.732  0.4016  0.4045 -0.5839
12918TIP3    H260170   2.950   6.148  11.595 -0.0447  1.2520 -0.1765
12919TIP3   OH260171   0.751   4.376  11.923 -0.2396  0.6695  0.0117
12919TIP3    H160172   0.830   4.428  11.911  0.8254 -0.9438 -0.4082
12919TIP3    H260173   0.680   4.439  11.924  1.1902  2.4079  2.5247
12920TIP3   OH260174   0.062   4.922   0.673  0.2155  0.5590  0.5447
12920TIP3    H160175   0.016   4.978   0.611 -0.3113 -0.0417  0.3835
12920TIP3    H260176   0.032   4.951   0.759  1.1427  1.5648  0.5482
12921TIP3   OH260177   0.352   4.123  14.710  0.5640  0.5674  0.1050
12921TIP3    H160178   0.428   4.160  14.665  1.0079  1.6568  1.6863
12921TIP3    H260179   0.302   4.199  14.740  0.1293 -0.1305  1.2028
12922TIP3   OH260180   1.358   5.023  16.206  0.0917 -0.0622 -0.1480
12922TIP3    H160181   1.295   5.072  16.258 -1.0499 -0.7025 -0.8964
12922TIP3    H260182   1.441   5.035  16.252 -0.4969  1.0575  0.6772
12923TIP3   OH260183   6.210   5.182  12.791 -0.2277 -0.6693  0.2319
12923TIP3    H160184   6.155   5.223  12.724  0.7984  1.7453  0.7684
12923TIP3    H260185   6.291   5.159  12.744 -0.1257 -0.4417  0.2940
12924TIP3   OH260186   3.411   2.589  16.263  0.1907 -0.2648 -0.0843
12924TIP3    H160187   3.389   2.530  16.336  1.0391  0.7110  1.0061
12924TIP3    H260188   3.429   2.673  16.305 -2.3285  1.1922 -1.7296
12925TIP3   OH260189   3.610   0.406   5.851 -0.3926 -0.0553  0.7495
12925TIP3    H160190   3.683   0.456   5.814 -2.3871  1.4953 -1.3457
12925TIP3    H260191   3.651   0.328   5.888  2.2224  0.1219 -1.4528
12926TIP3   OH260192   1.186   1.014  16.655 -0.5213 -0.1749  0.3508
12926TIP3    H160193   1.195   0.939  16.713  1.0175  0.8219  1.4752
12926TIP3    H260194   1.232   0.989  16.575 -1.2337 -0.9298  0.1622
12927TIP3   OH260195   1.506   1.151   6.296  0.1873 -0.1402  0.1645
12927TIP3    H160196   1.569   1.208   6.254 -1.6270  0.4223 -2.0103
12927TIP3    H260197   1.491   1.190   6.382  0.7606  1.2762 -0.3478
12928TIP3   OH260198   4.447   1.743   2.975 -0.1119  0.2690  0.4960
12928TIP3    H160199   4.462   1.702   3.061  0.2903 -0.4228  0.1103
12928TIP3    H260200   4.499   1.823   2.977  1.5675 -0.7626  0.1690
12929TIP3   OH260201   6.567   3.679  10.575 -0.4563  0.0451 -0.4560
12929TIP3    H160202   6.512   3.638  10.641  0.3941  2.0244  1.6254
12929TIP3    H260203   6.656   3.653  10.599 -0.1247  0.9263 -0.6902
12930TIP3   OH260204   4.428   0.436   3.085  0.2025 -1.2249 -0.0618
12930TIP3    H160205   4.412   0.383   3.163 -0.9582 -0.4914  0.2319
12930TIP3    H260206   4.403   0.380   3.012 -2.8572 -0.5285  0.3335
12931TIP3   OH260207   5.100   4.754   5.456  0.0349 -0.4738  0.1157
12931TIP3    H160208   5.033   4.811   5.417 -1.4567 -0.7306  2.1536
12931TIP3    H260209   5.085   4.761   5.551  2.3740 -1.2183  0.5984
12932TIP3   OH260210   1.382   5.148  16.805  0.1680  0.1681 -0.3858
12932TIP3    H160211   1.400   5.131  16.897  1.5312 -1.9713 -0.9783
12932TIP3    H260212   1.463   5.186  16.771 -0.9171  2.6749 -0.3831
12933TIP3   OH260213   2.310   4.206   1.239 -0.0206 -0.5366 -0.1036
12933TIP3    H160214   2.402   4.189   1.217 -0.3398 -0.5195 -1.5824
12933TIP3    H260215   2.293   4.293   1.204  0.1773  0.7920  2.8373
12934TIP3   OH260216   3.108   3.774   2.100 -0.1453  0.1450 -0.4550
12934TIP3    H160217   3.153   3.705   2.150  0.9347  1.4348  0.4280
12934TIP3    H260218   3.168   3.794   2.028 -1.7565 -1.8105 -2.5069
12935TIP3   OH260219   1.589   3.425  13.421 -0.3154  0.1091 -0.4502
12935TIP3    H160220   1.557   3.394  13.336  0.5719 -0.3591 -0.6294
12935TIP3    H260221   1.574   3.351  13.480  2.5878 -1.1166 -1.0610
12936TIP3   OH260222   5.236   6.151   0.434  0.5908 -0.5082 -0.0637
12936TIP3    H160223   5.189   6.214   0.380 -0.5919 -1.4296 -0.1545
12936TIP3    H260224   5.318   6.135   0.388  0.2367 -0.1660 -0.8206
12937TIP3   OH260225   0.921   4.236  15.565  0.3910  0.5811  0.4302
12937TIP3    H160226   0.883   4.307  15.513  1.3985  1.6382  1.0905
12937TIP3    H260227   0.926   4.271  15.654  0.3165 -0.5589  0.9032
12938TIP3   OH260228   0.765   1.255  10.720 -0.0681  0.8509 -0.5386
12938TIP3    H160229   0.729   1.214  10.641 -1.2947  0.4110  0.2109
12938TIP3    H260230   0.837   1.197  10.746 -1.7590 -0.9276  0.4913
12939TIP3   OH260231   3.126   1.557  12.283  0.1405  0.1662  0.0423
12939TIP3    H160232   3.060   1.489  12.273 -1.8976  2.0124  0.1742
12939TIP3    H260233   3.206   1.519  12.246 -1.3688 -1.6139 -1.5829
12940TIP3   OH260234   0.084   5.287   4.242 -0.2886  0.3631 -0.3961
12940TIP3    H160235   0.147   5.339   4.192 -1.9566  4.9789  1.7130
12940TIP3    H260236   0.021   5.257   4.177  0.2703  1.7923 -1.6532
12941TIP3   OH260237   5.673   3.441  11.605 -0.2573  0.2439  0.2484
12941TIP3    H160238   5.695   3.425  11.513  1.3469  2.1994  0.2390
12941TIP3    H260239   5.736   3.388  11.654  0.5105  1.0947  0.2024
12942TIP3   OH260240   1.895   5.990  12.648  0.3770  0.0867 -0.3942
12942TIP3    H160241   1.986   5.960  12.649  0.6222  0.7945 -0.9212
12942TIP3    H260242   1.882   6.032  12.733  0.1650 -1.0846  0.1724
12943TIP3   OH260243   3.608   0.185  11.052  0.2654 -0.0895  0.3844
12943TIP3    H160244   3.525   0.214  11.090 -1.5676  0.0268 -3.2867
12943TIP3    H260245   3.660   0.264  11.043  0.5282 -0.0474  2.0168
12944TIP3   OH260246   4.022   1.602  14.723  0.1577 -0.1301  0.2202
12944TIP3    H160247   3.957   1.584  14.655 -0.9362  3.5127  0.1099
12944TIP3    H260248   3.996   1.546  14.796 -2.6813  0.6386 -0.0806
12945TIP3   OH260249   4.524   3.970   2.738  0.1466  0.8255 -0.4970
12945TIP3    H160250   4.496   4.022   2.663 -1.7042  0.6180  0.0077
12945TIP3    H260251   4.460   3.900   2.744  1.3687 -0.2877  0.1375
12946TIP3   OH260252   4.485   3.228   1.453  0.5266 -0.0839  0.2840
12946TIP3    H160253   4.458   3.236   1.545  3.6254  0.7329  1.2358
12946TIP3    H260254   4.578   3.205   1.457  0.8902  0.4906 -2.6647
12947TIP3   OH260255   0.129   5.987  16.987  0.9590 -0.4683 -0.2554
12947TIP3    H160256   0.217   5.950  16.998  1.0095 -0.1602  0.4340
12947TIP3    H260257   0.125   6.059  17.051  0.1528 -0.5749 -0.1731
12948TIP3   OH260258   2.245   0.382  11.580 -0.1284  0.1545  0.3419
12948TIP3    H160259   2.338   0.399  11.594  0.3548 -1.5091 -0.5374
12948TIP3    H260260   2.237   0.370  11.485 -1.1902  0.0895  0.4316
12949TIP3   OH260261   4.381   4.126   2.929  0.0231 -0.7518 -0.2294
12949TIP3    H160262   4.457   4.071   2.914  0.3049 -0.2738 -0.6002
12949TIP3    H260263   4.416   4.216   2.928 -0.0929 -0.6305  2.3513
12950TIP3   OH260264   0.052   4.862  15.105  0.0094  0.4172 -0.2207
12950TIP3    H160265  -0.001   4.797  15.061 -0.1828  0.3643  0.0859
12950TIP3    H260266   0.012   4.946  15.082 -1.1465  0.2987  1.2364
12951TIP3   OH260267   6.006   3.108  15.230 -0.8766 -0.5391  0.3415
12951TIP3    H160268   6.070   3.142  15.292  0.3556 -2.0864 -0.0188
12951TIP3    H260269   6.008   3.171  15.157  1.5874 -1.4189 -0.4615
12952TIP3   OH260270   5.230   4.801  10.753  0.0071 -0.5540 -0.0425
12952TIP3    H160271   5.152   4.748  10.734  0.5292 -2.3369  2.2812
12952TIP3    H260272   5.221   4.877  10.696 -2.8350 -1.2276 -0.6934
12953TIP3   OH260273   5.816   0.860   1.689  0.6896  0.0521  0.3720
12953TIP3    H160274   5.813   0.955   1.680  0.8286  0.1452  1.1920
12953TIP3    H260275   5.846   0.829   1.603  0.7758  0.7544  0.1373
12954TIP3   OH260276   0.296   1.000   1.683  0.4898 -0.6078  0.0713
12954TIP3    H160277   0.322   1.013   1.774 -2.1020  0.8004  0.7008
12954TIP3    H260278   0.261   1.085   1.655 -1.8400 -1.8618 -1.1215
12955TIP3   OH260279   2.499   6.600   3.350 -0.4351 -0.0506 -0.3898
12955TIP3    H160280   2.534   6.587   3.438 -1.1836 -1.3230 -0.2532
12955TIP3    H260281   2.577   6.609   3.295  0.0491  0.1657  0.3150
12956TIP3   OH260282   0.118   2.585  13.432 -0.1681  0.4610  0.5133
12956TIP3    H160283   0.069   2.582  13.350  0.4609  2.3107  0.0207
12956TIP3    H260284   0.055   2.560  13.499 -1.3907  1.3463 -0.2706
12957TIP3   OH260285   6.119   6.480   0.964 -0.4643 -0.3450  0.2184
12957TIP3    H160286   6.059   6.445   0.898 -0.9361  1.6613 -0.4842
12957TIP3    H260287   6.067   6.546   1.011  0.6264  0.0338  0.9195
12958TIP3   OH260288   3.001   6.645   5.683 -0.1646  0.1467  0.3027
12958TIP3    H160289   3.022   6.552   5.684 -1.5760 -0.2015  0.0417
12958TIP3    H260290   2.938   6.656   5.755 -0.1012  0.8804  0.2551
12959TIP3   OH260291   3.881   2.045  16.297  0.2490 -0.6938 -0.5534
12959TIP3    H160292   3.964   2.093  16.303  0.7569 -1.4141 -1.5184
12959TIP3    H260293   3.891   1.973  16.359  0.5230 -1.0184 -0.9663
12960TIP3   OH260294   0.339   4.418   2.336  0.1234  0.0766 -0.0497
12960TIP3    H160295   0.410   4.365   2.299  0.8068  1.4233 -0.7550
12960TIP3    H260296   0.263   4.361   2.333  0.5276 -0.4484 -2.0487
12961TIP3   OH260297   6.815   2.623   4.394  0.0964  0.7544  0.0343
12961TIP3    H160298   6.864   2.616   4.312 -0.4573  0.3349 -0.2710
12961TIP3    H260299   6.845   2.706   4.433  1.2857  0.3448  0.0322
12962TIP3   OH260300   5.718   4.318   1.827 -0.5185  0.8533  0.6132
12962TIP3    H160301   5.700   4.266   1.749 -0.6679  1.1506  0.4462
12962TIP3    H260302   5.647   4.383   1.829 -2.9598 -1.5628  3.1792
12963TIP3   OH260303   4.708   4.098  15.229  0.1940 -0.1185 -0.0913
12963TIP3    H160304   4.675   4.168  15.174  1.5302 -0.8681 -1.9523
12963TIP3    H260305   4.630   4.053  15.261 -0.6434  0.3832 -1.3517
12964TIP3   OH260306   3.264   2.513  14.684  0.3344 -1.0136 -0.2220
12964TIP3    H160307   3.321   2.508  14.607  0.7325 -1.5407  0.0989
12964TIP3    H260308   3.250   2.607  14.697 -0.6155 -0.9494 -1.5633
12965TIP3   OH260309   2.212   0.479  10.845 -0.2002  0.3696 -0.5254
12965TIP3    H160310   2.165   0.552  10.885  0.8744  0.3608  0.8308
12965TIP3    H260311   2.301   0.511  10.832  0.5181 -0.9342  0.8815
12966TIP3   OH260312   1.450   0.636   0.988  0.0688 -0.3736 -0.5743
12966TIP3    H160313   1.402   0.592   0.917 -1.6717 -0.5015  0.6206
12966TIP3    H260314   1.401   0.717   1.003  0.2027 -0.5072  0.6944
12967TIP3   OH260315   2.345   0.820  12.708 -0.4106  0.1374  0.6789
12967TIP3    H160316   2.300   0.762  12.769  0.1977 -1.1999 -0.0823
12967TIP3    H260317   2.281   0.835  12.638 -0.3218 -0.2486  0.5096
12968TIP3   OH260318   2.951   6.369  16.601  0.2001  0.7086  0.2512
12968TIP3    H160319   2.988   6.438  16.545 -1.2652  1.5792  0.2772
12968TIP3    H260320   2.865   6.351  16.563 -0.0428 -0.0602  1.1155
12969TIP3   OH260321   1.810   3.455  16.467  0.3218 -0.4408  0.0175
12969TIP3    H160322   1.904   3.469  16.463  0.4522 -0.7925  1.4276
12969TIP3    H260323   1.800   3.360  16.473 -0.1414 -0.4304 -0.5074
12970TIP3   OH260324   4.475   2.417   0.734 -0.4622  0.2235  0.4222
12970TIP3    H160325   4.557   2.415   0.783 -1.3196  2.3979  2.1380
12970TIP3    H260326   4.463   2.510   0.712 -1.1179 -0.4134 -2.2594
12971TIP3   OH260327   1.360   5.856   2.874 -0.0882  0.3324 -0.1929
12971TIP3    H160328   1.269   5.885   2.878 -0.3621 -0.6022  1.2777
12971TIP3    H260329   1.360   5.771   2.919  1.5275  0.3862 -0.0275
12972TIP3   OH260330   6.726   4.722   2.521 -0.7515  0.2710 -0.9151
12972TIP3    H160331   6.802   4.775   2.543 -2.1674  1.3242  1.8542
12972TIP3    H260332   6.730   4.712   2.426  2.5946  0.5752 -0.9141
12973TIP3   OH260333   3.044   1.068  13.964  0.0933 -0.1564 -0.2131
12973TIP3    H160334   2.994   1.134  13.917 -1.0058 -0.8302 -0.0191
12973TIP3    H260335   3.061   1.106  14.050  0.4447  0.3133 -0.4874
12974TIP3   OH260336   2.737   3.293   0.386 -0.5096 -0.6301  0.2804
12974TIP3    H160337   2.732   3.301   0.291  0.6625  0.6048  0.3014
12974TIP3    H260338   2.826   3.265   0.404 -0.4277  0.0933  1.0630
12975TIP3   OH260339   2.735   0.917   4.880  0.0270 -0.9498  0.0007
12975TIP3    H160340   2.716   0.979   4.950 -1.3154 -0.7962 -0.4574
12975TIP3    H260341   2.762   0.971   4.806  0.8244 -1.0642  0.2060
12976TIP3   OH260342   3.711   3.015   0.891 -0.3515  0.1539 -0.0717
12976TIP3    H160343   3.702   2.922   0.874 -2.5869  0.3537 -0.3424
12976TIP3    H260344   3.636   3.036   0.948 -2.0067  2.3526 -2.7825
12977TIP3   OH260345   4.074   3.627   0.393  0.2290  0.0388  0.1518
12977TIP3    H160346   4.134   3.701   0.389 -0.0683  0.2321 -2.1649
12977TIP3    H260347   3.987   3.667   0.393 -0.0120 -0.2467  3.2697
12978TIP3   OH260348   0.213   5.303  16.745  0.0106 -0.0119  0.0611
12978TIP3    H160349   0.244   5.228  16.694 -1.0085 -1.2689  1.2138
12978TIP3    H260350   0.134   5.333  16.699 -1.0443 -1.2939  0.9649
12979TIP3   OH260351   2.112   2.861   2.774  0.6173  0.0363  0.5382
12979TIP3    H160352   2.157   2.825   2.698  1.9878  0.0761  1.2881
12979TIP3    H260353   2.173   2.926   2.808 -1.2548  2.2459 -0.0717
12980TIP3   OH260354   6.262   1.977   5.915 -0.0469 -0.0357  0.6391
12980TIP3    H160355   6.278   2.067   5.944  0.4617  0.1003 -0.0363
12980TIP3    H260356   6.233   1.986   5.824  0.3634 -0.5733  0.4488
12981TIP3   OH260357   0.840   1.398  11.820 -0.3059  0.0232 -0.0736
12981TIP3    H160358   0.787   1.428  11.894  0.0593  1.4150 -0.3474
12981TIP3    H260359   0.845   1.303  11.831  0.6889  0.2810  2.3249
12982TIP3   OH260360   0.498   1.505  16.000  0.0134  0.0310  0.1242
12982TIP3    H160361   0.530   1.561  16.071  2.0396 -0.0213 -0.6741
12982TIP3    H260362   0.430   1.557  15.957 -2.0281 -0.3496  2.6645
12983TIP3   OH260363   4.975   1.959  12.179  0.0822  0.1533  0.5175
12983TIP3    H160364   5.017   2.036  12.217  0.4606 -0.0297  0.4783
12983TIP3    H260365   4.973   1.895  12.250  3.6403 -1.3486 -0.4576
12984TIP3   OH260366   2.302   3.410   4.078 -0.0077 -0.3304 -0.3779
12984TIP3    H160367   2.341   3.337   4.030 -1.5698 -1.2137 -0.3990
12984TIP3    H260368   2.213   3.379   4.099  0.3086  0.3437  2.3147
12985TIP3   OH260369   5.068   3.796   2.691  0.0671 -0.0361 -0.4106
12985TIP3    H160370   5.009   3.722   2.709 -2.0668  1.7361  0.2684
12985TIP3    H260371   5.153   3.766   2.724 -0.5806 -2.3740 -0.6338
12986TIP3   OH260372   5.324   4.723   0.156  0.2973  0.4146 -0.1555
12986TIP3    H160373   5.238   4.714   0.115  0.4226 -1.0771 -0.1201
12986TIP3    H260374   5.380   4.760   0.088 -0.4271  1.7076 -0.0826
12987TIP3   OH260375   3.859   5.079   4.271  0.5197 -0.0607 -0.0773
12987TIP3    H160376   3.826   5.050   4.356  1.3974 -0.9374 -0.0277
12987TIP3    H260377   3.883   5.171   4.285 -1.5611  0.5278 -0.0362
12988TIP3   OH260378   2.654   5.664  15.925  0.7383  0.0619  0.3885
12988TIP3    H160379   2.661   5.644  16.018 -1.5851 -2.0662  0.2192
12988TIP3    H260380   2.707   5.596  15.882  1.0684  0.4874  0.1109
12989TIP3   OH260381   6.128   3.637  14.314 -0.4203  0.1154  0.1491
12989TIP3    H160382   6.202   3.654  14.372  0.9118 -0.0425 -1.4603
12989TIP3    H260383   6.109   3.544  14.326  1.5352 -0.5627 -1.4947
12990TIP3   OH260384   6.206   5.041  13.185 -0.0527  0.1191 -0.3228
12990TIP3    H160385   6.261   4.964  13.201 -1.9301 -1.4356 -1.0413
12990TIP3    H260386   6.192   5.079  13.272 -1.6739 -2.2269  0.5315
12991TIP3   OH260387   6.207   6.364   5.910 -0.6875 -0.6643 -0.5721
12991TIP3    H160388   6.124   6.318   5.896 -2.1522  1.7358 -0.2213
12991TIP3    H260389   6.190   6.425   5.981  1.2750  0.2151 -0.7731
12992TIP3   OH260390   4.974   3.049  14.897 -0.0993  0.2053 -0.2715
12992TIP3    H160391   4.907   3.107  14.933 -1.6010 -0.8326 -1.2664
12992TIP3    H260392   4.957   2.964  14.937  1.5402  0.2153  0.5299
12993TIP3   OH260393   1.487   0.450   6.178 -0.4565 -0.1452  0.1753
12993TIP3    H160394   1.564   0.403   6.145 -0.0385  0.3700  0.4033
12993TIP3    H260395   1.491   0.439   6.273  1.4962  3.0306  0.5996
12994TIP3   OH260396   0.271   0.841  11.546  0.3202  0.2886 -0.2237
12994TIP3    H160397   0.256   0.934  11.534  0.5051  0.3131 -0.2617
12994TIP3    H260398   0.194   0.810  11.593  0.3890  0.5150  0.0400
12995TIP3   OH260399   6.478   1.799   2.382 -0.1034 -0.1240  0.0131
12995TIP3    H160400   6.573   1.801   2.388 -0.1299 -1.0526  1.0685
12995TIP3    H260401   6.455   1.707   2.399 -1.2045  0.1489  0.0973
12996TIP3   OH260402   1.934   0.315   0.969 -0.2184 -0.1316  0.2767
12996TIP3    H160403   1.845   0.344   0.990 -0.0316 -1.0694  2.5940
12996TIP3    H260404   1.990   0.369   1.023  0.7383  0.8638 -1.6025
12997TIP3   OH260405   3.840   4.537   0.736 -0.3818  0.1571  0.0931
12997TIP3    H160406   3.909   4.578   0.788 -0.7667  1.3339 -0.2798
12997TIP3    H260407   3.767   4.599   0.740 -0.8150 -0.2583 -0.9085
12998TIP3   OH260408   1.664   6.784  14.103 -0.7638 -0.4125 -0.3730
12998TIP3    H160409   1.656   6.865  14.054 -0.2788 -0.1470 -0.0255
12998TIP3    H260410   1.574   6.762  14.129 -0.7102  1.3783  1.6892
12999TIP3   OH260411   6.741   4.886   1.385 -0.1169 -0.0197 -0.1243
12999TIP3    H160412   6.676   4.902   1.453  1.5370  0.6290  1.3717
12999TIP3    H260413   6.799   4.961   1.389  0.5893 -0.4434 -1.6217
13000TIP3   OH260414   0.896   4.991   3.692  0.2522 -0.0209  0.7827
13000TIP3    H160415   0.962   4.969   3.757 -1.2822  0.5450  2.6144
13000TIP3    H260416   0.820   5.021   3.743 -1.0507  0.3840 -1.2584
13001TIP3   OH260417   4.089   5.442   2.641 -0.5414 -0.0494 -0.4759
13001TIP3    H160418   4.041   5.485   2.712 -2.3595 -0.9702 -1.0986
13001TIP3    H260419   4.141   5.374   2.684  0.3815  1.0560  0.2233
13002TIP3   OH260420   5.966   4.677  12.938 -0.5772 -0.3945 -0.3378
13002TIP3    H160421   5.970   4.660  12.844  0.0412 -1.9200 -0.0620
13002TIP3    H260422   5.889   4.734  12.949  0.2484  1.1387 -1.9278
13003TIP3   OH260423   5.148   5.495   3.581  0.1118  0.6464 -0.5273
13003TIP3    H160424   5.183   5.567   3.634  0.8510 -0.1020  0.0300
13003TIP3    H260425   5.225   5.446   3.553 -0.4485 -1.1343  0.8514
13004TIP3   OH260426   0.419   3.572  13.621 -0.3129  0.4216  0.2870
13004TIP3    H160427   0.374   3.655  13.602 -0.9260  0.1617  0.5565
13004TIP3    H260428   0.406   3.559  13.715 -0.9139 -0.3673  0.1113
13005TIP3   OH260429   0.689   4.474  12.263  0.2721 -0.1919  0.9011
13005TIP3    H160430   0.768   4.473  12.317  1.3419 -0.7258 -0.6352
13005TIP3    H260431   0.641   4.395  12.290  0.6357 -0.2839  1.2917
13006TIP3   OH260432   6.126   1.555  11.318  0.7029 -0.0922  1.1130
13006TIP3    H160433   6.148   1.527  11.407 -2.8031  0.0054  2.1251
13006TIP3    H260434   6.092   1.476  11.276  0.0094  0.4213  0.6959
13007TIP3   OH260435   2.356   3.619   4.539 -0.4919  0.1351 -0.1555
13007TIP3    H160436   2.268   3.592   4.566 -0.1593 -0.2753  0.5340
13007TIP3    H260437   2.391   3.667   4.614 -0.4936  1.1657 -0.8017
13008TIP3   OH260438   5.794   0.737   4.599  0.5613  0.1309  0.0730
13008TIP3    H160439   5.807   0.644   4.584  0.4746  0.1631 -0.2108
13008TIP3    H260440   5.747   0.768   4.521  0.7543  0.4464  0.0788
13009TIP3   OH260441   5.700   4.904   1.626  0.4159 -0.0434  0.2940
13009TIP3    H160442   5.752   4.928   1.549 -0.2376  1.2132  0.2212
13009TIP3    H260443   5.610   4.927   1.603  0.3133  1.1056  1.7130
13010TIP3   OH260444   3.450   0.638   0.975 -0.2110 -0.2045  0.3233
13010TIP3    H160445   3.358   0.662   0.972 -0.2265 -0.3019 -1.4247
13010TIP3    H260446   3.477   0.655   1.065 -1.6863  0.7151  0.6273
13011TIP3   OH260447   1.366   1.778   4.246  0.0318  0.7377 -0.5159
13011TIP3    H160448   1.341   1.686   4.262  0.5811  0.2850 -2.0839
13011TIP3    H260449   1.287   1.818   4.209  0.3549  0.3630 -1.6609
13012TIP3   OH260450   3.034   3.574   2.348  0.0400 -0.3265 -0.0262
13012TIP3    H160451   2.987   3.656   2.329  0.3851 -0.5466 -2.1575
13012TIP3    H260452   3.018   3.557   2.441  0.5955  2.5358  0.6699
13013TIP3   OH260453   6.529   6.642   3.200  0.8771  0.5080 -0.2581
13013TIP3    H160454   6.574   6.704   3.143 -0.2429 -0.1695 -1.9648
13013TIP3    H260455   6.467   6.695   3.250  1.8105  1.1057  0.2644
13014TIP3   OH260456   5.745   0.826   4.993 -0.2544  0.0206  0.1061
13014TIP3    H160457   5.747   0.880   4.914 -0.7750  0.4793  0.3994
13014TIP3    H260458   5.680   0.868   5.049  0.5039  0.0232  1.0103
13015TIP3   OH260459   1.722   1.846  13.126  0.0245 -0.4244 -0.0817
13015TIP3    H160460   1.686   1.883  13.045 -0.6463 -0.5452  0.1556
13015TIP3    H260461   1.646   1.830  13.181  0.4041 -1.0813  0.2706
13016TIP3   OH260462   3.326   6.605   1.540 -0.2277 -0.2667  0.3894
13016TIP3    H160463   3.304   6.648   1.457  1.1622  0.9779  0.6232
13016TIP3    H260464   3.372   6.525   1.514  0.6177  0.3468 -0.0742
13017TIP3   OH260465   4.172   5.992  13.591 -0.0325  0.2820  0.1251
13017TIP3    H160466   4.192   5.965  13.681  1.6424 -4.6936 -1.4009
13017TIP3    H260467   4.256   6.021  13.556 -0.3304  0.6110 -0.3175
13018TIP3   OH260468   0.257   6.797  14.865 -0.1306  0.3460 -0.3825
13018TIP3    H160469   0.247   6.722  14.806  0.7129  0.3133 -0.4941
13018TIP3    H260470   0.286   6.758  14.948 -0.8188  0.4415 -0.0926
13019TIP3   OH260471   1.806   1.925  11.876  0.5815  0.1773 -0.0823
13019TIP3    H160472   1.803   1.926  11.780 -2.9657  1.6966 -0.0999
13019TIP3    H260473   1.747   1.854  11.901 -0.9425  1.6948  0.8707
13020TIP3   OH260474   2.079   4.934  13.136 -0.0023  0.5453  0.5694
13020TIP3    H160475   2.129   4.893  13.066  0.2528 -0.1126  1.1232
13020TIP3    H260476   2.113   4.895  13.216 -0.6298  0.9207  1.0317
13021TIP3   OH260477   3.394   3.631   2.223 -0.0880  0.2170 -0.0362
13021TIP3    H160478   3.448   3.709   2.241 -0.1417 -0.1032  1.6953
13021TIP3    H260479   3.405   3.576   2.301 -2.2091 -0.2777 -0.0347
13022TIP3   OH260480   6.048   0.604  16.114  0.0837  0.0629 -0.7207
13022TIP3    H160481   5.968   0.554  16.126 -1.3827  1.8506 -2.2708
13022TIP3    H260482   6.047   0.629  16.021  1.6684  1.3556 -0.4404
13023TIP3   OH260483   6.043   5.930  16.677  0.2770 -0.1541  0.7903
13023TIP3    H160484   6.099   5.917  16.753 -0.8610 -1.6516  1.4294
13023TIP3    H260485   5.959   5.891  16.702 -0.2601 -0.2882 -1.0734
13024TIP3   OH260486   3.396   1.377   2.585 -0.0501 -0.0281 -0.3399
13024TIP3    H160487   3.310   1.419   2.585  0.1060  0.2940 -0.2407
13024TIP3    H260488   3.440   1.412   2.662 -0.0163 -0.5866 -0.0987
13025TIP3   OH260489   0.891   6.004  13.903 -0.1070  0.2701 -0.2900
13025TIP3    H160490   0.954   6.018  13.832 -1.1247  1.3493 -1.0335
13025TIP3    H260491   0.945   5.983  13.979  1.0121 -1.0636 -1.3972
13026TIP3   OH260492   0.983   1.283  13.985  0.2086  0.8300  0.0498
13026TIP3    H160493   1.052   1.217  14.000 -2.7871 -2.4970  0.4615
13026TIP3    H260494   0.905   1.232  13.964 -2.9500  4.1325  2.5457
13027TIP3   OH260495   3.813   2.579   3.293 -0.8908  0.3246  0.3808
13027TIP3    H160496   3.820   2.606   3.384  1.6055  0.8434  0.1062
13027TIP3    H260497   3.796   2.661   3.245  0.6468  0.5286  0.1398
13028TIP3   OH260498   6.422   1.039   1.582 -0.0261  0.3481 -0.4917
13028TIP3    H160499   6.417   1.077   1.495 -1.6840 -0.4547 -0.7965
13028TIP3    H260500   6.503   0.988   1.582  1.0111  1.9497 -0.8568
13029TIP3   OH260501   0.834   1.538  15.504  0.2578  0.0194 -0.0298
13029TIP3    H160502   0.762   1.477  15.512  0.4290  0.0577  2.3472
13029TIP3    H260503   0.820   1.603  15.573  2.5548  0.0100  0.5344
13030TIP3   OH260504   0.406   6.272   0.776  0.4174 -0.3727 -0.1240
13030TIP3    H160505   0.383   6.277   0.683 -0.9729 -0.3851  0.1986
13030TIP3    H260506   0.325   6.294   0.822  1.4420  1.0053  1.0952
13031TIP3   OH260507   6.403   5.978  13.906  0.2418  0.3991  0.0517
13031TIP3    H160508   6.469   5.918  13.942  2.5497  2.2209 -0.8130
13031TIP3    H260509   6.445   6.064  13.909 -1.7257  1.5141 -1.5362
13032TIP3   OH260510   0.109   3.406   5.938  0.5104  0.3879 -0.4463
13032TIP3    H160511   0.115   3.501   5.941  4.6535  0.3982 -2.1697
13032TIP3    H260512   0.135   3.383   5.849  1.5926 -2.3738  0.4553
13033TIP3   OH260513   6.269   2.506  16.078 -0.1340 -0.0141  0.1873
13033TIP3    H160514   6.244   2.437  16.016  2.5059 -0.9917  0.0986
13033TIP3    H260515   6.280   2.584  16.023  0.6838 -0.4966 -0.3473
13034TIP3   OH260516   1.431   3.119  13.905  0.0444  0.0527 -0.0491
13034TIP3    H160517   1.424   3.039  13.957 -0.3900 -0.0129 -0.2051
13034TIP3    H260518   1.349   3.123  13.856 -1.3181  2.1807  2.1650
13035TIP3   OH260519   1.859   0.681  15.867  0.1628 -0.4560  0.3104
13035TIP3    H160520   1.832   0.773  15.861  1.7859  0.0680  0.5495
13035TIP3    H260521   1.858   0.661  15.960  0.1914 -0.5633  0.2878
13036TIP3   OH260522   2.338   6.145   4.587 -0.7199 -0.0753 -0.2341
13036TIP3    H160523   2.269   6.144   4.652 -1.8438 -0.8340 -1.4056
13036TIP3    H260524   2.299   6.106   4.508  1.4488 -1.9688 -0.5006
13037TIP3   OH260525   3.714   2.850  14.298 -0.2135  0.5223  0.2359
13037TIP3    H160526   3.807   2.831  14.308 -0.7233 -2.0211  0.7635
13037TIP3    H260527   3.699   2.854  14.204  0.3307  0.3667  0.1424
13038TIP3   OH260528   6.380   0.361   3.985  0.2508 -0.2673  0.1516
13038TIP3    H160529   6.365   0.411   4.065  2.5865 -0.0713  0.5498
13038TIP3    H260530   6.329   0.406   3.918 -1.5370 -0.2765  1.4565
13039TIP3   OH260531   6.360   5.524  15.045  0.6585  0.8977  0.1448
13039TIP3    H160532   6.329   5.483  14.964  0.7248  0.1523  0.4903
13039TIP3    H260533   6.360   5.618  15.026 -0.2551  0.8030 -0.4054
13040TIP3   OH260534   0.761   4.779  11.941 -0.0530  0.2392  0.2745
13040TIP3    H160535   0.689   4.792  11.880 -0.6832 -0.5145  0.8409
13040TIP3    H260536   0.733   4.706  11.996  1.9873 -1.3931 -0.7512
13041TIP3   OH260537   4.712   3.586   0.472  0.0412 -0.4316  0.0040
13041TIP3    H160538   4.695   3.530   0.396  1.6999 -0.2879 -0.5201
13041TIP3    H260539   4.634   3.577   0.526 -1.7643  0.4474 -2.2688
13042TIP3   OH260540   3.204   2.887  15.707 -0.1301  0.2206  0.1285
13042TIP3    H160541   3.116   2.879  15.744  0.1877 -1.7732  0.5542
13042TIP3    H260542   3.262   2.864  15.779  0.7289  0.8842 -0.3356
13043TIP3   OH260543   1.024   1.496   3.784  0.0743  0.5869 -0.1020
13043TIP3    H160544   0.990   1.407   3.794  1.0218  0.4210  2.4447
13043TIP3    H260545   0.947   1.552   3.784 -0.4875 -0.1707 -0.8674
13044TIP3   OH260546   1.662   1.032  10.300  0.3199  0.6250  0.3452
13044TIP3    H160547   1.623   0.967  10.360  0.3048  0.9015  0.6353
13044TIP3    H260548   1.687   0.981  10.223 -0.4175  0.4070  0.2468
13045TIP3   OH260549   1.113   1.187  14.764 -0.1379 -0.3043  0.0074
13045TIP3    H160550   1.134   1.140  14.683  1.2851 -1.4006  0.9557
13045TIP3    H260551   1.198   1.209  14.801 -0.7375 -0.6695  1.6789
13046TIP3   OH260552   2.546   3.433   4.883 -0.0778  0.6464 -0.0529
13046TIP3    H160553   2.630   3.440   4.928  0.2971  2.3292 -0.9278
13046TIP3    H260554   2.565   3.459   4.793 -0.2880 -4.7257 -2.0391
13047TIP3   OH260555   2.537   2.777   3.318  0.1470 -0.2400  0.6827
13047TIP3    H160556   2.629   2.805   3.321 -0.1525  0.8716  0.1812
13047TIP3    H260557   2.494   2.831   3.384 -0.5233  0.8286 -0.5845
13048TIP3   OH260558   2.015   6.459   3.336 -0.2327 -0.2287  0.6167
13048TIP3    H160559   2.044   6.486   3.423 -0.8839  0.3466  0.6574
13048TIP3    H260560   1.965   6.379   3.352  1.6564 -1.5206  0.4982
13049TIP3   OH260561   0.573   6.706   4.203 -0.2237  0.3783  0.7372
13049TIP3    H160562   0.627   6.760   4.260  2.5349 -2.2413  0.8213
13049TIP3    H260563   0.616   6.708   4.118  1.0954 -2.9217  1.1627
13050TIP3   OH260564   4.043   5.309   4.291 -0.4165 -0.1860 -0.0119
13050TIP3    H160565   4.004   5.379   4.343 -0.6343 -0.2863 -0.0377
13050TIP3    H260566   4.089   5.354   4.220  0.5049 -0.0170  0.6765
13051TIP3   OH260567   2.231   2.135   0.334  0.4748 -1.2373 -0.4909
13051TIP3    H160568   2.211   2.139   0.428  0.2181 -1.8870 -0.5098
13051TIP3    H260569   2.305   2.075   0.328  2.7173  1.3412 -0.4007
13052TIP3   OH260570   5.646   6.720   3.662 -0.2659  0.4880 -0.0201
13052TIP3    H160571   5.563   6.765   3.646 -1.0456 -0.5951  0.7780
13052TIP3    H260572   5.622   6.647   3.720  0.8296 -1.2890 -1.6814
13053TIP3   OH260573   5.950   4.896  12.228 -0.3393  0.2814 -0.7638
13053TIP3    H160574   5.904   4.817  12.255 -0.6927  0.9643  0.6894
13053TIP3    H260575   5.882   4.954  12.194  0.0996 -0.6138 -3.4816
13054TIP3   OH260576   4.325   4.168   4.272 -0.2459  0.1293  0.0470
13054TIP3    H160577   4.325   4.240   4.209 -1.3619  1.4954  1.5083
13054TIP3    H260578   4.402   4.117   4.250 -0.5003  0.6298 -2.2960
13055TIP3   OH260579   1.717   0.532   4.507 -0.1862  0.1857 -0.2220
13055TIP3    H160580   1.760   0.605   4.463 -0.2257  0.6359  0.4686
13055TIP3    H260581   1.701   0.468   4.438  2.2636 -0.3432 -0.3708
13056TIP3   OH260582   4.731   4.101   2.863 -0.1508  0.0421  0.7115
13056TIP3    H160583   4.685   4.041   2.803 -0.6366 -0.1595  1.2764
13056TIP3    H260584   4.758   4.174   2.808  0.0673 -0.4904  0.0932
13057TIP3   OH260585   2.977   2.024  13.989 -0.1690  0.2968 -0.2012
13057TIP3    H160586   2.906   2.002  13.928 -0.5404 -0.0910  0.3562
13057TIP3    H260587   2.988   1.945  14.041  0.9427  0.2218 -0.5275
13058TIP3   OH260588   5.232   2.271  13.966  0.4721  0.1218 -0.3169
13058TIP3    H160589   5.258   2.334  13.898 -1.4321  2.6843  1.1659
13058TIP3    H260590   5.286   2.293  14.041 -1.7716  1.6392  0.9468
13059TIP3   OH260591   3.562   1.556   3.342 -0.0709 -0.9280 -0.4151
13059TIP3    H160592   3.484   1.535   3.393 -1.6934  0.2580 -2.2421
13059TIP3    H260593   3.565   1.652   3.343 -0.9601 -0.7481 -3.4652
13060TIP3   OH260594   5.499   4.968   3.672 -0.0478 -0.3170 -0.0249
13060TIP3    H160595   5.560   5.036   3.644  0.5962 -0.6296  0.5909
13060TIP3    H260596   5.415   4.994   3.634 -0.4235  2.1965  2.2549
13061TIP3   OH260597   0.794   0.233   0.066 -0.1900  0.3543 -0.0277
13061TIP3    H160598   0.808   0.251   0.159  1.0041 -1.9369  0.3021
13061TIP3    H260599   0.787   0.320   0.026 -0.0781  1.4054  2.0981
13062TIP3   OH260600   0.908   0.105   3.847  0.3498 -0.2699 -0.1506
13062TIP3    H160601   0.943   0.151   3.770 -0.1863  1.3259  0.5118
13062TIP3    H260602   0.986   0.083   3.898  0.5970  0.4924 -0.1786
13063TIP3   OH260603   2.096   2.249  14.324 -0.3963 -0.2251 -0.0775
13063TIP3    H160604   2.006   2.262  14.294 -1.2757 -0.8169  2.1171
13063TIP3    H260605   2.108   2.154  14.324 -0.0727 -0.1867  0.4435
13064TIP3   OH260606   1.456   0.725  11.215  0.4337  0.0983  0.5728
13064TIP3    H160607   1.371   0.699  11.179 -0.8192  0.6809  2.8911
13064TIP3    H260608   1.481   0.802  11.162 -1.1866  0.7703  0.7134
13065TIP3   OH260609   2.092   2.655   5.996  0.1190 -0.1312 -0.1636
13065TIP3    H160610   2.089   2.724   5.930  1.6305  0.0946 -0.0325
13065TIP3    H260611   2.086   2.574   5.946 -1.6839  0.0519 -0.3191
13066TIP3   OH260612   3.281   0.950   2.713 -0.2728  0.1645  0.5904
13066TIP3    H160613   3.202   0.917   2.671 -0.3758  1.5218 -0.3806
13066TIP3    H260614   3.254   0.973   2.802 -0.3776 -1.5293  1.0232
13067TIP3   OH260615   0.778   1.721   5.776 -0.0051 -0.0646  0.5193
13067TIP3    H160616   0.699   1.684   5.735  0.4916 -0.0869 -0.4442
13067TIP3    H260617   0.746   1.796   5.826 -0.4892  0.7660 -0.9757
13068TIP3   OH260618   5.576   0.135   4.877  0.1080 -0.2573  0.0488
13068TIP3    H160619   5.518   0.094   4.941  1.3047 -1.4335  0.4257
13068TIP3    H260620   5.551   0.227   4.878  0.2980 -0.1696  2.4784
13069TIP3   OH260621   4.798   0.322   6.217 -0.2998  0.8616 -0.2723
13069TIP3    H160622   4.807   0.403   6.167  1.4629  0.9673  0.1676
13069TIP3    H260623   4.886   0.285   6.219 -1.1624 -1.3561 -0.8983
13070TIP3   OH260624   5.897   4.790   5.632 -0.5435  0.5740 -0.2351
13070TIP3    H160625   5.930   4.776   5.721 -0.1070 -0.3458 -0.5290
13070TIP3    H260626   5.976   4.791   5.577 -0.8858 -0.0560 -0.7509
13071TIP3   OH260627   1.190   1.036  13.137  0.6087  0.3439  0.3176
13071TIP3    H160628   1.283   1.019  13.151  0.0538 -2.1899  1.5628
13071TIP3    H260629   1.149   1.020  13.222 -1.0106  1.1594 -0.2530
13072TIP3   OH260630   3.293   0.520   2.609 -0.3316 -0.0384  0.1448
13072TIP3    H160631   3.341   0.542   2.530  0.1362 -3.5636 -0.7272
13072TIP3    H260632   3.361   0.504   2.675 -0.4391 -1.4909 -0.0667
13073TIP3   OH260633   2.052   3.836  14.983  0.4386  0.3132  0.5017
13073TIP3    H160634   2.078   3.798  15.067  0.5959  1.5875  1.0586
13073TIP3    H260635   2.009   3.919  15.007 -1.6227 -0.3798 -0.5466
13074TIP3   OH260636   6.579   0.039  15.639 -0.1934  0.4740 -0.4844
13074TIP3    H160637   6.604   0.046  15.731  2.3838 -1.6221 -0.9080
13074TIP3    H260638   6.517  -0.033  15.636  1.1304 -0.7087 -0.5403
13075TIP3   OH260639   4.184   3.621   6.510  0.0688 -0.4134  0.0539
13075TIP3    H160640   4.262   3.573   6.536  1.5505  1.3202 -0.9303
13075TIP3    H260641   4.131   3.558   6.462  1.8828 -1.1145 -1.0979
13076TIP3   OH260642   2.822   0.192  13.376 -0.0403 -0.1086 -0.3591
13076TIP3    H160643   2.773   0.274  13.380  0.2009  0.0241 -0.0396
13076TIP3    H260644   2.805   0.151  13.461 -0.0920 -0.3502 -0.4855
13077TIP3   OH260645   0.062   5.545   2.097 -0.0806 -0.1942  0.3649
13077TIP3    H160646   0.012   5.614   2.139 -0.0089 -0.5670  1.0662
13077TIP3    H260647   0.117   5.508   2.166 -0.3293 -1.1497  0.0751
13078TIP3   OH260648   2.215   2.591  14.341 -0.3074  0.1981  0.4210
13078TIP3    H160649   2.164   2.556  14.414  0.3136 -0.8552  0.3601
13078TIP3    H260650   2.267   2.518  14.310  0.4239  0.9731 -0.2396
13079TIP3   OH260651   1.296   6.608  16.823 -0.2471 -0.2387 -0.7082
13079TIP3    H160652   1.226   6.674  16.826 -0.2722 -0.3093  0.5508
13079TIP3    H260653   1.260   6.532  16.868  0.0950 -0.8265 -1.4063
13080TIP3   OH260654   1.325   5.818  16.458  0.8253 -0.5269 -0.0933
13080TIP3    H160655   1.339   5.902  16.502 -0.3782 -0.6196  0.4996
13080TIP3    H260656   1.394   5.815  16.391 -0.0432  1.6350 -1.1816
13081TIP3   OH260657   1.131   5.325  13.536  0.2541  0.0311 -0.1139
13081TIP3    H160658   1.132   5.240  13.493  0.8297 -0.2699  0.4800
13081TIP3    H260659   1.137   5.388  13.464  4.6717 -0.4924 -0.4512
13082TIP3   OH260660   2.258   1.620  13.921 -0.0058  0.4921 -0.3584
13082TIP3    H160661   2.323   1.690  13.924 -0.9436  1.4608 -1.5029
13082TIP3    H260662   2.174   1.665  13.933 -0.5446 -0.6045  0.1392
13083TIP3   OH260663   2.495   4.313   1.676  0.2796  0.6411  0.3918
13083TIP3    H160664   2.438   4.261   1.620  0.4938 -1.1135  1.6997
13083TIP3    H260665   2.441   4.332   1.753  0.2184  2.3921 -0.0450
13084TIP3   OH260666   5.073   0.780  12.958  0.1774  0.2941  0.5218
13084TIP3    H160667   5.150   0.733  12.990  0.4679  0.0619 -0.4819
13084TIP3    H260668   5.006   0.712  12.947  0.6276  0.0576 -1.0229
13085TIP3   OH260669   0.276   1.830   4.114 -0.0525  0.5342 -0.5773
13085TIP3    H160670   0.193   1.790   4.138  0.3369  0.5403  0.8840
13085TIP3    H260671   0.340   1.759   4.120  0.2355  0.7935 -0.5416
13086TIP3   OH260672   3.501   0.285   5.153 -0.5052 -0.2372 -0.2338
13086TIP3    H160673   3.487   0.310   5.245 -0.0621  0.2928 -0.3064
13086TIP3    H260674   3.475   0.362   5.103  1.3440  0.3249 -0.4333
13087TIP3   OH260675   5.448   4.877  13.502  0.1503 -0.2446 -0.0097
13087TIP3    H160676   5.409   4.789  13.501  0.6299 -0.4599  0.1471
13087TIP3    H260677   5.512   4.874  13.573  1.5377 -0.3709 -1.2189
13088TIP3   OH260678   5.846   5.577  14.823  0.6089 -0.7955 -0.3499
13088TIP3    H160679   5.751   5.584  14.822  0.6125 -0.5530 -2.6441
13088TIP3    H260680   5.875   5.624  14.745  2.5757 -1.3701 -0.0185
13089TIP3   OH260681   1.579   3.770   5.672 -0.1710 -0.8023  0.0464
13089TIP3    H160682   1.552   3.695   5.619  1.0934 -1.9748  0.9923
13089TIP3    H260683   1.528   3.763   5.752  1.0396 -1.5464  0.7682
13090TIP3   OH260684   3.498   1.442   2.333 -0.4445 -0.1782 -0.0905
13090TIP3    H160685   3.549   1.443   2.413 -0.6898  0.4448  0.0666
13090TIP3    H260686   3.427   1.380   2.350 -0.6201  0.1116  0.2646
13091TIP3   OH260687   1.582   4.145  10.800  0.2411  0.0318  0.2117
13091TIP3    H160688   1.640   4.072  10.823 -2.5444 -2.6546 -0.5525
13091TIP3    H260689   1.584   4.148  10.704 -0.6008  0.0666  0.1839
13092TIP3   OH260690   4.239   6.013   4.748 -0.0764 -0.0495  0.2370
13092TIP3    H160691   4.172   6.019   4.816 -1.0599 -0.5481 -0.6513
13092TIP3    H260692   4.232   6.095   4.700 -0.5108 -0.3648 -0.2531
13093TIP3   OH260693   4.710   1.972   5.556 -0.3053 -0.6619 -0.5331
13093TIP3    H160694   4.715   1.879   5.534  0.6393 -0.4825 -1.1453
13093TIP3    H260695   4.762   1.980   5.636 -2.4435 -1.0496  0.9754
13094TIP3   OH260696   5.932   4.717  15.833  0.0729  0.8428  0.0508
13094TIP3    H160697   6.021   4.686  15.850 -0.6204 -0.3907  1.7400
13094TIP3    H260698   5.941   4.812  15.827  1.4888  0.7540  0.3388
13095TIP3   OH260699   5.652   4.176  14.992  0.3640  0.2327 -0.6600
13095TIP3    H160700   5.736   4.172  15.039  0.3454 -0.6884 -0.6860
13095TIP3    H260701   5.672   4.141  14.906  0.4449  2.0930 -1.4612
13096TIP3   OH260702   2.674   3.460   3.395  0.0465  0.1958 -0.2137
13096TIP3    H160703   2.677   3.471   3.300  1.1260 -1.1120 -0.3725
13096TIP3    H260704   2.760   3.489   3.425 -0.7098  1.7525  0.5329
13097TIP3   OH260705   1.022   0.853  12.866 -0.2809  0.3094 -0.5932
13097TIP3    H160706   0.978   0.930  12.902 -0.1065 -0.5965  1.7161
13097TIP3    H260707   0.959   0.782  12.877  0.6862 -0.4572  0.1503
13098TIP3   OH260708   5.011   1.325   4.362 -0.5327  0.6227 -0.2300
13098TIP3    H160709   5.074   1.389   4.392  0.6735 -0.5930 -0.0660
13098TIP3    H260710   4.938   1.377   4.328 -0.8698  2.0438  2.4607
13099TIP3   OH260711   2.118   3.961   0.037  0.0399 -0.6952 -0.0841
13099TIP3    H160712   2.158   4.046   0.019 -1.1815 -0.2545 -0.7929
13099TIP3    H260713   2.049   3.979   0.100 -0.2201 -1.1588 -0.2265
13100TIP3   OH260714   0.785   1.701  14.201  0.0300 -0.2995 -0.1642
13100TIP3    H160715   0.808   1.618  14.244  0.3854 -1.4211 -2.3647
13100TIP3    H260716   0.689   1.704  14.205 -0.1197 -1.7391 -1.5611
13101TIP3   OH260717   5.035   5.713   3.772 -0.0383 -0.5640 -0.0903
13101TIP3    H160718   4.940   5.709   3.786  0.0772 -4.1541  0.6476
13101TIP3    H260719   5.070   5.743   3.857 -0.4423  0.4624 -0.2679
13102TIP3   OH260720   5.751   5.214  11.623 -0.4519 -0.5200 -0.2226
13102TIP3    H160721   5.823   5.260  11.581 -0.5290 -0.7423 -0.6013
13102TIP3    H260722   5.731   5.266  11.701 -0.0647 -0.3104 -0.2646
13103TIP3   OH260723   6.608   0.048   3.067  0.1556  0.0999 -0.3612
13103TIP3    H160724   6.633   0.059   2.975 -0.5018  1.3757 -0.4101
13103TIP3    H260725   6.534   0.108   3.079 -1.6334 -2.0667  0.2805
13104TIP3   OH260726   0.019   2.093  11.345 -0.0035 -0.2484  0.1190
13104TIP3    H160727  -0.009   2.180  11.374  0.7058 -0.3334  1.1474
13104TIP3    H260728   0.080   2.110  11.274 -0.9838  0.0227 -0.6743
13105TIP3   OH260729   5.709   1.834   2.204  0.6927  0.0978  0.3702
13105TIP3    H160730   5.679   1.914   2.248  0.3358  0.3740 -0.3519
13105TIP3    H260731   5.688   1.764   2.265 -0.6757  0.3696  0.2555
13106TIP3   OH260732   6.810   4.775  15.350  0.2925  0.0117 -0.0603
13106TIP3    H160733   6.858   4.810  15.275  0.2876  2.1553  0.8693
13106TIP3    H260734   6.718   4.789  15.329  0.2322 -0.5366 -0.1785
13107TIP3   OH260735   4.309   6.350  15.623  0.0139 -0.1837  0.0235
13107TIP3    H160736   4.342   6.358  15.533 -0.1225  1.4014  0.0924
13107TIP3    H260737   4.216   6.374  15.616  0.2153  0.8447  0.7181
13108TIP3   OH260738   2.857   5.406   4.863 -0.3879 -0.5692 -0.0241
13108TIP3    H160739   2.895   5.493   4.862 -2.1287  0.2896  1.7893
13108TIP3    H260740   2.891   5.364   4.784 -0.7503  2.2964 -1.8715
13109TIP3   OH260741   4.809   4.650  11.321 -0.5935 -0.2389  0.4005
13109TIP3    H160742   4.754   4.582  11.282  0.9529 -1.5834  0.4286
13109TIP3    H260743   4.785   4.730  11.274 -1.4858 -1.0796 -0.6370
13110TIP3   OH260744   0.305   6.421   5.438  0.4993  0.4545 -0.3840
13110TIP3    H160745   0.222   6.398   5.478  0.8306  2.0870  1.3766
13110TIP3    H260746   0.370   6.368   5.485  0.6267  0.2710 -0.7552
13111TIP3   OH260747   3.571   5.529  13.239 -0.6543 -0.0084 -0.6216
13111TIP3    H160748   3.556   5.614  13.196  1.5189  1.2332  0.8777
13111TIP3    H260749   3.485   5.488  13.241 -1.5918  1.7235 -2.3157
13112TIP3   OH260750   0.313   4.578  15.258  0.2740 -0.1651 -0.1805
13112TIP3    H160751   0.240   4.578  15.320 -1.6467  0.3640 -2.3245
13112TIP3    H260752   0.334   4.486  15.246 -0.0254 -0.3268  0.4692
13113TIP3   OH260753   2.646   6.030   5.708  0.1193  0.6597  0.2729
13113TIP3    H160754   2.646   5.951   5.761 -1.2227  0.8452  0.5677
13113TIP3    H260755   2.578   6.086   5.747  1.1896  2.0656  0.2269
13114TIP3   OH260756   3.605   1.489   2.982  0.0988 -0.2248  0.2767
13114TIP3    H160757   3.614   1.567   3.037 -1.7822  0.4118 -0.2463
13114TIP3    H260758   3.690   1.447   2.986  0.9823  1.5413  1.0536
13115TIP3   OH260759   3.126   6.340  12.443 -0.6562 -0.6070 -0.9888
13115TIP3    H160760   3.196   6.278  12.424  0.6069  0.3285  0.3901
13115TIP3    H260761   3.159   6.392  12.516 -3.0447 -0.5280  0.1436
13116TIP3   OH260762   2.619   2.032  12.556 -0.4183  0.7621  0.1485
13116TIP3    H160763   2.712   2.016  12.567 -0.3032  0.8845 -0.6048
13116TIP3    H260764   2.589   1.962  12.498 -0.2276  2.2471 -1.8600
13117TIP3   OH260765   5.386   6.786   3.262 -0.3600 -0.0545  0.3980
13117TIP3    H160766   5.298   6.777   3.300 -0.6334  1.2683  0.1050
13117TIP3    H260767   5.380   6.861   3.204  0.6737 -0.6562 -0.5239
13118TIP3   OH260768   5.574   2.545  10.948  0.0526  0.2530 -0.0171
13118TIP3    H160769   5.571   2.566  11.041  0.4480 -1.2002  0.3506
13118TIP3    H260770   5.607   2.456  10.944 -1.0959 -0.1586 -1.4965
13119TIP3   OH260771   4.711   0.316  15.831 -0.1124 -0.6812 -0.1621
13119TIP3    H160772   4.731   0.400  15.789  0.1276 -0.6503  0.0174
13119TIP3    H260773   4.736   0.251  15.765  0.1366 -0.6275 -0.1230
13120TIP3   OH260774   6.721   0.398   2.827 -0.2456  0.4191  0.4548
13120TIP3    H160775   6.781   0.472   2.821 -1.1550  1.2228  0.9020
13120TIP3    H260776   6.641   0.429   2.783 -0.2904 -0.6798 -0.2735
13121TIP3   OH260777   5.640   2.362  12.000 -0.1713  0.2367  0.0863
13121TIP3    H160778   5.569   2.424  11.986 -0.7206  0.3118  2.7476
13121TIP3    H260779   5.707   2.412  12.046  0.0186 -0.7372  0.9071
13122TIP3   OH260780   0.246   1.786   5.156 -0.1056  0.1859  0.4827
13122TIP3    H160781   0.277   1.736   5.081  1.6016 -0.6372  1.6919
13122TIP3    H260782   0.212   1.867   5.118  1.6896  0.2559 -1.1004
13123TIP3   OH260783   3.110   4.724  15.603  0.3534 -0.2264 -0.8598
13123TIP3    H160784   3.067   4.711  15.688 -0.9579  2.5275 -0.9903
13123TIP3    H260785   3.050   4.686  15.540 -1.5644  2.6029 -0.9343
13124TIP3   OH260786   6.227   2.660  13.431  0.4341 -0.4379  0.4050
13124TIP3    H160787   6.268   2.582  13.393 -0.6513 -0.7640 -0.1688
13124TIP3    H260788   6.296   2.726  13.434  1.7418 -1.7962  2.1464
13125TIP3   OH260789   2.729   6.565   4.976  0.6338 -0.3411  0.1304
13125TIP3    H160790   2.687   6.645   5.009  2.6306  0.1150  1.7411
13125TIP3    H260791   2.656   6.513   4.942 -0.9937  1.2274  1.0170
13126TIP3   OH260792   0.748   2.641  12.951  0.1816  0.0820 -0.1647
13126TIP3    H160793   0.710   2.707  13.008 -0.9696  0.1018 -0.9300
13126TIP3    H260794   0.841   2.665  12.946  0.0501  0.8198  0.6673
13127TIP3   OH260795   5.070   5.814   5.040  0.0715 -0.6855  0.2924
13127TIP3    H160796   5.065   5.835   5.133  3.1455 -2.6503  1.0537
13127TIP3    H260797   5.149   5.857   5.010 -1.4485  0.8557 -1.8038
13128TIP3   OH260798   2.322   5.818  16.170 -0.0690  0.3341 -0.0750
13128TIP3    H160799   2.389   5.844  16.233  2.3046 -1.4999 -1.6396
13128TIP3    H260800   2.364   5.828  16.085 -0.1114 -4.6972 -0.9929
13129TIP3   OH260801   1.185   4.309  11.135  0.1583 -0.4070 -0.1183
13129TIP3    H160802   1.248   4.362  11.183 -3.1645  1.3720  2.6974
13129TIP3    H260803   1.136   4.372  11.081 -0.8974 -1.3000 -0.2376
13130TIP3   OH260804   1.349   4.373   1.235 -0.1110  0.6749  0.4792
13130TIP3    H160805   1.303   4.406   1.313  0.1948  1.3151  0.3944
13130TIP3    H260806   1.371   4.282   1.257 -0.0272  0.8479  1.1418
13131TIP3   OH260807   1.828   1.876   3.061 -0.3477 -0.1180 -0.2034
13131TIP3    H160808   1.850   1.844   3.149 -0.5253 -2.0463 -0.8028
13131TIP3    H260809   1.865   1.964   3.057  0.7752 -0.4730  1.3600
13132TIP3   OH260810   2.986   4.291   1.085  0.4515 -0.1407  0.2052
13132TIP3    H160811   3.067   4.295   1.034  0.1521  0.1679 -0.2603
13132TIP3    H260812   2.967   4.198   1.094  1.7208 -0.2949  1.7230
13133TIP3   OH260813   1.069   0.014  13.452 -0.6805 -0.1142  0.1214
13133TIP3    H160814   1.152   0.055  13.477 -0.4463 -1.0264  0.8896
13133TIP3    H260815   1.018   0.085  13.413  0.5280  0.4174 -0.5563
13134TIP3   OH260816   3.456   3.362   6.108 -0.0616 -0.4118  0.2109
13134TIP3    H160817   3.432   3.395   6.195 -1.6657 -0.5387 -0.1656
13134TIP3    H260818   3.547   3.390   6.097 -0.1876  0.6029  1.4552
13135TIP3   OH260819   4.217   5.579   2.442 -0.1306 -0.1070 -0.0999
13135TIP3    H160820   4.190   5.528   2.518 -1.7155  1.4486  0.4544
13135TIP3    H260821   4.312   5.567   2.437 -0.0042 -0.3686  2.0553
13136TIP3   OH260822   0.427   5.321  13.075 -0.6162 -0.0881 -0.4268
13136TIP3    H160823   0.514   5.322  13.036 -0.0302  0.1304  0.8384
13136TIP3    H260824   0.391   5.236  13.052  0.2096 -0.4638 -0.3770
13137TIP3   OH260825   4.161   0.740   3.070 -0.0054  0.7754  0.5259
13137TIP3    H160826   4.165   0.646   3.088 -0.3174  0.7815  0.6290
13137TIP3    H260827   4.206   0.750   2.986  0.2618  0.5698  0.6444
13138TIP3   OH260828   0.527   0.368   0.325 -0.3316  0.0569  0.0391
13138TIP3    H160829   0.607   0.316   0.333 -0.1908  0.1936 -0.4326
13138TIP3    H260830   0.505   0.392   0.415  0.9490  1.2073  0.0825
13139TIP3   OH260831   3.317   3.344   0.651 -0.6645  0.0707 -0.0091
13139TIP3    H160832   3.301   3.438   0.655  0.5320  0.3035 -0.3690
13139TIP3    H260833   3.394   3.335   0.596 -1.6300 -1.2379 -1.2130
13140TIP3   OH260834   3.693   4.901   4.447  0.3764 -0.1686 -0.2756
13140TIP3    H160835   3.681   4.830   4.510  0.3409  0.2629  0.2102
13140TIP3    H260836   3.628   4.967   4.473  0.1224 -0.1299 -0.9786
13141TIP3   OH260837   2.837   6.577   5.226  0.1384  0.2036  0.4551
13141TIP3    H160838   2.801   6.660   5.195  1.1281  1.0345  1.4057
13141TIP3    H260839   2.785   6.510   5.183 -0.5487  1.3175 -0.5098
13142TIP3   OH260840   1.110   5.113   2.390 -0.3029 -0.0034 -0.4473
13142TIP3    H160841   1.173   5.120   2.461  0.3936 -0.7515 -0.9802
13142TIP3    H260842   1.160   5.135   2.311 -0.7649 -0.3634 -0.8493
13143TIP3   OH260843   6.143   2.725   4.404 -0.5301  0.6240 -0.2696
13143TIP3    H160844   6.154   2.717   4.309  1.0104  1.8155 -0.2460
13143TIP3    H260845   6.064   2.777   4.415  0.3165  2.1341 -1.0098
13144TIP3   OH260846   0.090   4.691   4.980  0.8931  0.0909  0.3323
13144TIP3    H160847   0.012   4.691   4.926  0.6009 -1.6673  0.7186
13144TIP3    H260848   0.130   4.777   4.965 -0.2172  0.3689 -1.1375
13145TIP3   OH260849   4.963   5.100   3.115 -0.0042 -0.3810 -0.4265
13145TIP3    H160850   4.905   5.099   3.039 -0.8171  4.3082 -0.1848
13145TIP3    H260851   4.905   5.098   3.190  0.0630  2.7589 -0.1672
13146TIP3   OH260852   2.624   0.039   1.377  0.2576 -0.4086 -0.0822
13146TIP3    H160853   2.662   0.080   1.455  1.0116  0.8445 -1.0614
13146TIP3    H260854   2.534   0.071   1.375  1.4941  3.4727 -2.1917
13147TIP3   OH260855   2.690   1.353  14.805  0.2919 -0.3870  0.4892
13147TIP3    H160856   2.658   1.306  14.882  1.8052 -1.8762  0.2773
13147TIP3    H260857   2.783   1.369  14.823  0.0581  1.6564  0.0887
13148TIP3   OH260858   1.797   1.916   5.372 -0.2383  0.4584  0.7553
13148TIP3    H160859   1.848   1.934   5.293 -1.7769 -0.4902 -0.5167
13148TIP3    H260860   1.822   1.986   5.432 -0.1525  2.1349 -1.1045
13149TIP3   OH260861   6.558   2.209   2.954 -0.3535 -0.0863  0.2948
13149TIP3    H160862   6.470   2.187   2.984 -0.2803 -3.7283 -1.6607
13149TIP3    H260863   6.551   2.300   2.925 -4.4628 -1.0928 -2.8088
13150TIP3   OH260864   0.632   0.696  13.348 -0.2248 -0.3637 -0.0158
13150TIP3    H160865   0.594   0.622  13.395  2.4162 -1.6411  0.3482
13150TIP3    H260866   0.559   0.736  13.302 -1.8662 -2.8993  0.1737
13151TIP3   OH260867   3.056   3.814  11.897  0.6679  0.2872 -0.5228
13151TIP3    H160868   3.052   3.873  11.972  0.2674 -0.5645  0.1440
13151TIP3    H260869   2.968   3.777  11.891  1.2636 -1.2892 -0.0563
13152TIP3   OH260870   5.194   3.903  13.608 -0.4116 -0.6114  0.5328
13152TIP3    H160871   5.134   3.828  13.614 -0.9333 -0.2591 -0.1206
13152TIP3    H260872   5.193   3.942  13.695 -0.0624 -1.4145  0.9062
13153TIP3   OH260873   1.204   4.937  14.890  0.4108 -0.6218 -0.6636
13153TIP3    H160874   1.256   5.008  14.852 -1.4448  0.4928 -1.2712
13153TIP3    H260875   1.268   4.881  14.933  2.2664 -0.1607 -2.6383
13154TIP3   OH260876   6.591   4.061   2.504 -0.3668  0.2590  0.5083
13154TIP3    H160877   6.596   4.028   2.593  1.8122 -1.0236 -0.0305
13154TIP3    H260878   6.674   4.037   2.464 -1.1253  1.1318 -1.7734
13155TIP3   OH260879   4.443   4.746   2.284  0.0360  0.0803 -0.3776
13155TIP3    H160880   4.359   4.765   2.326  0.5235 -0.2802  0.8238
13155TIP3    H260881   4.427   4.666   2.234  0.5598 -2.3941  3.0381
13156TIP3   OH260882   1.152   4.679   3.112  0.3158  0.1513  0.2035
13156TIP3    H160883   1.139   4.631   3.193  0.2156 -0.6754 -0.2927
13156TIP3    H260884   1.078   4.654   3.056  1.2856 -0.6723 -0.7717
13157TIP3   OH260885   2.814   4.005   4.936  0.2698  0.0738 -0.3277
13157TIP3    H160886   2.801   4.053   4.855 -0.8801  0.2011 -0.0795
13157TIP3    H260887   2.741   3.943   4.940 -1.8206  2.4453  2.2795
13158TIP3   OH260888   0.850   3.671   4.034  0.0976 -0.3496 -0.2087
13158TIP3    H160889   0.850   3.603   4.101  1.7943 -2.3840 -2.1263
13158TIP3    H260890   0.901   3.743   4.072  0.0432 -0.9761  1.0873
13159TIP3   OH260891   4.057   1.745   0.722  0.5098  0.8564  0.1099
13159TIP3    H160892   4.063   1.652   0.703  0.1240  0.8098  0.2160
13159TIP3    H260893   4.096   1.755   0.808 -1.7025  0.4080  1.2277
13160TIP3   OH260894   2.460   2.862  16.471  0.0898 -0.0026 -0.5838
13160TIP3    H160895   2.397   2.889  16.537  0.2224 -0.6676 -0.1736
13160TIP3    H260896   2.459   2.932  16.406 -0.4764  0.3727 -0.1739
13161TIP3   OH260897   5.453   4.856  15.352  0.0464 -0.5570  0.0606
13161TIP3    H160898   5.362   4.857  15.322 -0.7439  0.8054  2.1881
13161TIP3    H260899   5.447   4.831  15.444  1.6315  1.1446  0.6853
13162TIP3   OH260900   0.751   2.265  13.689 -0.5865  0.1537  0.2182
13162TIP3    H160901   0.723   2.332  13.751 -1.4335  1.8481 -1.8633
13162TIP3    H260902   0.785   2.194  13.744 -2.1328  1.1396  2.6143
13163TIP3   OH260903   4.573   6.354   2.994 -0.5253  0.1934 -0.2896
13163TIP3    H160904   4.560   6.265   3.028  0.0459 -0.7022 -2.2381
13163TIP3    H260905   4.616   6.401   3.065 -1.0564 -1.0058  0.8760
13164TIP3   OH260906   2.136   2.919   1.404 -0.5162  0.6293  0.1588
13164TIP3    H160907   2.126   2.879   1.491  0.5489  0.0821  0.0436
13164TIP3    H260908   2.124   2.847   1.343  0.3855  0.6720 -0.0819
13165TIP3   OH260909   5.740   2.694  13.824  0.1008 -0.2528  0.6340
13165TIP3    H160910   5.813   2.689  13.885  0.0981  1.2089  0.7746
13165TIP3    H260911   5.672   2.638  13.863  1.1030 -1.6177  0.5046
13166TIP3   OH260912   5.621   6.614  15.807  0.5069  0.0180  0.4747
13166TIP3    H160913   5.693   6.554  15.789  1.2252  1.2571 -1.0922
13166TIP3    H260914   5.545   6.576  15.763  1.1313  0.5841 -1.1661
13167TIP3   OH260915   6.778   1.174  15.243 -0.0538  0.7504  0.1987
13167TIP3    H160916   6.771   1.211  15.155 -0.7662 -0.0155 -0.0744
13167TIP3    H260917   6.819   1.243  15.294 -0.4308  1.5376 -0.5323
13168TIP3   OH260918   3.519   1.554  16.385 -0.6754 -0.5850 -0.2276
13168TIP3    H160919   3.603   1.507  16.389 -0.1122  0.4228  0.1671
13168TIP3    H260920   3.481   1.543  16.472  0.2806  1.1207  0.4463
13169TIP3   OH260921   2.803   1.626  16.575 -0.7363 -0.0662  0.0996
13169TIP3    H160922   2.792   1.634  16.480 -1.3784  0.9506  0.2445
13169TIP3    H260923   2.730   1.675  16.612  0.0494  0.3591  1.1274
13170TIP3   OH260924   0.457   6.144   4.161  0.0958 -0.4022 -0.1053
13170TIP3    H160925   0.427   6.133   4.251 -0.2455 -0.5494 -0.2343
13170TIP3    H260926   0.430   6.232   4.136  1.1723  0.0569  0.3019
13171TIP3   OH260927   0.464   3.118  12.472 -0.0273 -0.0612 -0.0288
13171TIP3    H160928   0.434   3.202  12.506  1.6391  1.0609 -1.1511
13171TIP3    H260929   0.406   3.054  12.512 -1.2485  1.5952  1.0053
13172TIP3   OH260930   4.758   0.241  16.631  0.3013  0.5487 -0.4895
13172TIP3    H160931   4.689   0.179  16.654  1.3160 -1.6439 -2.8967
13172TIP3    H260932   4.789   0.274  16.716 -1.3851 -0.9741  0.8028
13173TIP3   OH260933   2.923   2.477   0.506  0.0048 -0.3481 -0.4693
13173TIP3    H160934   2.955   2.567   0.504  0.6024 -0.4968  1.0012
13173TIP3    H260935   2.952   2.439   0.423  1.4015  0.2810 -0.2898
13174TIP3   OH260936   6.494   3.976  12.593  0.0480  0.3752 -0.3932
13174TIP3    H160937   6.465   4.002  12.680 -0.4006  3.8621 -1.4343
13174TIP3    H260938   6.589   3.974  12.598  0.0013 -1.0559  0.5102
13175TIP3   OH260939   5.763   2.302   4.379  0.8417  0.0214 -0.0614
13175TIP3    H160940   5.823   2.228   4.378  0.2269 -0.5290  1.1886
13175TIP3    H260941   5.807   2.368   4.433 -0.2681 -0.9630  2.1635
13176TIP3   OH260942   1.286   4.483  14.956  0.0016  0.2495  0.1443
13176TIP3    H160943   1.338   4.505  14.878 -1.5949 -1.3744 -1.4999
13176TIP3    H260944   1.314   4.395  14.979 -1.8944 -0.6426 -0.7547
13177TIP3   OH260945   4.815   6.282  13.766  0.6222  0.0722 -0.1399
13177TIP3    H160946   4.887   6.342  13.781  0.1912  0.5562  0.0157
13177TIP3    H260947   4.822   6.218  13.838  0.1534  0.8461  0.6088
13178TIP3   OH260948   3.705   3.665  12.602 -0.5736  0.1394 -0.0261
13178TIP3    H160949   3.708   3.652  12.507  0.1172  1.3781 -0.1989
13178TIP3    H260950   3.612   3.674  12.622 -0.7208 -0.1009 -0.5991
13179TIP3   OH260951   3.473   5.972   4.911  0.1124  0.1276  0.4119
13179TIP3    H160952   3.511   5.890   4.943  0.9960 -0.5832 -2.2307
13179TIP3    H260953   3.438   5.951   4.825 -0.9186  2.2314  0.2493
13180TIP3   OH260954   3.311   3.617   4.771 -0.5218  0.4984 -0.2291
13180TIP3    H160955   3.285   3.650   4.857 -0.0684  0.4129 -0.0510
13180TIP3    H260956   3.399   3.653   4.758 -0.7224  0.7783 -0.8052
13181TIP3   OH260957   2.640   3.066  16.082 -0.4382  0.0492  0.2374
13181TIP3    H160958   2.713   3.104  16.034 -0.0917 -0.6177  0.2334
13181TIP3    H260959   2.680   3.019  16.155 -0.9310  0.7209  0.9775
13182TIP3   OH260960   3.264   4.549  16.192 -0.5504 -0.4322  0.1400
13182TIP3    H160961   3.335   4.488  16.210 -0.5627  0.1162  2.4470
13182TIP3    H260962   3.185   4.501  16.218 -0.8738 -0.4347 -0.8050
13183TIP3   OH260963   6.112   3.057   0.542 -0.1985 -0.4241  0.3122
13183TIP3    H160964   6.078   2.969   0.526 -1.4865  0.0621  0.2961
13183TIP3    H260965   6.112   3.098   0.456  1.2396 -0.6764  0.1718
13184TIP3   OH260966   2.412   6.253  14.478 -0.1309 -0.2088 -0.5842
13184TIP3    H160967   2.415   6.164  14.513  2.1774 -0.7338 -1.9318
13184TIP3    H260968   2.476   6.301  14.531  0.0992  0.1327 -1.1681
13185TIP3   OH260969   0.789   3.882  12.805  0.0766 -0.1622  0.7362
13185TIP3    H160970   0.823   3.799  12.770 -0.4325 -0.5647  1.1890
13185TIP3    H260971   0.827   3.888  12.892 -0.9706 -0.6047  1.2409
13186TIP3   OH260972   3.831   2.944  13.792  0.3464  0.3138  0.8126
13186TIP3    H160973   3.782   2.955  13.873 -1.9486 -0.9050 -0.2982
13186TIP3    H260974   3.791   3.006  13.730  1.5926  0.7427  0.4128
13187TIP3   OH260975   4.084   3.257  13.210  0.1382 -0.0913  0.0255
13187TIP3    H160976   4.133   3.196  13.156  1.5840  1.1002 -0.0660
13187TIP3    H260977   4.101   3.229  13.300 -0.6518 -0.8656 -0.0503
13188TIP3   OH260978   0.399   5.497   3.429  0.2036 -0.5828  0.1618
13188TIP3    H160979   0.329   5.436   3.453 -1.9258  1.6183  0.0141
13188TIP3    H260980   0.432   5.530   3.512  0.4906 -1.0047  0.2178
13189TIP3   OH260981   5.931   5.797  11.960 -0.0130 -0.2237  0.1733
13189TIP3    H160982   5.909   5.811  12.052 -1.7130 -1.5071  0.0132
13189TIP3    H260983   6.006   5.738  11.962  0.7764  0.7728  0.7233
13190TIP3   OH260984   2.087   5.195  11.127 -0.3571 -0.3117  0.7534
13190TIP3    H160985   2.094   5.107  11.162 -1.8169 -0.0451  1.8097
13190TIP3    H260986   2.166   5.239  11.156 -0.3285 -0.8494  1.4990
13191TIP3   OH260987   2.825   5.763  11.931  0.1969  0.3776  0.5330
13191TIP3    H160988   2.789   5.727  12.012 -0.0966 -1.6370 -0.4437
13191TIP3    H260989   2.749   5.801  11.886 -0.6185 -2.5728 -0.8426
13192TIP3   OH260990   4.488   1.947   1.892 -0.1898  0.5318 -0.6771
13192TIP3    H160991   4.502   2.040   1.907 -2.3703  1.0064 -1.1904
13192TIP3    H260992   4.574   1.907   1.902  1.1436  2.8171 -2.1561
13193TIP3   OH260993   4.994   4.050   4.695  0.5799  0.4321  0.3041
13193TIP3    H160994   5.036   4.134   4.673  2.0918 -0.0866  1.0800
13193TIP3    H260995   5.066   3.987   4.697 -0.5503 -0.9395 -0.3987
13194TIP3   OH260996   2.683   2.431   5.032 -0.1650 -0.3260 -1.1586
13194TIP3    H160997   2.651   2.471   5.112 -0.6144 -2.4551 -0.2089
13194TIP3    H260998   2.757   2.486   5.006  0.2508  0.1933  0.9316
13195TIP3   OH260999   4.376   4.956  10.668 -0.5757  0.0173  0.2991
13195TIP3    H161000   4.336   4.930  10.751 -0.5956 -1.2751 -0.0870
13195TIP3    H261001   4.354   4.884  10.608 -2.2695  1.8307 -1.4020
13196TIP3   OH261002   4.384   6.511  12.520  0.1520  0.9511  0.3231
13196TIP3    H161003   4.369   6.432  12.468  0.7232  1.2812 -0.3630
13196TIP3    H261004   4.470   6.499  12.558  0.2525  1.2529  0.1925
13197TIP3   OH261005   4.846   3.269   5.189  0.1461 -0.0485  0.5567
13197TIP3    H161006   4.931   3.269   5.146 -0.8523 -0.6040 -1.5673
13197TIP3    H261007   4.843   3.186   5.237  0.8608  0.0728  0.8177
13198TIP3   OH261008   6.206   0.103   3.219 -0.1748  0.2454  0.2507
13198TIP3    H161009   6.175   0.016   3.192  0.6651 -0.6358  1.9409
13198TIP3    H261010   6.189   0.106   3.313  1.1719  1.3090  0.4917
13199TIP3   OH261011   5.680   1.980   3.929  0.4192 -0.1042  0.0820
13199TIP3    H161012   5.758   2.035   3.939  1.5120 -1.2555 -1.7268
13199TIP3    H261013   5.608   2.035   3.960  1.5885  1.9881 -0.7494
13200TIP3   OH261014   0.767   4.250   0.048  0.2944 -0.1098 -0.7570
13200TIP3    H161015   0.794   4.315   0.112 -0.6943  0.6261 -1.0676
13200TIP3    H261016   0.842   4.242  -0.011  0.9397 -0.2775  0.0695
13201TIP3   OH261017   0.203   3.155   5.177  0.4405  0.7702  0.5682
13201TIP3    H161018   0.246   3.187   5.257  2.3068 -0.8104  0.2592
13201TIP3    H261019   0.126   3.109   5.209  1.6347 -0.6183  1.5906
13202TIP3   OH261020   6.803   6.399   5.357  0.5874  0.9334  0.4357
13202TIP3    H161021   6.798   6.469   5.422 -1.4513  1.6966 -0.4494
13202TIP3    H261022   6.738   6.335   5.385 -0.7454  1.5517 -1.0752
13203TIP3   OH261023   4.419   5.552   4.056  0.1041 -0.5802 -0.4565
13203TIP3    H161024   4.383   5.465   4.074  0.3155 -0.4087  0.9243
13203TIP3    H261025   4.468   5.574   4.135 -2.5007  2.1184  0.5930
13204TIP3   OH261026   5.802   2.097  12.345  0.4320 -0.7150  0.0186
13204TIP3    H161027   5.886   2.135  12.371 -0.0733  0.9108 -0.5794
13204TIP3    H261028   5.791   2.125  12.254 -1.6809  0.8555  0.7069
13205TIP3   OH261029   2.960   1.824   6.220 -0.8536 -0.3741 -0.3639
13205TIP3    H161030   2.960   1.773   6.301  0.0152 -0.6130 -0.5018
13205TIP3    H261031   2.900   1.777   6.162 -1.4141 -0.2496  0.1058
13206TIP3   OH261032   3.740   1.136  13.481  0.4995  0.1487 -0.3191
13206TIP3    H161033   3.772   1.212  13.433  0.6853 -1.1061 -2.2844
13206TIP3    H261034   3.645   1.138  13.470  0.5919 -0.5078 -1.3854
13207TIP3   OH261035   5.070   6.748  12.285 -0.3749 -0.7709  0.5691
13207TIP3    H161036   5.142   6.747  12.222  0.9755  2.5850  1.8344
13207TIP3    H261037   4.991   6.756  12.231  0.3909 -1.7444 -0.7554
13208TIP3   OH261038   5.061   2.449  16.206  0.0960 -0.1675  0.0445
13208TIP3    H161039   5.143   2.430  16.161  0.4097 -1.7787  1.2351
13208TIP3    H261040   4.995   2.398  16.159  0.2102 -0.8433  0.6052
13209TIP3   OH261041   3.293   4.505   3.568  0.7202  0.0243 -0.1839
13209TIP3    H161042   3.274   4.528   3.659 -1.5168  0.0515 -0.5989
13209TIP3    H261043   3.384   4.475   3.569  0.6736 -0.2017  2.0920
13210TIP3   OH261044   2.118   1.222   2.323 -0.3273  0.5085  0.1412
13210TIP3    H161045   2.100   1.239   2.415  1.0333 -1.0872  0.7473
13210TIP3    H261046   2.133   1.128   2.318 -0.6838  0.5008 -1.7830
13211TIP3   OH261047   3.893   4.530   5.347 -0.0297  0.6860  0.0843
13211TIP3    H161048   3.935   4.615   5.332  1.1634  0.1770  0.4098
13211TIP3    H261049   3.833   4.546   5.420  1.6048  0.8583  1.4823
13212TIP3   OH261050   3.534   3.881  16.866  0.3533 -0.0771 -0.0261
13212TIP3    H161051   3.500   3.965  16.833 -0.4722  1.0456  3.2807
13212TIP3    H261052   3.465   3.818  16.845 -0.8716  0.9018  0.8825
13213TIP3   OH261053   2.775   0.736   2.127  0.4599  0.3978 -0.5930
13213TIP3    H161054   2.732   0.653   2.147  0.8992 -0.7221 -3.6488
13213TIP3    H261055   2.831   0.716   2.051  1.0464  3.3495 -1.0654
13214TIP3   OH261056   2.275   2.978  15.051  1.2347  0.6004  0.4302
13214TIP3    H161057   2.349   2.995  15.108  0.3080  0.1665  1.8178
13214TIP3    H261058   2.201   2.965  15.111  0.3983 -0.7306 -0.8179
13215TIP3   OH261059   5.225   2.172  14.288 -0.5923  0.0554 -0.3736
13215TIP3    H161060   5.232   2.077  14.291  1.0767  0.1216 -1.0943
13215TIP3    H261061   5.230   2.194  14.195 -0.9129  0.8520 -0.2096
13216TIP3   OH261062   5.435   0.665   5.667  0.5531 -0.2770 -0.7369
13216TIP3    H161063   5.418   0.627   5.754  0.1097  1.0696 -0.2111
13216TIP3    H261064   5.462   0.591   5.614  0.0356 -1.2768  0.3419
13217TIP3   OH261065   1.589   5.327  13.098 -0.0270  0.0853  0.0154
13217TIP3    H161066   1.630   5.261  13.042  0.5850  1.4724 -1.2455
13217TIP3    H261067   1.515   5.359  13.046 -0.2946  0.4234  0.5970
13218TIP3   OH261068   3.331   3.306  13.945  0.0303 -0.3424  0.0138
13218TIP3    H161069   3.417   3.340  13.922 -0.3310  1.0113  0.5575
13218TIP3    H261070   3.327   3.312  14.041 -0.9780  0.4713 -0.0539
13219TIP3   OH261071   1.455   3.165   3.644  0.2357  0.3642  0.0189
13219TIP3    H161072   1.456   3.150   3.549 -1.4016  1.5553 -0.2505
13219TIP3    H261073   1.503   3.091   3.681 -0.0355 -0.7227 -1.6717
13220TIP3   OH261074   6.232   3.953   1.861  0.2082  0.1563 -0.2615
13220TIP3    H161075   6.287   3.998   1.796  0.2896  1.6832  0.8017
13220TIP3    H261076   6.143   3.961   1.826  0.3937 -0.1851 -0.8186
13221TIP3   OH261077   2.905   2.721   0.219  0.0355 -0.0766 -0.3987
13221TIP3    H161078   2.852   2.642   0.235 -0.0368 -0.0503 -0.5094
13221TIP3    H261079   2.993   2.696   0.247 -0.4881  0.6745  2.2382
13222TIP3   OH261080   5.246   5.745   3.564 -0.3392 -1.1613 -0.4474
13222TIP3    H161081   5.311   5.816   3.560 -0.9994 -0.5965 -1.9759
13222TIP3    H261082   5.192   5.766   3.640 -0.3243 -0.1928 -0.6902
13223TIP3   OH261083   3.714   6.730  11.065  0.7078  0.4123  0.0741
13223TIP3    H161084   3.772   6.667  11.022  0.2245 -0.4510  0.6573
13223TIP3    H261085   3.743   6.815  11.032  1.2036 -0.1232 -0.9421
13224TIP3   OH261086   3.303   5.119  13.345 -0.1345 -0.5439 -0.0838
13224TIP3    H161087   3.283   5.040  13.395 -1.6110  0.4088  0.9008
13224TIP3    H261088   3.225   5.133  13.291 -1.2859  1.8685  1.9890
13225TIP3   OH261089   3.598   4.800   0.335 -0.4499 -0.1154 -0.4286
13225TIP3    H161090   3.672   4.820   0.277  2.7797 -1.3740  2.8809
13225TIP3    H261091   3.606   4.863   0.407 -1.9902 -0.9570  0.5487
13226TIP3   OH261092   2.601   6.716   1.146  0.2413 -0.2591 -0.0037
13226TIP3    H161093   2.621   6.739   1.236 -1.4397 -0.4700  0.4635
13226TIP3    H261094   2.683   6.682   1.111  1.8724  2.9445  0.3569
13227TIP3   OH261095   0.947   2.123   0.331 -0.5691  0.4346  0.6488
13227TIP3    H161096   0.859   2.102   0.363 -0.4440 -1.9593 -0.3947
13227TIP3    H261097   1.004   2.063   0.379 -0.0726 -1.2868 -1.9404
13228TIP3   OH261098   0.320   4.040   4.722 -0.9698  0.1766 -0.1552
13228TIP3    H161099   0.330   3.946   4.705 -1.9288  0.2792 -1.4593
13228TIP3    H261100   0.405   4.067   4.757 -1.6740 -1.7970  3.5231
13229TIP3   OH261101   5.518   2.068   2.665  0.4389  0.2232  0.6873
13229TIP3    H161102   5.484   2.066   2.754 -1.3291 -0.6614  0.0620
13229TIP3    H261103   5.558   1.983   2.652 -0.5971 -0.2156  0.2178
13230TIP3   OH261104   3.705   0.817   4.916 -0.3650  0.2537  0.2344
13230TIP3    H161105   3.766   0.890   4.921 -0.6076  1.0968 -4.6805
13230TIP3    H261106   3.759   0.740   4.933  0.7688  1.2595  1.4528
13231TIP3   OH261107   5.029   3.255   3.703  0.2545 -0.2312  0.2134
13231TIP3    H161108   5.107   3.270   3.648  1.1151 -1.2391  1.1113
13231TIP3    H261109   4.997   3.169   3.675 -2.3918  1.3726 -2.2532
13232TIP3   OH261110   2.673   1.236   2.237  0.0342 -0.4870  0.2436
13232TIP3    H161111   2.680   1.143   2.216 -1.0888 -0.4786 -0.2525
13232TIP3    H261112   2.749   1.276   2.195 -0.3424 -0.9630 -0.9403
13233TIP3   OH261113   3.461   2.814  14.348 -0.0163  0.2355 -0.0924
13233TIP3    H161114   3.435   2.811  14.256  1.2580  0.1389 -0.4676
13233TIP3    H261115   3.556   2.829  14.345  0.0271  0.2782  1.2068
13234TIP3   OH261116   5.769   3.278  14.176  0.3147 -0.0682  0.3028
13234TIP3    H161117   5.817   3.239  14.103 -1.4218  0.8715 -1.4535
13234TIP3    H261118   5.708   3.210  14.205 -0.4140  0.1994 -0.5449
13235TIP3   OH261119   6.208   4.590  13.790 -0.1369  0.2972 -0.4007
13235TIP3    H161120   6.230   4.675  13.753  1.4369  0.3749  0.6263
13235TIP3    H261121   6.233   4.596  13.882  0.8618 -1.5353 -0.4964
13236TIP3   OH261122   4.267   3.004   0.262  0.0080 -0.2455  0.0442
13236TIP3    H161123   4.190   2.966   0.305  0.3046 -0.5941  0.2794
13236TIP3    H261124   4.341   2.978   0.318  0.4060 -0.7357 -0.6840
13237TIP3   OH261125   4.057   4.079   2.598  0.5120 -0.4277  0.2931
13237TIP3    H161126   4.027   4.068   2.688 -0.2355  0.0515  0.1109
13237TIP3    H261127   4.101   3.997   2.577 -0.1603 -0.9155  0.7686
13238TIP3   OH261128   2.582   4.002  12.742  0.1284  0.2749 -0.4827
13238TIP3    H161129   2.628   4.059  12.804 -0.8396  0.2698  0.2609
13238TIP3    H261130   2.530   4.062  12.689  0.3562  0.2119 -0.7796
13239TIP3   OH261131   0.018   5.250  13.753 -0.4982  0.4516 -0.5884
13239TIP3    H161132   0.085   5.308  13.789 -0.5309 -1.3550  2.9035
13239TIP3    H261133  -0.062   5.302  13.756  0.0130  1.2568 -0.6088
13240TIP3   OH261134   3.250   3.800   0.083  0.1385  0.0127  0.1778
13240TIP3    H161135   3.272   3.884   0.044  1.2565 -0.0603  0.6039
13240TIP3    H261136   3.157   3.807   0.106  0.2842  1.2349  0.4689
13241TIP3   OH261137   3.670   6.638  14.654 -0.0123 -0.1685  0.2026
13241TIP3    H161138   3.629   6.552  14.638 -0.0697 -0.4008  1.5301
13241TIP3    H261139   3.678   6.676  14.567 -0.7623 -1.1719 -0.3351
13242TIP3   OH261140   1.056   4.530   3.331  0.6266  0.1300  0.0151
13242TIP3    H161141   1.088   4.440   3.322  0.1310  0.1332 -3.7141
13242TIP3    H261142   0.981   4.524   3.390  1.3462 -1.6709  0.8038
13243TIP3   OH261143   0.500   5.164  11.719  0.1178  0.1977  0.6035
13243TIP3    H161144   0.432   5.212  11.766 -0.6842 -0.2109 -0.1306
13243TIP3    H261145   0.466   5.154  11.630  0.2897 -1.6956  0.7231
13244TIP3   OH261146   1.427   3.120   6.344  0.9010  0.5620  0.3359
13244TIP3    H161147   1.407   3.038   6.299 -0.4211  0.7439  0.5603
13244TIP3    H261148   1.341   3.156   6.367  1.5150  1.2412  1.6232
13245TIP3   OH261149   6.278   6.161   6.418 -0.0280 -0.2268 -0.0675
13245TIP3    H161150   6.361   6.134   6.457  0.3274 -0.3406 -0.8770
13245TIP3    H261151   6.230   6.079   6.404 -0.5767 -0.1129  1.0170
13246TIP3   OH261152   0.425   4.617  12.466 -0.1029  0.0650  0.5182
13246TIP3    H161153   0.385   4.685  12.411  1.8731 -0.7442 -2.1553
13246TIP3    H261154   0.354   4.557  12.486 -0.6576 -0.5687 -2.8239
13247TIP3   OH261155   1.955   5.450   2.006 -0.2241 -0.1547 -0.2742
13247TIP3    H161156   1.898   5.426   1.934  1.1332  0.0961 -1.4806
13247TIP3    H261157   1.902   5.509   2.060 -1.5286 -0.9979 -0.5854
13248TIP3   OH261158   0.308   6.755   5.200 -0.1583  0.0057 -0.2866
13248TIP3    H161159   0.366   6.694   5.247 -0.1970 -0.9466 -1.4275
13248TIP3    H261160   0.254   6.795   5.268  1.6709  0.7569  0.7921
13249TIP3   OH261161   4.907   2.368   1.896 -0.7725 -0.7874  0.3936
13249TIP3    H161162   4.896   2.340   1.987  2.0197 -2.6366  0.2597
13249TIP3    H261163   4.877   2.294   1.844  0.6065 -1.0281 -0.0950
13250TIP3   OH261164   4.830   3.812  13.106  0.0147  0.2874  0.2101
13250TIP3    H161165   4.796   3.783  13.021 -0.0871 -1.1241  0.7089
13250TIP3    H261166   4.884   3.887  13.085  0.5071 -0.4182 -1.2073
13251TIP3   OH261167   4.988   1.640  13.579  0.8453  0.0739 -0.2778
13251TIP3    H161168   4.988   1.733  13.599 -0.4352  0.3846 -1.6072
13251TIP3    H261169   4.925   1.602  13.640  2.3809 -0.2056  1.2355
13252TIP3   OH261170   1.179   3.530  15.024 -0.3787 -0.4822 -0.3598
13252TIP3    H161171   1.241   3.575  14.967 -0.7655  2.3814  1.3033
13252TIP3    H261172   1.226   3.518  15.107 -1.0871 -0.9694 -0.0106
13253TIP3   OH261173   1.357   3.559  15.985 -0.0541  0.2546 -0.1948
13253TIP3    H161174   1.443   3.593  16.012  0.0058  0.6787 -0.8846
13253TIP3    H261175   1.295   3.600  16.046  0.0956  1.0654 -0.5700
13254TIP3   OH261176   0.804   0.981  12.958  0.2047  0.3483  0.0676
13254TIP3    H161177   0.708   0.981  12.953  0.0383  2.4411  1.7772
13254TIP3    H261178   0.823   0.992  13.052  2.0777  2.2402 -0.4723
13255TIP3   OH261179   5.903   1.241   5.960  0.4010  0.4351 -0.0470
13255TIP3    H161180   5.885   1.147   5.962 -1.6415  0.7721  1.5208
13255TIP3    H261181   5.964   1.255   6.033  1.7433  0.2133 -1.0775
13256TIP3   OH261182   6.486   1.845  11.179  0.0422 -0.1213 -0.4400
13256TIP3    H161183   6.435   1.906  11.125 -1.0843  0.4898  1.2309
13256TIP3    H261184   6.547   1.804  11.117  0.1061  1.9021 -1.8208
13257TIP3   OH261185   4.737   0.828  14.852 -0.0606 -0.2640 -0.0066
13257TIP3    H161186   4.804   0.835  14.784 -0.3640 -0.0124 -0.2789
13257TIP3    H261187   4.764   0.752  14.904  1.9443  1.3642  1.5201
13258TIP3   OH261188   0.377   0.829   0.342 -0.3262 -0.6725 -0.5735
13258TIP3    H161189   0.454   0.865   0.385 -0.8570 -0.8839  0.5988
13258TIP3    H261190   0.371   0.875   0.259  0.9645 -0.5377 -0.5971
13259TIP3   OH261191   2.869   0.282  11.705  0.0797  0.5381 -0.1488
13259TIP3    H161192   2.839   0.264  11.616  1.1632 -2.8669  0.0293
13259TIP3    H261193   2.855   0.200  11.752  1.1655  1.6857  2.3638
13260TIP3   OH261194   5.151   6.045   1.564  0.1433  0.1871  0.2086
13260TIP3    H161195   5.214   6.068   1.631 -1.2912 -0.0178  1.6832
13260TIP3    H261196   5.185   6.086   1.484  1.8379  0.5105  1.0567
13261TIP3   OH261197   4.600   3.497  16.341  0.6670 -0.7893 -0.4182
13261TIP3    H161198   4.666   3.516  16.408  0.8825 -0.2114 -0.7905
13261TIP3    H261199   4.650   3.466  16.266  0.4983 -0.5869 -0.6151
13262TIP3   OH261200   4.713   2.903   1.396  0.3479  0.8769 -0.4894
13262TIP3    H161201   4.685   2.930   1.309  0.6142  2.0037 -0.2415
13262TIP3    H261202   4.702   2.808   1.396 -1.9983  1.0843 -0.9119
13263TIP3   OH261203   3.613   4.079   2.152 -0.1500 -0.1229 -0.3446
13263TIP3    H161204   3.691   4.070   2.208  0.0041 -0.3678 -0.5930
13263TIP3    H261205   3.628   4.159   2.103 -2.0184  2.2743  2.6478
13264TIP3   OH261206   2.864   2.664  11.392 -0.4507  0.0155  0.1099
13264TIP3    H161207   2.954   2.687  11.370 -0.2636 -0.0477  0.8108
13264TIP3    H261208   2.822   2.650  11.307  0.5722 -1.3939 -0.2015
13265TIP3   OH261209   3.849   3.624   1.102  0.0961 -0.4718  0.7007
13265TIP3    H161210   3.825   3.573   1.179 -0.1651 -0.5713  0.5549
13265TIP3    H261211   3.831   3.714   1.126 -0.0291 -0.5072  0.7394
13266TIP3   OH261212   5.201   3.109  10.906  0.0203 -0.3062 -0.3813
13266TIP3    H161213   5.113   3.078  10.889 -0.2373  0.9329 -1.4633
13266TIP3    H261214   5.198   3.142  10.996 -1.0227  1.0136 -0.8717
13267TIP3   OH261215   5.157   2.146  12.300 -0.4080 -0.6762 -0.4844
13267TIP3    H161216   5.220   2.201  12.346 -1.4833 -1.3933  1.9680
13267TIP3    H261217   5.206   2.112  12.224  0.9233  1.8541 -0.8654
13268TIP3   OH261218   1.768   2.450  14.936  0.4190 -0.3739  0.1701
13268TIP3    H161219   1.754   2.545  14.930  1.0995 -0.2394  0.6372
13268TIP3    H261220   1.786   2.434  15.029 -0.1091 -1.0208  0.1669
13269TIP3   OH261221   5.771   3.444  13.666 -0.8754  0.1386 -0.4294
13269TIP3    H161222   5.756   3.407  13.752 -0.5664 -0.6152 -0.6961
13269TIP3    H261223   5.738   3.534  13.672 -1.2055 -0.0353  0.3514
13270TIP3   OH261224   5.342   5.592   0.796 -0.1323 -0.3906  0.1544
13270TIP3    H161225   5.248   5.576   0.808 -0.3349  0.2964 -0.3930
13270TIP3    H261226   5.361   5.558   0.709  0.1088 -0.4454  0.2289
13271TIP3   OH261227   0.341   5.894  16.390  0.4738 -0.7453 -0.3212
13271TIP3    H161228   0.355   5.988  16.378 -0.2989 -0.7073 -1.0323
13271TIP3    H261229   0.367   5.877  16.481  0.4500  0.1908 -0.1300
13272TIP3   OH261230   0.233   1.069   1.123  0.0535  0.7496 -0.1202
13272TIP3    H161231   0.188   0.997   1.080  2.9748 -0.1151 -1.9909
13272TIP3    H261232   0.210   1.146   1.070 -2.9804  1.3721  1.8185
13273TIP3   OH261233   6.345   2.517   2.119 -1.1469  0.0445 -0.5980
13273TIP3    H161234   6.357   2.422   2.113  0.2171  0.2435 -1.2969
13273TIP3    H261235   6.283   2.538   2.049 -1.1539 -0.2885 -0.6925
13274TIP3   OH261236   4.916   0.308   0.361  0.5702  0.0166 -0.1633
13274TIP3    H161237   4.878   0.378   0.414  0.7174 -0.6808  0.8843
13274TIP3    H261238   4.990   0.348   0.317 -0.3611  0.9653 -0.9339
13275TIP3   OH261239   2.753   5.670  10.075  0.3124 -0.1549  0.0952
13275TIP3    H161240   2.738   5.630  10.161 -1.4046  1.4381  0.6122
13275TIP3    H261241   2.678   5.642  10.022  0.8236 -0.2870 -0.5798
13276TIP3   OH261242   6.083   2.968   4.792  0.7192 -0.5875  0.1337
13276TIP3    H161243   6.148   2.950   4.724  2.8280 -2.3128  2.4025
13276TIP3    H261244   6.132   3.014   4.860 -0.5934 -1.2399  1.5824
13277TIP3   OH261245   4.559   3.221   3.557  0.4643 -0.3193  0.2682
13277TIP3    H161246   4.522   3.180   3.480 -1.3664  1.1890  0.2794
13277TIP3    H261247   4.641   3.261   3.527 -0.7715  1.2128 -1.2115
13278TIP3   OH261248   5.348   0.843   2.219 -0.1593 -0.0930 -0.0800
13278TIP3    H161249   5.322   0.843   2.311 -0.8934 -0.5181 -0.2828
13278TIP3    H261250   5.361   0.935   2.198  0.6214 -0.0307  0.6106
13279TIP3   OH261251   1.804   0.085   2.070 -0.2677 -0.5615 -0.4904
13279TIP3    H161252   1.766   0.054   2.152 -0.2909  0.0295 -0.2751
13279TIP3    H261253   1.794   0.180   2.073  0.7150 -0.4384 -0.6842
13280TIP3   OH261254   4.692   6.066   6.106 -0.0146 -0.4958 -0.5611
13280TIP3    H161255   4.648   6.142   6.069  1.1036  0.5248  0.1239
13280TIP3    H261256   4.625   5.998   6.107 -1.3205  0.7427 -0.3596
13281TIP3   OH261257   2.711   1.129  16.289 -0.2898 -0.2100 -0.2375
13281TIP3    H161258   2.649   1.158  16.356  0.1460 -0.4542  0.2731
13281TIP3    H261259   2.769   1.067  16.334  1.7868  1.7098 -0.0686
13282TIP3   OH261260   4.913   6.495   1.351  0.3587  0.0851 -0.0190
13282TIP3    H161261   4.934   6.464   1.263 -0.0257  1.0479 -0.4706
13282TIP3    H261262   4.819   6.512   1.348  0.2399 -0.3950  0.7573
13283TIP3   OH261263   0.947   0.632  14.645 -0.1889 -0.0217 -0.2577
13283TIP3    H161264   0.919   0.607  14.557  2.2388  0.4501 -1.2381
13283TIP3    H261265   0.948   0.727  14.645 -0.0010 -0.0185  0.2179
13284TIP3   OH261266   2.404   2.173   0.001 -0.1107  0.3021 -0.0913
13284TIP3    H161267   2.491   2.179   0.041 -0.0149 -0.3943 -0.1765
13284TIP3    H261268   2.372   2.087   0.029  0.3152 -0.6019 -2.2117
13285TIP3   OH261269   4.021   1.453   4.083  0.6385  0.1300 -0.1439
13285TIP3    H161270   4.089   1.504   4.126  2.3402 -1.3166 -1.0083
13285TIP3    H261271   3.971   1.414   4.155  0.7804  1.1245  0.5052
13286TIP3   OH261272   3.949   2.189  15.704  0.6501 -0.4032 -0.2585
13286TIP3    H161273   3.943   2.157  15.794 -1.3582  0.3529 -0.0538
13286TIP3    H261274   4.042   2.199  15.688  1.0625 -0.6179  1.7233
13287TIP3   OH261275   6.511   1.060   3.289  0.3976  0.3419  0.0919
13287TIP3    H161276   6.523   0.971   3.322 -0.2748  0.2006 -0.0483
13287TIP3    H261277   6.513   1.052   3.194 -0.3368  0.3803  0.0694
13288TIP3   OH261278   2.732   0.145   6.031 -0.1586  0.1283  0.5554
13288TIP3    H161279   2.724   0.149   6.126 -0.4819 -0.4452  0.5546
13288TIP3    H261280   2.709   0.233   6.001  0.3040  0.4144  1.0294
13289TIP3   OH261281   1.118   6.604   0.876  0.2899  0.2322 -0.2061
13289TIP3    H161282   1.163   6.601   0.961  0.0862 -0.1608 -0.1103
13289TIP3    H261283   1.032   6.640   0.896  0.6718  1.3382 -0.4474
13290TIP3   OH261284   6.459   6.123  11.472  0.3801  0.4083 -0.3110
13290TIP3    H161285   6.489   6.096  11.558 -1.6704  1.0817  0.6833
13290TIP3    H261286   6.440   6.217  11.481 -1.2652  0.1787 -1.0409
13291TIP3   OH261287   2.135   3.408  13.396 -0.0010  0.3320 -0.3503
13291TIP3    H161288   2.156   3.477  13.332 -1.0877 -0.0312 -1.1110
13291TIP3    H261289   2.181   3.436  13.476  0.4175  1.4016 -0.9371
13292TIP3   OH261290   2.084   5.552   3.628  0.0185 -0.5198 -0.2656
13292TIP3    H161291   2.177   5.576   3.631  0.2801 -1.4371 -0.7290
13292TIP3    H261292   2.052   5.592   3.547 -1.2425  3.9454  2.0703
13293TIP3   OH261293   5.432   0.664  16.022 -0.3886  0.1111  0.1492
13293TIP3    H161294   5.353   0.692  16.069 -0.5124 -1.5784  1.0293
13293TIP3    H261295   5.399   0.609  15.951 -0.0616  0.3542 -0.1923
13294TIP3   OH261296   3.722   2.965  12.052 -0.0562  0.1703  0.1085
13294TIP3    H161297   3.738   2.950  12.145  0.6705  0.1043 -0.0226
13294TIP3    H261298   3.640   3.014  12.049 -0.0490  0.2308  0.7853
13295TIP3   OH261299   0.398   4.411   3.296 -0.4856 -0.4919 -0.5049
13295TIP3    H161300   0.452   4.491   3.297  2.0236 -2.0710  1.0083
13295TIP3    H261301   0.352   4.412   3.380 -0.2115 -0.7991 -0.3518
13296TIP3   OH261302   2.761   0.819  15.000  0.5668  0.2923  0.4421
13296TIP3    H161303   2.815   0.885  15.044  0.4655 -0.4157  1.6934
13296TIP3    H261304   2.682   0.866  14.975  0.8641  0.8496  0.5278
13297TIP3   OH261305   5.915   5.719   2.259  0.3702  0.3506  0.1887
13297TIP3    H161306   5.956   5.790   2.209  1.1677 -0.2778 -0.0669
13297TIP3    H261307   5.847   5.685   2.200  1.1791 -0.2620 -0.4138
13298TIP3   OH261308   4.909   2.296   2.952 -0.3092  0.1862 -0.0614
13298TIP3    H161309   4.903   2.258   3.040  1.7173 -0.9037 -0.3320
13298TIP3    H261310   4.900   2.390   2.966 -0.7067 -0.0116  1.2095
13299TIP3   OH261311   6.061   4.060  13.229  0.2538  0.0289 -0.3928
13299TIP3    H161312   5.967   4.060  13.210  0.5502  1.3093 -2.1513
13299TIP3    H261313   6.068   4.028  13.319 -1.7760 -1.0793 -0.5771
13300TIP3   OH261314   1.607   4.714  11.292 -0.2287 -0.3250  0.7932
13300TIP3    H161315   1.695   4.677  11.282  0.4346  1.5582 -1.0042
13300TIP3    H261316   1.571   4.714  11.204 -1.9610 -0.7946  1.4613
13301TIP3   OH261317   0.743   4.477  10.106  0.6447  0.1257  0.6099
13301TIP3    H161318   0.828   4.487  10.148  0.6065 -0.0945  0.7399
13301TIP3    H261319   0.758   4.414  10.035  0.6007  0.1228  0.6030
13302TIP3   OH261320   2.893   5.367   1.272  0.1668 -0.1893  0.1305
13302TIP3    H161321   2.922   5.458   1.261 -0.9795  0.1191 -0.4971
13302TIP3    H261322   2.884   5.333   1.183 -1.5789 -0.1829  0.2677
13303TIP3   OH261323   4.349   4.549  13.106 -0.2497 -0.0600  0.4245
13303TIP3    H161324   4.264   4.507  13.092 -0.4605 -0.3024  2.1386
13303TIP3    H261325   4.403   4.522  13.031 -1.4224 -0.5822 -0.2535
13304TIP3   OH261326   1.183   0.097   1.883 -0.6933 -0.3392 -0.1912
13304TIP3    H161327   1.147   0.116   1.796 -2.9501 -0.1183  0.7321
13304TIP3    H261328   1.159   0.006   1.900 -0.4971 -0.2967  0.3322
13305TIP3   OH261329   5.513   3.584   5.073  0.2301 -0.0032 -0.1787
13305TIP3    H161330   5.522   3.645   5.000  0.6192 -1.0316 -1.0109
13305TIP3    H261331   5.595   3.592   5.122  0.2147  0.2459 -0.1921
13306TIP3   OH261332   3.798   4.605  16.596 -0.4511  0.1753 -0.1834
13306TIP3    H161333   3.793   4.586  16.690  1.7709  1.4484  0.2785
13306TIP3    H261334   3.770   4.696  16.588 -0.1683  0.2263 -0.6588
13307TIP3   OH261335   4.472   4.544   5.051  0.3869  0.1243 -0.0176
13307TIP3    H161336   4.486   4.638   5.057  2.9456 -0.0295 -1.9769
13307TIP3    H261337   4.543   4.506   5.104 -0.2378 -0.7263  0.2312
13308TIP3   OH261338   1.183   2.891  11.857 -0.1328  0.1777 -0.5741
13308TIP3    H161339   1.185   2.978  11.895  0.0727  0.1122 -0.4291
13308TIP3    H261340   1.090   2.871  11.845 -0.2434 -0.0707  0.5290
13309TIP3   OH261341   2.903   5.053   6.266 -0.3651  0.0306 -0.2295
13309TIP3    H161342   2.811   5.028   6.263 -0.8473  1.4730  1.4041
13309TIP3    H261343   2.950   4.970   6.253 -1.8915 -1.0385  0.7195
13310TIP3   OH261344   1.488   1.511   0.168 -0.5915 -0.5920  0.5211
13310TIP3    H161345   1.431   1.520   0.243  2.1860  0.5490  2.6821
13310TIP3    H261346   1.522   1.421   0.173 -1.3566 -0.9375 -0.1759
13311TIP3   OH261347   0.941   6.297  15.280  0.0968 -0.1588  0.1897
13311TIP3    H161348   0.855   6.271  15.314  0.3564  1.9982  2.7933
13311TIP3    H261349   0.932   6.390  15.260  2.1728  0.4653  1.8490
13312TIP3   OH261350   1.381   0.358   6.420  0.1457 -0.0359 -0.0853
13312TIP3    H161351   1.427   0.430   6.462 -0.1353 -0.4739  1.0236
13312TIP3    H261352   1.290   0.368   6.448 -0.1529 -0.0778 -0.9875
13313TIP3   OH261353   0.636   0.223   3.502  0.1187 -0.0330  0.4501
13313TIP3    H161354   0.638   0.281   3.578 -0.3991 -0.6603  0.9461
13313TIP3    H261355   0.586   0.146   3.530 -0.9129  0.1270 -0.8008
13314TIP3   OH261356   3.297   5.560   3.819  0.3196  0.9376 -0.1958
13314TIP3    H161357   3.371   5.560   3.880 -0.0394  0.7770  0.2516
13314TIP3    H261358   3.334   5.588   3.736  1.1647 -0.4048 -0.3086
13315TIP3   OH261359   0.070   4.621   3.895 -0.2801  0.4622  0.2727
13315TIP3    H161360  -0.011   4.662   3.925 -0.5517 -0.3690  0.7006
13315TIP3    H261361   0.077   4.647   3.803 -0.6672  1.0946  0.4136
13316TIP3   OH261362   1.691   4.284  15.354  0.1597 -0.2041 -0.5217
13316TIP3    H161363   1.770   4.231  15.363 -0.5251 -1.5118 -1.8143
13316TIP3    H261364   1.633   4.254  15.424  0.9045  1.0539  0.7013
13317TIP3   OH261365   2.320   3.790  14.872  0.0520  0.1184  0.2855
13317TIP3    H161366   2.328   3.739  14.953  0.9639  2.4952  1.8043
13317TIP3    H261367   2.230   3.824  14.874 -0.1233 -0.3159 -0.0359
13318TIP3   OH261368   5.148   4.270   4.593  0.0704 -0.1518  0.5892
13318TIP3    H161369   5.192   4.311   4.668 -0.6288  2.2263 -0.1963
13318TIP3    H261370   5.202   4.294   4.518  0.7332 -2.4587  0.2539
13319TIP3   OH261371   5.430   3.289  12.566 -0.3664  0.4875  0.2603
13319TIP3    H161372   5.425   3.252  12.654  0.3160 -2.0533 -0.6667
13319TIP3    H261373   5.519   3.270  12.537 -0.4252  1.7274 -0.8141
13320TIP3   OH261374   3.989   4.049  13.945 -0.6938 -0.1731  0.2767
13320TIP3    H161375   4.074   4.035  13.903 -0.0046  0.5467  1.3821
13320TIP3    H261376   3.937   4.095  13.879 -0.7456 -1.8279 -0.9295
13321TIP3   OH261377   2.330   0.713   2.754  0.1882  0.3464  0.2269
13321TIP3    H161378   2.246   0.733   2.796 -1.0091  0.4379 -2.0496
13321TIP3    H261379   2.350   0.624   2.783 -1.2382 -0.0669  0.0230
13322TIP3   OH261380   1.052   3.328  12.303 -0.6064 -0.2703 -0.3120
13322TIP3    H161381   1.044   3.264  12.373 -1.7810 -1.7852 -1.7501
13322TIP3    H261382   1.084   3.407  12.346 -1.6523 -1.0147  1.9911
13323TIP3   OH261383   4.957   1.143   3.840  0.2957 -0.4352 -0.2080
13323TIP3    H161384   4.995   1.198   3.771 -0.4241 -0.7479 -0.8646
13323TIP3    H261385   4.885   1.195   3.876 -0.3248 -0.8994 -0.7644
13324TIP3   OH261386   2.795   2.104   5.598  0.3598 -0.2533  0.0849
13324TIP3    H161387   2.825   2.016   5.617  1.3825 -0.1427 -0.8726
13324TIP3    H261388   2.872   2.148   5.561 -0.5956  0.4899 -1.1208
13325TIP3   OH261389   4.737   5.945   1.582 -0.2222 -0.2588  0.3918
13325TIP3    H161390   4.727   5.861   1.627 -2.4699 -0.1263  0.2390
13325TIP3    H261391   4.776   6.003   1.648  0.3156 -1.1199  0.8461
13326TIP3   OH261392   6.428   4.850  16.247  0.7602 -0.6382  0.1627
13326TIP3    H161393   6.360   4.848  16.179  0.9982 -0.5761 -0.0805
13326TIP3    H261394   6.388   4.808  16.323 -0.4373  1.6191  0.8748
13327TIP3   OH261395   2.540   0.444  14.633 -0.3984 -0.3837 -0.0800
13327TIP3    H161396   2.571   0.513  14.576  0.3385  0.0012  0.7573
13327TIP3    H261397   2.499   0.490  14.707 -0.0078 -0.8279  0.4276
13328TIP3   OH261398   3.227   4.335  11.878  0.5311  0.4147 -0.2164
13328TIP3    H161399   3.287   4.327  11.804  0.8059  1.1607 -0.0772
13328TIP3    H261400   3.222   4.246  11.914 -0.3323 -0.1633 -1.6758
13329TIP3   OH261401   1.901   1.332  15.705  0.1209  0.5327  0.6266
13329TIP3    H161402   1.809   1.327  15.678 -0.0977 -1.6212  1.5952
13329TIP3    H261403   1.915   1.254  15.759  2.4717  0.9059  0.6719
13330TIP3   OH261404   2.594   1.408  12.162  0.2152 -0.2033 -0.8005
13330TIP3    H161405   2.536   1.344  12.204  0.9376 -0.5426 -0.2925
13330TIP3    H261406   2.538   1.484  12.146 -0.5261 -0.7620 -0.9220
13331TIP3   OH261407   5.993   1.163   3.911 -0.8300 -0.2062  0.1104
13331TIP3    H161408   5.954   1.193   3.994 -1.2611 -0.6546  0.0763
13331TIP3    H261409   5.971   1.070   3.907  3.9518 -1.7368  2.2611
13332TIP3   OH261410   4.002   6.305  10.605  0.1454 -0.0077  0.3276
13332TIP3    H161411   3.907   6.295  10.611  0.3786 -1.4424  2.2410
13332TIP3    H261412   4.032   6.224  10.564  0.6125  0.1622  0.3284
13333TIP3   OH261413   4.506   4.830   2.884 -0.4080 -0.5837  0.0070
13333TIP3    H161414   4.491   4.855   2.793 -0.2617 -1.3032 -0.2240
13333TIP3    H261415   4.593   4.790   2.884 -1.4807 -3.1420 -0.1118
13334TIP3   OH261416   4.490   6.091  15.577 -0.1658  0.4302 -0.8241
13334TIP3    H161417   4.482   6.155  15.507  1.0235  2.4226  0.7563
13334TIP3    H261418   4.418   6.030  15.563 -1.8169  2.5353 -1.9931
13335TIP3   OH261419   3.746   6.127   0.290  0.5307  0.3532 -0.5934
13335TIP3    H161420   3.707   6.214   0.297 -0.2494  0.1672 -2.1479
13335TIP3    H261421   3.780   6.123   0.200  1.2117 -0.6825 -0.3044
13336TIP3   OH261422   4.248   3.409   0.402 -0.1403  0.1093  0.1795
13336TIP3    H161423   4.196   3.485   0.428  0.0588 -0.0493  1.0726
13336TIP3    H261424   4.219   3.339   0.461  2.6354  0.5749  2.2660
13337TIP3   OH261425   1.649   3.715  15.322  0.2390  0.2957  0.5626
13337TIP3    H161426   1.560   3.713  15.357 -0.1230  1.1859 -0.2647
13337TIP3    H261427   1.651   3.793  15.266  1.6071  0.4207  0.7553
13338TIP3   OH261428   3.121   1.935   5.570 -0.1005  0.9995  0.3106
13338TIP3    H161429   3.054   1.875   5.602  0.2399  0.5440  0.1956
13338TIP3    H261430   3.173   1.957   5.647  0.5259  0.1541  0.1501
13339TIP3   OH261431   1.573   1.484   5.212  0.1908  0.9161 -0.1531
13339TIP3    H161432   1.661   1.514   5.192 -0.0722  0.7379 -1.7394
13339TIP3    H261433   1.544   1.439   5.132 -1.3366  0.9917  0.3155
13340TIP3   OH261434   6.504   6.005  15.352  0.1868 -0.7462  0.2031
13340TIP3    H161435   6.553   6.061  15.292  0.2231 -1.0239 -0.0278
13340TIP3    H261436   6.425   5.981  15.303 -0.7584  0.6307  0.9749
13341TIP3   OH261437   2.623   0.799  13.257 -0.3592  0.1680 -0.0385
13341TIP3    H161438   2.542   0.774  13.301  0.1240 -0.7700  0.3466
13341TIP3    H261439   2.595   0.827  13.170 -1.1307  0.1688  0.2006
13342TIP3   OH261440   4.439   5.005   2.162 -0.2378  0.3217  0.1347
13342TIP3    H161441   4.449   4.914   2.192 -0.3522  0.1158 -0.4308
13342TIP3    H261442   4.351   5.008   2.126 -0.4363  0.8127  0.6485
13343TIP3   OH261443   4.552   5.939   2.838  0.9798 -0.2188 -0.0187
13343TIP3    H161444   4.528   6.011   2.780  1.9444 -1.1075 -1.5919
13343TIP3    H261445   4.555   5.978   2.925 -1.2236  1.0104 -0.4115
13344TIP3   OH261446   0.159   2.701   2.862  0.1257  0.2843 -0.6057
13344TIP3    H161447   0.251   2.729   2.869 -0.1158  1.3866 -1.4983
13344TIP3    H261448   0.110   2.773   2.901 -0.3783 -0.1612 -0.4151
13345TIP3   OH261449   0.673   0.655   5.448  0.6553  0.2935  0.2653
13345TIP3    H161450   0.699   0.679   5.537  0.5871  1.9050 -0.1065
13345TIP3    H261451   0.578   0.664   5.448  0.3165 -2.5647  0.7805
13346TIP3   OH261452   5.912   1.559  12.339  0.1429  0.2958  0.3098
13346TIP3    H161453   5.943   1.645  12.365  0.1860  0.7197 -1.0444
13346TIP3    H261454   5.879   1.572  12.250 -1.5078 -0.7035  0.7448
13347TIP3   OH261455   3.674   5.369  16.702  0.3220 -1.0605 -0.2073
13347TIP3    H161456   3.735   5.309  16.745  2.4437  1.9766  1.4158
13347TIP3    H261457   3.702   5.456  16.730 -4.1119  0.6775 -0.2788
13348TIP3   OH261458   2.585   5.802   0.690  0.6070 -0.1493  0.0987
13348TIP3    H161459   2.572   5.775   0.599 -2.4346  0.7905  0.1461
13348TIP3    H261460   2.642   5.879   0.685  2.4398 -1.4860 -0.7274
13349TIP3   OH261461   1.654   4.662   0.471 -0.5020 -0.7180 -0.1802
13349TIP3    H161462   1.739   4.631   0.503 -0.0808 -0.1784 -0.7545
13349TIP3    H261463   1.592   4.635   0.539  0.1594 -0.8833  0.3754
13350TIP3   OH261464   1.148   4.742  12.355 -0.2276 -0.4335  0.1275
13350TIP3    H161465   1.080   4.808  12.363 -2.1409 -2.1887 -0.7591
13350TIP3    H261466   1.228   4.786  12.384 -1.5028  2.0575  0.0984
13351TIP3   OH261467   3.599   0.099  12.225 -0.6039 -0.1122  0.2383
13351TIP3    H161468   3.525   0.076  12.169 -0.8946 -1.5932  1.1459
13351TIP3    H261469   3.625   0.186  12.198 -2.1128  0.0682 -0.7148
13352TIP3   OH261470   6.163   1.827  16.092 -0.0763  0.2233 -0.3171
13352TIP3    H161471   6.180   1.778  16.012  0.8669  1.3075 -0.8181
13352TIP3    H261472   6.244   1.877  16.107 -1.3809  2.5659 -0.5476
13353TIP3   OH261473   1.903   1.248  11.731 -0.5303 -0.2101  0.3034
13353TIP3    H161474   1.913   1.203  11.647 -2.7152 -0.0704 -0.0841
13353TIP3    H261475   1.923   1.340  11.711 -0.9499 -0.1935 -0.0412
13354TIP3   OH261476   4.822   4.344  16.710 -0.1247 -0.5253  0.3116
13354TIP3    H161477   4.774   4.425  16.697  0.6851  0.0483  0.7698
13354TIP3    H261478   4.757   4.282  16.744 -0.2809  0.6102  2.2102
13355TIP3   OH261479   2.834   4.789   4.881  0.0583 -0.3852 -0.9909
13355TIP3    H161480   2.755   4.815   4.833 -1.1410  0.1823  1.1592
13355TIP3    H261481   2.905   4.838   4.839 -1.3441  2.2305 -0.5266
13356TIP3   OH261482   5.411   5.718   5.667  0.6221  0.1507 -0.8203
13356TIP3    H161483   5.438   5.798   5.623  1.3792  0.0445 -0.5589
13356TIP3    H261484   5.398   5.743   5.758 -0.5489  0.2805 -1.0034
13357TIP3   OH261485   3.797   2.667  15.211  0.3529 -0.1679 -0.1332
13357TIP3    H161486   3.782   2.600  15.278  0.0535 -0.3553 -0.3860
13357TIP3    H261487   3.739   2.739  15.236 -0.3432 -0.5469 -0.6208
13358TIP3   OH261488   4.591   6.303   4.952 -0.2740  0.2478 -0.4034
13358TIP3    H161489   4.658   6.356   4.908  0.4908  1.0305  1.5735
13358TIP3    H261490   4.578   6.346   5.036 -0.9408 -1.7197  0.5621
13359TIP3   OH261491   2.370   2.433   6.104  0.0939 -0.0116  0.3388
13359TIP3    H161492   2.334   2.344   6.104 -1.9585  0.7499 -0.8641
13359TIP3    H261493   2.301   2.487   6.140  0.7719  1.2936 -0.2394
13360TIP3   OH261494   0.369   6.583  11.405 -0.3481  0.0497  0.4555
13360TIP3    H161495   0.291   6.531  11.388 -1.6425  1.8091  0.7425
13360TIP3    H261496   0.410   6.593  11.319 -0.4276 -0.8789  0.3026
13361TIP3   OH261497   1.380   2.925   1.436 -0.6911  0.5306 -0.5935
13361TIP3    H161498   1.286   2.929   1.418 -1.1052 -1.0726  0.9988
13361TIP3    H261499   1.388   2.949   1.528  0.1835 -1.4288 -0.1031
13362TIP3   OH261500   1.045   6.331  14.202 -0.4383 -0.4099  0.2399
13362TIP3    H161501   1.129   6.297  14.172  0.0049  0.7774  0.0772
13362TIP3    H261502   0.987   6.255  14.201  1.0473 -1.6615  2.0374
13363TIP3   OH261503   5.108   0.729   0.281 -0.0577 -0.5119  0.4491
13363TIP3    H161504   5.064   0.704   0.363 -1.3151  0.8940  0.2529
13363TIP3    H261505   5.038   0.768   0.228  1.3884  1.8588  0.1270
13364TIP3   OH261506   5.158   5.862   2.096 -0.0948 -0.3092  0.5443
13364TIP3    H161507   5.177   5.897   2.183 -0.3007  0.3441  0.3315
13364TIP3    H261508   5.170   5.767   2.105  0.2268 -0.2132  1.1927
13365TIP3   OH261509   2.563   3.643  12.477 -0.2279  0.3417  0.4136
13365TIP3    H161510   2.558   3.642  12.382 -0.1007 -1.2477  0.4036
13365TIP3    H261511   2.524   3.560  12.505 -1.2509  1.2304  1.8202
13366TIP3   OH261512   6.179   4.348  15.872 -0.0968  0.6724 -0.3680
13366TIP3    H161513   6.252   4.361  15.932 -0.7292  0.2495  0.5094
13366TIP3    H261514   6.129   4.276  15.910 -1.9471  2.0730  0.0316
13367TIP3   OH261515   0.248   0.109  10.217 -1.0172  0.1861 -0.5876
13367TIP3    H161516   0.312   0.121  10.288 -1.3297  0.5267 -0.3575
13367TIP3    H261517   0.289   0.046  10.158 -0.8397 -0.2616  0.0035
13368TIP3   OH261518   2.213   1.708   4.562  0.3236 -0.1860  0.2958
13368TIP3    H161519   2.229   1.713   4.656  1.4778 -0.1839  0.1112
13368TIP3    H261520   2.205   1.615   4.544 -2.3100 -0.1387  0.7386
13369TIP3   OH261521   0.541   1.151   0.025 -0.1273  0.2095  0.0723
13369TIP3    H161522   0.634   1.133   0.013  0.2328  0.1634  2.3537
13369TIP3    H261523   0.529   1.240  -0.010  0.3458 -0.4214 -1.8019
13370TIP3   OH261524   2.719   6.144  15.717 -0.3305  0.4680  0.1939
13370TIP3    H161525   2.724   6.051  15.695  0.5789  1.2818 -4.0331
13370TIP3    H261526   2.809   6.175  15.710 -0.3416  1.4976  3.2097
13371TIP3   OH261527   0.015   0.251   0.636 -0.1289 -0.0390 -0.5868
13371TIP3    H161528   0.028   0.276   0.545 -0.5292  0.5143 -0.4933
13371TIP3    H261529   0.103   0.235   0.670  0.1738  1.5780 -0.5513
13372TIP3   OH261530   5.190   5.899  15.932  0.6141  0.1854 -0.4040
13372TIP3    H161531   5.270   5.951  15.944 -0.4863  1.4112  2.3925
13372TIP3    H261532   5.168   5.910  15.839  1.9292  2.4988 -0.5103
13373TIP3   OH261533   3.831   1.321  10.524  0.4778 -0.2206  0.6424
13373TIP3    H161534   3.905   1.366  10.564  0.4117  0.2671  0.2306
13373TIP3    H261535   3.863   1.294  10.438 -0.4169  1.8451 -0.4218
13374TIP3   OH261536   3.889   2.304   0.801 -0.2152 -0.9062  0.0037
13374TIP3    H161537   3.830   2.237   0.768 -0.9866 -0.5124  0.5388
13374TIP3    H261538   3.947   2.258   0.862 -1.5492 -0.9095  1.3462
13375TIP3   OH261539   6.400   3.297   2.627  0.9742  0.1446  0.1743
13375TIP3    H161540   6.361   3.318   2.543  0.4300 -0.0142  0.3784
13375TIP3    H261541   6.333   3.322   2.691  0.8632 -0.9039  0.4859
13376TIP3   OH261542   1.563   0.841  10.458  0.1328  0.0720 -0.0971
13376TIP3    H161543   1.470   0.835  10.478  0.2040  0.4821  0.3863
13376TIP3    H261544   1.592   0.750  10.452 -0.1063 -0.0637  0.6796
13377TIP3   OH261545   0.586   2.850   1.051 -0.4235  0.4330  0.0251
13377TIP3    H161546   0.556   2.823   0.964 -1.0288  1.3774 -0.0718
13377TIP3    H261547   0.637   2.929   1.036 -1.2238  1.0823  0.5949
13378TIP3   OH261548   0.317   5.056  13.072  0.2691 -0.0676  0.3820
13378TIP3    H161549   0.236   5.006  13.069  0.1994 -0.2380  3.0841
13378TIP3    H261550   0.343   5.056  13.164  3.4071 -0.0816 -0.3768
13379TIP3   OH261551   1.696   1.721  13.752 -0.4112  0.1159  0.2572
13379TIP3    H161552   1.607   1.756  13.751 -0.3006  0.3967  0.2253
13379TIP3    H261553   1.722   1.725  13.844  0.5683  2.5952 -0.0510
13380TIP3   OH261554   5.470   0.138  11.399  0.0869 -0.2135 -0.0935
13380TIP3    H161555   5.407   0.203  11.368 -0.1825 -0.4851 -0.1203
13380TIP3    H261556   5.507   0.177  11.478 -0.0847 -0.0322 -0.0989
13381TIP3   OH261557   0.535   4.710   4.694 -0.3422  0.2144  0.2923
13381TIP3    H161558   0.481   4.663   4.629 -0.7614  0.5204  0.4144
13381TIP3    H261559   0.526   4.658   4.774  0.9120 -0.6780 -0.1135
13382TIP3   OH261560   1.875   5.209   2.631  0.5541  0.2356  0.6407
13382TIP3    H161561   1.787   5.194   2.667  0.3440 -0.7072 -0.2279
13382TIP3    H261562   1.903   5.123   2.600  0.6643  1.0109 -1.5871
13383TIP3   OH261563   6.258   5.448  13.205  0.2073  0.2625 -0.1264
13383TIP3    H161564   6.253   5.517  13.271 -1.3682 -0.5293  0.6231
13383TIP3    H261565   6.348   5.417  13.210  0.8135  1.9255 -0.1449
13384TIP3   OH261566   0.642   5.488  16.728 -0.4195 -0.0785  0.1840
13384TIP3    H161567   0.596   5.545  16.667  1.2444 -0.7975 -1.8860
13384TIP3    H261568   0.711   5.448  16.675 -0.0822 -2.2407  2.1030
13385TIP3   OH261569   4.302   5.382  14.264  0.4892  0.6119 -0.0117
13385TIP3    H161570   4.378   5.403  14.209 -0.2566  0.6305 -1.0584
13385TIP3    H261571   4.235   5.353  14.203 -0.4842  0.9448  0.8644
13386TIP3   OH261572   0.922   2.707   5.813 -0.0818 -0.6254  0.1055
13386TIP3    H161573   0.836   2.749   5.819  0.3014  0.0816  0.8769
13386TIP3    H261574   0.921   2.641   5.882 -0.1738 -0.9407 -0.1953
13387TIP3   OH261575   0.745   2.376  13.031 -0.1227 -0.6498 -0.0812
13387TIP3    H161576   0.782   2.392  13.118 -1.3033 -1.4738  0.6186
13387TIP3    H261577   0.738   2.462  12.991  1.5764 -0.3840  0.1418
13388TIP3   OH261578   5.786   2.333  14.444  0.2077 -0.2835 -0.0670
13388TIP3    H161579   5.808   2.331  14.537  2.1290 -0.2116 -0.4718
13388TIP3    H261580   5.822   2.416  14.412 -2.7071  0.9781 -0.4305
13389TIP3   OH261581   0.602   3.963  15.717 -0.0386 -0.0586 -0.3861
13389TIP3    H161582   0.548   3.888  15.692  0.8838 -1.5577  1.7809
13389TIP3    H261583   0.540   4.028  15.749 -0.7465 -0.5967 -0.6359
13390TIP3   OH261584   0.112   4.343   5.391  0.1657  0.3499 -0.3965
13390TIP3    H161585   0.032   4.392   5.410 -0.9096 -1.2303 -0.7057
13390TIP3    H261586   0.108   4.324   5.298  1.1543  0.6590 -0.5158
13391TIP3   OH261587   0.024   0.171  14.281 -0.2798 -0.5581 -0.0147
13391TIP3    H161588   0.022   0.158  14.186  0.6579 -2.1837  0.1448
13391TIP3    H261589   0.093   0.235  14.295 -0.0438 -0.7224 -0.4002
13392TIP3   OH261590   3.654   0.454   0.181  0.4172  0.3042  0.3650
13392TIP3    H161591   3.594   0.416   0.116  0.6960 -0.3009  0.4561
13392TIP3    H261592   3.707   0.380   0.211  1.5600  0.9148 -0.0904
13393TIP3   OH261593   6.650   2.643  16.156 -0.1030  0.0956  0.1713
13393TIP3    H161594   6.646   2.581  16.083  1.7398 -0.9216  0.8531
13393TIP3    H261595   6.560   2.672  16.168 -0.7230 -1.0320 -1.3847
13394TIP3   OH261596   3.947   1.188  16.948 -0.7142  0.2103 -0.6867
13394TIP3    H161597   3.984   1.114  16.900  0.3380  1.1407 -1.3734
13394TIP3    H261598   3.867   1.154  16.987  0.2034 -1.5467 -0.2192
13395TIP3   OH261599   0.485   2.941   3.318  0.2703  0.5541 -0.6032
13395TIP3    H161600   0.510   2.909   3.404 -2.0164 -1.6668 -0.6329
13395TIP3    H261601   0.396   2.975   3.330  0.3783  1.3829 -1.8598
13396TIP3   OH261602   5.757   3.201  16.294  0.2988  0.2585  0.2612
13396TIP3    H161603   5.753   3.290  16.329  0.5098  0.2097  0.4114
13396TIP3    H261604   5.840   3.198  16.247 -0.1355  0.4326 -0.5502
13397TIP3   OH261605   1.937   2.774   1.161 -0.0116  0.4436  0.3095
13397TIP3    H161606   2.024   2.734   1.159 -0.9218 -1.6384 -0.5040
13397TIP3    H261607   1.883   2.716   1.107 -2.9945 -0.9960  4.3247
13398TIP3   OH261608   2.917   1.516   3.715  0.2833  0.0257 -0.3367
13398TIP3    H161609   2.883   1.427   3.722  1.2547 -0.2989  0.7086
13398TIP3    H261610   2.861   1.559   3.651 -0.8354 -1.0401 -0.1091
13399TIP3   OH261611   1.167   5.458  15.618  0.6057  0.3749 -0.0113
13399TIP3    H161612   1.109   5.505  15.678  0.7882  0.0900  0.4041
13399TIP3    H261613   1.251   5.453  15.665  0.6955 -0.0286 -0.2031
13400TIP3   OH261614   5.365   3.246   0.220 -0.2378 -0.3799  0.2960
13400TIP3    H161615   5.300   3.314   0.239  1.8400  1.4897  1.1976
13400TIP3    H261616   5.335   3.170   0.269 -2.6462 -0.1902 -0.7475
13401TIP3   OH261617   2.234   5.694   2.665  0.1249  0.1022 -0.1352
13401TIP3    H161618   2.267   5.625   2.609 -1.4261 -2.1023  1.4824
13401TIP3    H261619   2.140   5.678   2.671 -0.0547  1.4050  1.5372
13402TIP3   OH261620   3.428   1.974   1.036  0.1571  1.0193  0.2660
13402TIP3    H161621   3.432   2.052   1.092  0.9136  2.7268 -2.0124
13402TIP3    H261622   3.336   1.947   1.040 -0.0408  1.7709  1.4127
13403TIP3   OH261623   5.592   1.570   2.044  0.4304  0.2373  0.2624
13403TIP3    H161624   5.524   1.589   1.979  0.1331 -1.4280  0.0250
13403TIP3    H261625   5.575   1.630   2.116  0.5551  1.8936 -1.0334
13404TIP3   OH261626   1.534   4.709  11.008  0.0758  0.0482 -0.0823
13404TIP3    H161627   1.532   4.687  10.915  0.6460  0.9075 -0.3070
13404TIP3    H261628   1.452   4.756  11.023  0.6473  1.2078 -0.4963
13405TIP3   OH261629   4.396   2.427   6.312  0.1152 -0.2055 -0.2073
13405TIP3    H161630   4.315   2.378   6.298 -0.2653  0.9993 -2.7452
13405TIP3    H261631   4.447   2.373   6.371 -1.2432 -2.5125 -1.0272
13406TIP3   OH261632   4.132   0.517  15.030 -0.4830 -0.3446  0.3810
13406TIP3    H161633   4.185   0.448  14.991 -2.4403 -0.9508 -1.3563
13406TIP3    H261634   4.120   0.489  15.121 -0.4540 -1.8297 -0.0474
13407TIP3   OH261635   1.057   5.361  12.693 -0.1843 -0.1377 -0.0748
13407TIP3    H161636   1.070   5.430  12.757 -0.4107  0.5496 -0.7460
13407TIP3    H261637   0.999   5.298  12.736  1.1360 -0.6310  1.0489
13408TIP3   OH261638   6.074   3.797  13.074  0.1449 -0.0470  0.6153
13408TIP3    H161639   6.099   3.743  13.149  0.4338  0.4746  0.8998
13408TIP3    H261640   6.072   3.886  13.108 -0.3926  0.1186  0.1675
13409TIP3   OH261641   3.772   3.693  15.680 -0.2009  0.1664  0.2727
13409TIP3    H161642   3.741   3.618  15.730 -1.6935  0.4382 -0.2168
13409TIP3    H261643   3.721   3.767  15.713  0.3171  0.7319 -0.1757
13410TIP3   OH261644   1.678   5.272   6.011 -0.2633  0.3942 -1.2917
13410TIP3    H161645   1.730   5.329   5.953  1.6171 -0.4184 -0.4887
13410TIP3    H261646   1.738   5.201   6.035 -1.5142 -0.1799  0.3264
13411TIP3   OH261647   3.378   0.938   4.100 -0.1350 -0.0302 -0.2613
13411TIP3    H161648   3.350   0.853   4.067 -0.9458 -0.2882  0.9884
13411TIP3    H261649   3.430   0.918   4.178 -2.8174  0.5796  1.8757
13412TIP3   OH261650   4.886   3.392   0.788  0.1851 -0.0053 -0.3055
13412TIP3    H161651   4.832   3.315   0.809 -0.5749  0.5041 -0.3407
13412TIP3    H261652   4.938   3.364   0.713  0.4452 -0.7215  0.1268
13413TIP3   OH261653   5.131   2.650   3.811  0.2394 -0.1378  0.2292
13413TIP3    H161654   5.155   2.610   3.894  0.0955  0.9145  0.7896
13413TIP3    H261655   5.099   2.738   3.834  2.8378  1.2830 -1.1220
13414TIP3   OH261656   1.409   1.606  16.935  0.3528  0.3247 -0.2214
13414TIP3    H161657   1.322   1.568  16.921  0.3145  0.3451 -0.0377
13414TIP3    H261658   1.430   1.586  17.026  0.5159  0.3694 -0.2492
13415TIP3   OH261659   5.728   3.315   2.294  0.3991  0.4545  0.0237
13415TIP3    H161660   5.718   3.300   2.200  0.1833  0.4094  0.0525
13415TIP3    H261661   5.691   3.402   2.308  0.1686  0.3435  0.1117
13416TIP3   OH261662   2.882   0.516   5.197  0.4107 -0.0491  0.3308
13416TIP3    H161663   2.899   0.604   5.231  1.1245 -0.4095  0.9377
13416TIP3    H261664   2.828   0.474   5.264 -0.9451  0.2980 -0.5007
13417TIP3   OH261665   5.478   2.179   1.696 -0.0440  0.9516  0.5997
13417TIP3    H161666   5.554   2.231   1.724  1.2990 -0.1309 -0.8842
13417TIP3    H261667   5.514   2.115   1.635 -2.2021  0.5151 -0.2892
13418TIP3   OH261668   1.852   6.535   5.214  0.0819 -0.3116  0.2223
13418TIP3    H161669   1.846   6.549   5.308  0.6827 -0.3285  0.2653
13418TIP3    H261670   1.890   6.448   5.205 -2.0320 -1.2702 -0.0436
13419TIP3   OH261671   6.558   3.912  13.292  0.1260 -0.2076  0.2417
13419TIP3    H161672   6.599   3.853  13.355  0.0587 -1.3469 -0.7363
13419TIP3    H261673   6.631   3.954  13.247  0.1960 -0.4882  0.0901
13420TIP3   OH261674   5.727   4.284   3.970  0.6810 -0.0691  0.7911
13420TIP3    H161675   5.685   4.311   4.051 -0.8817  0.0158 -0.0076
13420TIP3    H261676   5.787   4.214   3.996 -1.1249 -1.3236  1.7970
13421TIP3   OH261677   1.344   1.584  12.300  0.0071 -0.4423  0.1726
13421TIP3    H161678   1.335   1.550  12.389 -0.0424  0.4733  0.5249
13421TIP3    H261679   1.280   1.655  12.295 -0.3723 -0.8356 -0.7725
13422TIP3   OH261680   0.844   1.014   5.312  0.0220  0.1023  0.3758
13422TIP3    H161681   0.810   0.985   5.227 -0.0646 -0.5355  0.6221
13422TIP3    H261682   0.871   0.933   5.355 -0.8144  0.3254  1.3419
13423TIP3   OH261683   6.621   5.293   3.099  0.0437  0.8116  0.2902
13423TIP3    H161684   6.708   5.255   3.095  0.5635  2.0339 -1.3777
13423TIP3    H261685   6.632   5.382   3.065 -1.7341  1.2423  0.7068
13424TIP3   OH261686   2.986   3.092   1.610  0.0694 -0.7109 -0.1615
13424TIP3    H161687   3.014   3.004   1.586 -0.1993 -1.2525  1.4124
13424TIP3    H261688   3.024   3.107   1.697 -0.0286  0.6635 -0.3250
13425TIP3   OH261689   0.136   0.748  12.647  0.9895  0.2491 -0.1950
13425TIP3    H161690   0.055   0.712  12.612  1.6321 -0.1625 -1.2907
13425TIP3    H261691   0.142   0.711  12.735 -0.2656  0.7082  0.1045
13426TIP3   OH261692   2.836   1.261  12.884 -0.2259  0.3039  0.3999
13426TIP3    H161693   2.766   1.216  12.930 -0.8936  1.1466  0.2339
13426TIP3    H261694   2.794   1.338  12.845  0.5149  0.1345 -0.7977
13427TIP3   OH261695   5.942   1.755  15.595 -0.2836  0.8237 -0.3400
13427TIP3    H161696   5.919   1.750  15.502 -1.1000  0.1312 -0.1038
13427TIP3    H261697   6.001   1.681  15.609 -0.7807  0.4697 -0.1280
13428TIP3   OH261698   3.017   2.509   0.939 -0.3331  0.2416  0.1309
13428TIP3    H161699   3.072   2.442   0.898 -0.0557  0.6413 -0.1544
13428TIP3    H261700   3.038   2.589   0.892 -0.2753  0.6333  0.8212
13429TIP3   OH261701   0.615   3.103  12.957  0.8514 -0.5302 -0.5380
13429TIP3    H161702   0.600   3.181  12.903  2.7554  0.1629 -0.1644
13429TIP3    H261703   0.676   3.050  12.906  1.9303 -0.3093  0.4792
13430TIP3   OH261704   0.810   5.454   1.459  0.0311  0.0587  0.8303
13430TIP3    H161705   0.721   5.484   1.478  0.3576  0.7119  1.3769
13430TIP3    H261706   0.863   5.488   1.531  1.0028  1.0911 -0.3242
13431TIP3   OH261707   4.367   3.486  15.731  0.1118  0.0760 -0.2298
13431TIP3    H161708   4.460   3.509  15.741  0.3398 -0.7235 -0.4606
13431TIP3    H261709   4.323   3.536  15.800  1.0182 -1.3529  1.4844
13432TIP3   OH261710   1.855   1.788   4.786  0.6413  0.1497  0.9480
13432TIP3    H161711   1.897   1.868   4.753  0.7647 -0.3803 -0.2403
13432TIP3    H261712   1.762   1.801   4.769  0.6470  0.0858  0.8708
13433TIP3   OH261713   5.200   0.123   0.335  0.6588 -0.7972  0.0488
13433TIP3    H161714   5.163   0.208   0.312  0.8590 -0.3207  1.3959
13433TIP3    H261715   5.258   0.141   0.409  1.1656 -2.0190 -0.0237
13434TIP3   OH261716   2.286   1.127  12.471 -0.8500 -0.6280  0.1279
13434TIP3    H161717   2.227   1.175  12.413  0.8720  1.4682 -0.0156
13434TIP3    H261718   2.255   1.146  12.559 -0.8626 -0.1639  0.0260
13435TIP3   OH261719   6.534   2.063   4.511 -0.0213 -0.4547  0.2257
13435TIP3    H161720   6.449   2.103   4.531 -0.0297  1.0898 -2.4620
13435TIP3    H261721   6.516   1.969   4.510 -1.9558 -0.1371 -1.0473
13436TIP3   OH261722   6.365   4.265  11.821 -0.3921 -0.2135 -0.3238
13436TIP3    H161723   6.431   4.322  11.860 -0.5611 -0.5210  0.4288
13436TIP3    H261724   6.336   4.209  11.893 -0.5168 -0.9819 -0.9474
13437TIP3   OH261725   2.868   4.136   3.943 -0.0740  0.9998 -0.0230
13437TIP3    H161726   2.851   4.138   4.037  0.1764 -1.1375  0.1103
13437TIP3    H261727   2.963   4.136   3.935 -0.0546 -0.6869 -0.1551
13438TIP3   OH261728   3.569   3.287   1.878  0.1340  0.1136 -0.0625
13438TIP3    H161729   3.618   3.370   1.881  2.4508 -1.2004  0.6909
13438TIP3    H261730   3.504   3.296   1.948  0.0056  1.4544 -0.3134
13439TIP3   OH261731   5.987   2.987   2.233  0.3668  0.1681  0.2933
13439TIP3    H161732   5.940   3.058   2.188  1.2127  0.5356 -0.0390
13439TIP3    H261733   6.066   3.029   2.268 -0.1229 -0.1792  1.8867
13440TIP3   OH261734   1.503   2.102  15.017  0.4441  0.2138 -0.2130
13440TIP3    H161735   1.568   2.037  14.992 -1.4263 -1.3521 -1.3896
13440TIP3    H261736   1.426   2.080  14.963 -1.3137  1.4428  1.6467
13441TIP3   OH261737   3.986   5.708  16.687  0.8130 -0.4862  0.0429
13441TIP3    H161738   3.921   5.651  16.727  1.8290 -1.2557  0.6276
13441TIP3    H261739   4.039   5.740  16.760 -0.9521  2.9118  0.0444
13442TIP3   OH261740   0.686   4.765   1.771  0.0399  0.0136 -0.1925
13442TIP3    H161741   0.631   4.840   1.792 -0.4976 -0.2021 -0.8196
13442TIP3    H261742   0.775   4.799   1.776 -0.2360  1.1703 -2.2312
13443TIP3   OH261743   0.439   1.339   3.381  0.4223 -0.5301  0.0032
13443TIP3    H161744   0.403   1.427   3.391 -0.0594 -0.4429 -2.0087
13443TIP3    H261745   0.365   1.281   3.397  0.6914 -0.5905  1.1228
13444TIP3   OH261746   0.421   3.570   2.217 -0.0431  0.2182 -0.2860
13444TIP3    H161747   0.460   3.591   2.132  1.6995  0.0202  0.4148
13444TIP3    H261748   0.330   3.546   2.197  0.8666 -1.9031 -2.3744
13445TIP3   OH261749   2.598   3.427  11.490 -0.5314 -0.0015  0.3330
13445TIP3    H161750   2.529   3.439  11.425  0.2631  1.4676 -0.2918
13445TIP3    H261751   2.677   3.412  11.439 -0.4845 -2.6064  1.0557
13446TIP3   OH261752   5.822   1.595  14.717  0.0006  0.1934  0.1699
13446TIP3    H161753   5.819   1.536  14.793  1.1911  0.6365  0.5777
13446TIP3    H261754   5.734   1.633  14.713  0.1695  0.8371  1.8755
13447TIP3   OH261755   0.481   2.186   2.433 -0.4473 -0.3251  0.1667
13447TIP3    H161756   0.560   2.238   2.419  0.8243 -2.1451  0.1835
13447TIP3    H261757   0.439   2.183   2.348  1.0259 -1.6142 -0.5751
13448TIP3   OH261758   5.951   6.711   0.724 -0.3892  0.2484 -0.4138
13448TIP3    H161759   5.928   6.620   0.745 -0.1394  0.5012  1.1037
13448TIP3    H261760   5.937   6.758   0.806  2.5335  0.9779 -0.2290
13449TIP3   OH261761   3.998   6.572   2.603 -0.1679 -0.3040  0.5372
13449TIP3    H161762   4.017   6.480   2.622  1.0609 -0.0298  0.7460
13449TIP3    H261763   4.075   6.602   2.554 -1.0343  0.3386 -0.4614
13450TIP3   OH261764   2.841   0.558   4.065 -0.2520 -0.3127  0.1877
13450TIP3    H161765   2.862   0.482   4.120 -0.5348 -0.7791 -0.3392
13450TIP3    H261766   2.809   0.624   4.126 -2.7547 -1.5890  0.3722
13451TIP3   OH261767   0.059   4.071  11.317 -0.0207 -0.2629 -0.3596
13451TIP3    H161768   0.049   3.998  11.379  0.3056  0.2962  0.3715
13451TIP3    H261769   0.136   4.047  11.265 -0.2827 -0.7299 -0.5333
13452TIP3   OH261770   3.991   3.327   4.766  0.3135  0.6133 -0.0186
13452TIP3    H161771   4.083   3.324   4.741  0.5827  2.5385  0.5902
13452TIP3    H261772   3.949   3.380   4.698 -1.0732 -2.8661 -2.1300
13453TIP3   OH261773   0.847   5.690   5.847 -0.6351 -0.5507 -0.0741
13453TIP3    H161774   0.897   5.618   5.884  0.9717  0.8090  0.5027
13453TIP3    H261775   0.910   5.739   5.794 -1.0675  1.7514  1.4210
13454TIP3   OH261776   6.556   1.590  14.090  0.2079  0.3449  0.1160
13454TIP3    H161777   6.534   1.682  14.100  2.0073  0.9073 -0.6870
13454TIP3    H261778   6.648   1.585  14.116  1.0068 -0.6637 -2.5725
13455TIP3   OH261779   3.921   0.136  14.794  0.5060  0.1401  0.1667
13455TIP3    H161780   3.936   0.130  14.700  0.3002 -0.9001  0.1952
13455TIP3    H261781   3.878   0.054  14.818 -0.0356  0.6614  1.0636
13456TIP3   OH261782   5.257   1.934   4.035 -0.6095  0.8803  0.8515
13456TIP3    H161783   5.303   2.014   4.007  0.3064  0.1323  0.1827
13456TIP3    H261784   5.326   1.876   4.067 -1.1482  0.0010  0.4595
13457TIP3   OH261785   1.686   6.310   1.112 -0.1991 -0.0347  0.1207
13457TIP3    H161786   1.636   6.245   1.063 -1.7231  1.7790 -0.8884
13457TIP3    H261787   1.679   6.281   1.203 -0.6472 -1.3911 -0.3246
13458TIP3   OH261788   6.034   4.213   1.733 -0.0968  0.1145 -0.1519
13458TIP3    H161789   5.968   4.271   1.695  0.6850  1.3375  0.2775
13458TIP3    H261790   5.985   4.154   1.790 -0.9227  0.3746 -0.5832
13459TIP3   OH261791   4.925   2.282   0.584 -0.1550 -0.4187  0.0831
13459TIP3    H161792   4.836   2.298   0.550  0.2592 -2.0474 -1.9499
13459TIP3    H261793   4.911   2.249   0.672 -1.6814 -1.4815 -0.5030
13460TIP3   OH261794   2.812   1.044   3.151  0.2875  0.2964  0.3648
13460TIP3    H161795   2.830   0.976   3.087 -1.4995 -0.1776  0.2981
13460TIP3    H261796   2.791   0.997   3.232  0.5756  0.8226  0.7552
13461TIP3   OH261797   2.355   5.979   1.749  0.2910 -0.1350  0.3815
13461TIP3    H161798   2.290   6.050   1.757  0.6381  0.1397  0.8189
13461TIP3    H261799   2.349   5.932   1.832 -0.2826 -0.9257 -0.0969
13462TIP3   OH261800   2.172   3.010  14.373  0.4166  0.0024  0.2303
13462TIP3    H161801   2.178   3.038  14.464 -1.5671 -0.5838  0.5693
13462TIP3    H261802   2.122   3.078  14.329  0.7331 -0.0803 -0.2764
13463TIP3   OH261803   6.744   1.217   4.727 -0.0181  0.2785 -0.2942
13463TIP3    H161804   6.798   1.217   4.648 -0.8680  5.4797 -1.2235
13463TIP3    H261805   6.654   1.218   4.695 -0.4395  0.1648  0.8272
13464TIP3   OH261806   2.278   3.115   2.590  0.0722 -1.0442  0.0691
13464TIP3    H161807   2.336   3.126   2.665  1.5163  0.5046 -1.1882
13464TIP3    H261808   2.335   3.081   2.520 -0.5114  0.4389 -1.1843
13465TIP3   OH261809   6.391   2.661   2.563  0.3014  0.0802  0.0336
13465TIP3    H161810   6.381   2.566   2.569 -1.8406  0.2729  0.3727
13465TIP3    H261811   6.371   2.681   2.472  1.6164  0.1541 -0.2583
13466TIP3   OH261812   2.085   2.296  16.125  0.5015 -0.0983  0.1589
13466TIP3    H161813   2.122   2.381  16.147 -0.5944  0.9568 -1.7466
13466TIP3    H261814   1.998   2.316  16.090 -1.1225 -2.2850  2.5926
13467TIP3   OH261815   4.814   0.609   2.516 -0.0292  0.8422 -0.5182
13467TIP3    H161816   4.846   0.530   2.472 -0.7685 -0.6871  1.5423
13467TIP3    H261817   4.728   0.624   2.477 -1.0384 -0.9835  0.8337
13468TIP3   OH261818   1.435   3.032   0.893  0.2812  0.1637 -0.2130
13468TIP3    H161819   1.505   3.056   0.831  0.3844 -0.3462 -0.2992
13468TIP3    H261820   1.429   3.107   0.952  0.0402  0.7503 -0.9621
13469TIP3   OH261821   4.137   1.734  16.090  0.3122 -0.2494  0.0895
13469TIP3    H161822   4.180   1.752  16.174  0.8135 -2.5769  0.3982
13469TIP3    H261823   4.071   1.669  16.111 -0.5874  0.2467 -1.0988
13470TIP3   OH261824   1.857   3.986   3.141 -0.1026 -0.2537 -0.2634
13470TIP3    H161825   1.825   4.070   3.173 -0.4770 -0.5600  0.1713
13470TIP3    H261826   1.914   3.953   3.210  0.3949 -0.1578 -0.6216
13471TIP3   OH261827   1.936   0.703   5.552  0.1627 -0.0785  0.5897
13471TIP3    H161828   1.947   0.796   5.535  0.2185 -0.4370 -1.6148
13471TIP3    H261829   1.900   0.667   5.471  0.5739 -2.0487  1.2092
13472TIP3   OH261830   2.035   2.169  11.724  0.7365  0.3527 -1.0426
13472TIP3    H161831   1.999   2.251  11.757 -1.6113 -0.5422 -1.2246
13472TIP3    H261832   2.125   2.192  11.698  1.6048  1.9080  2.6238
13473TIP3   OH261833   0.042   5.912  12.566 -0.1810 -0.2372 -0.0025
13473TIP3    H161834   0.132   5.944  12.551 -0.5430  0.6929 -0.2980
13473TIP3    H261835   0.028   5.849  12.496 -0.0632  0.2910 -0.5182
13474TIP3   OH261836   3.220   0.317   3.398  0.0685  0.6366  0.6803
13474TIP3    H161837   3.233   0.410   3.379  0.7491  0.9624  2.4872
13474TIP3    H261838   3.139   0.314   3.449 -1.8088 -0.2194 -2.1528
13475TIP3   OH261839   6.243   4.042  15.293 -0.1572  0.1034 -0.0357
13475TIP3    H161840   6.203   3.955  15.298  0.9223 -0.3938  0.1682
13475TIP3    H261841   6.306   4.035  15.221  1.6035 -0.0149  1.4384
13476TIP3   OH261842   3.904   0.910  13.223 -0.0616  0.0533 -0.7147
13476TIP3    H161843   3.916   0.894  13.317  1.7237 -0.9572 -1.0522
13476TIP3    H261844   3.811   0.896  13.207 -0.5030  0.8428  1.0040
13477TIP3   OH261845   1.462   3.771   0.103  0.0706  0.0942  0.0447
13477TIP3    H161846   1.400   3.822   0.050  0.8940  0.9711 -0.1010
13477TIP3    H261847   1.545   3.777   0.055  0.1915 -1.3793  0.0486
13478TIP3   OH261848   1.555   6.520  15.975 -0.2481 -0.3284  0.8067
13478TIP3    H161849   1.468   6.518  16.015 -0.2598 -0.5326  0.7688
13478TIP3    H261850   1.616   6.519  16.048 -0.2831  1.2219  0.8972
13479TIP3   OH261851   6.287   5.214  15.080 -0.2925 -0.9897  0.2023
13479TIP3    H161852   6.262   5.143  15.140 -1.5339 -0.9706 -0.2561
13479TIP3    H261853   6.213   5.275  15.083  0.1973 -0.3508 -0.3896
13480TIP3   OH261854   4.796   2.440  14.994  0.3136  0.6015 -0.5373
13480TIP3    H161855   4.761   2.526  15.018 -0.9112 -0.0540  0.1296
13480TIP3    H261856   4.890   2.456  14.979 -0.0982  2.2599 -1.5840
13481TIP3   OH261857   6.075   3.523   0.416  0.5729  0.1465  0.4409
13481TIP3    H161858   6.085   3.569   0.333 -0.0379 -0.1461  0.2013
13481TIP3    H261859   6.072   3.592   0.482  0.2210  0.4157  0.1395
13482TIP3   OH261860   4.918   6.229  13.024 -0.0024  0.3402 -0.4705
13482TIP3    H161861   4.825   6.212  13.038 -0.0269 -0.0386 -1.0621
13482TIP3    H261862   4.924   6.255  12.932  0.2564  2.0077 -0.0232
13483TIP3   OH261863   0.765   1.016  16.757 -0.2304 -0.0586  0.6047
13483TIP3    H161864   0.701   0.954  16.724  0.3691 -0.8436  0.8831
13483TIP3    H261865   0.842   0.963  16.778  0.1451  0.7133  1.2588
13484TIP3   OH261866   1.859   1.215   4.325  0.2424  0.3516  0.2736
13484TIP3    H161867   1.919   1.252   4.390  0.3788  1.1959 -0.3218
13484TIP3    H261868   1.772   1.230   4.361  0.3565 -0.3831  0.8809
13485TIP3   OH261869   2.321   0.409  12.154 -0.3125 -0.1406 -0.5173
13485TIP3    H161870   2.227   0.427  12.155 -0.2502  0.3564 -1.8674
13485TIP3    H261871   2.361   0.487  12.193 -0.4212 -0.0401 -0.6050
13486TIP3   OH261872   2.717   4.210  13.751 -0.2856 -0.7174  0.2197
13486TIP3    H161873   2.726   4.289  13.805 -0.4492 -0.6775  0.1919
13486TIP3    H261874   2.760   4.141  13.801 -0.8659 -0.7874  0.6324
13487TIP3   OH261875   3.802   1.552  15.167  0.1777 -0.0655  0.0269
13487TIP3    H161876   3.825   1.514  15.082 -2.2014 -2.1293  0.1642
13487TIP3    H261877   3.852   1.501  15.231  0.7409  0.4008 -0.0357
13488TIP3   OH261878   1.240   3.053  11.438 -0.0979  0.0927 -0.1780
13488TIP3    H161879   1.195   2.970  11.456 -0.1220  0.3972  1.2448
13488TIP3    H261880   1.180   3.100  11.380 -1.2023  0.0962  0.9158
13489TIP3   OH261881   4.695   0.102  12.435  0.3458 -0.1519  1.0282
13489TIP3    H161882   4.640   0.075  12.508 -0.0334  1.3261  1.3107
13489TIP3    H261883   4.766   0.153  12.475  1.0988 -0.7662  0.5187
13490TIP3   OH261884   3.552   0.173  15.486 -0.0976  0.8630 -0.2630
13490TIP3    H161885   3.461   0.151  15.500  0.7669 -2.3644  1.1382
13490TIP3    H261886   3.584   0.201  15.572  0.4428  1.2154 -0.5659
13491TIP3   OH261887   3.032   3.544   6.219 -0.2283  0.6505 -0.0153
13491TIP3    H161888   3.110   3.494   6.195  1.3396  1.5322  2.7915
13491TIP3    H261889   3.047   3.631   6.183 -0.7713  0.3727 -0.9444
13492TIP3   OH261890   0.834   4.719  10.463 -0.4416  0.4676  0.5923
13492TIP3    H161891   0.784   4.670  10.528  0.2734  3.3741  3.5876
13492TIP3    H261892   0.917   4.672  10.457 -0.9265 -0.4591  0.8847
13493TIP3   OH261893   0.256   6.471  15.496 -0.4774  0.2776  0.4162
13493TIP3    H161894   0.175   6.435  15.459 -0.3228  0.7930 -0.4528
13493TIP3    H261895   0.227   6.522  15.572 -0.7417 -1.2932  1.4128
13494TIP3   OH261896   4.975   0.188   2.240  0.9343 -0.4294  0.5708
13494TIP3    H161897   5.011   0.222   2.158 -0.4386  0.0004  0.1096
13494TIP3    H261898   4.951   0.098   2.221 -1.6231  0.3465 -0.3166
13495TIP3   OH261899   3.370   0.247  16.768  0.2489  0.4222 -0.4328
13495TIP3    H161900   3.283   0.231  16.803 -0.0627  0.2501 -1.2487
13495TIP3    H261901   3.422   0.278  16.842 -1.0837  2.6362 -0.3655
13496TIP3   OH261902   2.716   0.573  12.285 -0.3990  0.3361 -0.0893
13496TIP3    H161903   2.792   0.622  12.254 -1.2260  1.5935 -0.2283
13496TIP3    H261904   2.747   0.483  12.294  0.5332  0.3714 -2.2844
13497TIP3   OH261905   5.251   2.953  13.369 -0.6004 -0.2345  0.5863
13497TIP3    H161906   5.254   3.040  13.409 -1.1941  0.0666  0.0053
13497TIP3    H261907   5.218   2.896  13.438  0.3078 -0.1063  1.1407
13498TIP3   OH261908   2.417   6.035  14.658 -0.2462 -0.3492 -0.2533
13498TIP3    H161909   2.468   6.091  14.716 -2.2351  1.3317 -0.0046
13498TIP3    H261910   2.418   5.949  14.701  0.6350  0.1624  0.8024
13499TIP3   OH261911   3.557   4.461  10.754 -0.7789 -0.5515  0.2204
13499TIP3    H161912   3.651   4.464  10.773 -0.6026 -1.6498 -0.3765
13499TIP3    H261913   3.533   4.369  10.765 -0.8568 -1.1897 -3.7341
13500TIP3   OH261914   3.876   2.276  13.234 -0.1761  0.1278 -0.0306
13500TIP3    H161915   3.941   2.211  13.259 -1.5167 -0.9228  0.8917
13500TIP3    H261916   3.811   2.274  13.305 -2.3886 -0.5618 -1.9327
13501TIP3   OH261917   1.405   6.289   1.212  0.6742 -0.1648 -0.0805
13501TIP3    H161918   1.425   6.238   1.133  0.8659  1.0687 -0.8587
13501TIP3    H261919   1.376   6.224   1.276 -0.4834 -1.0968 -1.4934
13502TIP3   OH261920   4.832   1.500   2.815  0.2214  0.9353  0.2579
13502TIP3    H161921   4.866   1.425   2.863  1.8498  0.9522 -0.7762
13502TIP3    H261922   4.819   1.567   2.881  0.0587  0.1818  1.0109
13503TIP3   OH261923   6.169   1.935   3.525  0.0911  0.3345 -0.4663
13503TIP3    H161924   6.208   1.909   3.609 -1.2127  1.0229  0.3818
13503TIP3    H261925   6.124   2.017   3.544 -1.6136 -0.3328 -1.4446
13504TIP3   OH261926   1.593   3.190   2.662  0.1703  0.3514 -0.5714
13504TIP3    H161927   1.517   3.196   2.721 -0.0202  1.6974 -0.9204
13504TIP3    H261928   1.563   3.133   2.591  0.4447 -1.4086  0.6346
13505TIP3   OH261929   6.334   3.618   2.544 -0.0880  0.4223 -0.8160
13505TIP3    H161930   6.361   3.546   2.600  0.1249  0.5773 -0.7180
13505TIP3    H261931   6.352   3.697   2.595 -1.2138  0.5190 -0.5355
13506TIP3   OH261932   2.133   0.159   4.905 -0.5829  0.3833 -0.1166
13506TIP3    H161933   2.145   0.221   4.834 -1.4588  1.2245  0.4258
13506TIP3    H261934   2.216   0.158   4.952  0.1891 -0.6026 -1.4374
13507TIP3   OH261935   2.525   2.930  11.107 -0.8378  0.8464 -0.5031
13507TIP3    H161936   2.547   3.019  11.135  1.9053  0.4914 -1.2306
13507TIP3    H261937   2.572   2.918  11.024 -2.7001 -0.6639 -1.4317
13508TIP3   OH261938   2.887   4.971   4.351 -0.0258  0.3003 -0.4230
13508TIP3    H161939   2.953   4.947   4.416 -1.0486 -0.1501  0.4781
13508TIP3    H261940   2.866   5.062   4.369  0.1794  0.3779 -0.5686
13509TIP3   OH261941   1.581   4.738  13.456 -0.1691 -0.0712 -0.2629
13509TIP3    H161942   1.635   4.816  13.440 -1.0059  0.9814  1.7099
13509TIP3    H261943   1.511   4.745  13.391  0.2696  0.3116 -0.7128
13510TIP3   OH261944   0.292   2.963  13.300  0.6613  0.2855 -0.2302
13510TIP3    H161945   0.337   2.972  13.216 -0.8338  1.4118 -0.9601
13510TIP3    H261946   0.247   3.047  13.312 -0.7879 -0.5857  0.7091
13511TIP3   OH261947   0.628   0.939  10.816  0.0633 -0.0652  0.4715
13511TIP3    H161948   0.663   0.895  10.738 -0.0597  1.4252 -0.4725
13511TIP3    H261949   0.553   0.989  10.783 -0.8323 -0.4741  1.8190
13512TIP3   OH261950   4.250   2.001  11.950  0.4356  0.1214  0.5212
13512TIP3    H161951   4.171   1.995  12.004  0.4246 -0.5955  0.4292
13512TIP3    H261952   4.217   2.028  11.864  0.2707 -0.3142  0.4448
13513TIP3   OH261953   3.682   0.462  16.712  0.2785 -0.6743  0.1371
13513TIP3    H161954   3.613   0.482  16.775 -0.1753 -2.7065  0.3628
13513TIP3    H261955   3.761   0.452  16.766  0.4539  0.2268  0.0518
13514TIP3   OH261956   5.848   4.071   3.748  0.2732  0.9604  0.2612
13514TIP3    H161957   5.774   4.068   3.689  0.9257 -1.1096 -0.5601
13514TIP3    H261958   5.919   4.110   3.697  0.5032  0.2941  0.0554
13515TIP3   OH261959   0.530   6.766   2.907 -0.2390  0.4134  0.2879
13515TIP3    H161960   0.441   6.741   2.933  0.3935 -2.9967 -0.3822
13515TIP3    H261961   0.577   6.776   2.990 -1.2479  2.8300  0.6804
13516TIP3   OH261962   2.091   0.955  16.385  0.1112  0.0052 -0.2647
13516TIP3    H161963   2.169   0.973  16.333  1.1114  0.6383  1.3861
13516TIP3    H261964   2.066   0.866  16.361  2.2143 -0.7677  0.2068
13517TIP3   OH261965   0.956   2.486  16.646 -0.3367 -0.3797 -0.2236
13517TIP3    H161966   1.033   2.464  16.698 -0.7555 -2.9189 -0.5262
13517TIP3    H261967   0.984   2.474  16.556 -0.1316  2.2256 -0.5718
13518TIP3   OH261968   4.996   3.780   5.774 -0.0162 -0.7723  0.5013
13518TIP3    H161969   4.949   3.847   5.724  0.7540 -0.9349 -0.4678
13518TIP3    H261970   5.083   3.777   5.734  1.4439  0.6762  3.2594
13519TIP3   OH261971   6.155   5.633  10.924 -0.4079  0.1022  0.2892
13519TIP3    H161972   6.163   5.710  10.981  0.0162  0.8661 -0.7613
13519TIP3    H261973   6.223   5.646  10.858 -0.3972 -1.1440  0.0340
13520TIP3   OH261974   3.629   3.676   5.994 -0.3657 -0.1077  0.3036
13520TIP3    H161975   3.624   3.642   5.905  1.3036 -0.5276  0.3440
13520TIP3    H261976   3.555   3.737   6.001 -1.1529 -0.8686 -0.9997
13521TIP3   OH261977   2.289   3.379   3.731  0.7496  0.7939  0.6890
13521TIP3    H161978   2.348   3.451   3.708  1.5102 -0.2750 -0.9902
13521TIP3    H261979   2.341   3.323   3.788  1.5957 -0.3327 -1.0757
13522TIP3   OH261980   4.179   4.195  14.722  0.0943 -0.0921  0.6938
13522TIP3    H161981   4.252   4.165  14.668  1.2861  1.6041  1.2947
13522TIP3    H261982   4.101   4.158  14.680  1.0523  0.3645 -1.5929
13523TIP3   OH261983   4.769   1.346  16.927  0.3944 -0.1003  0.1493
13523TIP3    H161984   4.807   1.270  16.883  1.6393  0.5083  0.1169
13523TIP3    H261985   4.743   1.313  17.013  1.6959 -0.3965  0.4545
13524TIP3   OH261986   2.643   3.451   0.630 -0.1926  0.1178 -0.6196
13524TIP3    H161987   2.670   3.393   0.559 -3.1646 -2.3708  0.0860
13524TIP3    H261988   2.709   3.439   0.698 -0.1661 -1.6115 -0.9261
13525TIP3   OH261989   6.223   1.292  14.399  0.0593 -0.2519  0.1298
13525TIP3    H161990   6.281   1.216  14.388  0.5187 -0.2180  2.0034
13525TIP3    H261991   6.146   1.271  14.345  2.1202  0.1248 -3.2233
13526TIP3   OH261992   5.132   3.709   1.258  0.7253 -0.0360 -0.1574
13526TIP3    H161993   5.148   3.778   1.193 -0.2399 -0.1124 -0.4897
13526TIP3    H261994   5.046   3.674   1.235  1.4731 -1.8316 -0.4045
13527TIP3   OH261995   6.435   5.585   0.750  0.0940  0.0882 -0.2837
13527TIP3    H161996   6.417   5.675   0.723 -0.0258  0.0913 -0.1946
13527TIP3    H261997   6.461   5.541   0.669  0.4158  0.2682 -0.2797
13528TIP3   OH261998   1.310   3.337  15.560  0.3262 -0.2853  0.1621
13528TIP3    H161999   1.356   3.389  15.495  2.0013 -0.3832  1.2223
13528TIP3    H262000   1.224   3.320  15.521  0.1235  2.3237 -0.6562
13529TIP3   OH262001   3.105   0.211   2.362  0.5191  0.9411 -0.0539
13529TIP3    H162002   3.038   0.280   2.362 -0.6595 -0.1572  1.2208
13529TIP3    H262003   3.147   0.218   2.448  0.9667  0.5791 -0.2374
13530TIP3   OH262004   3.692   6.744   5.573  0.5356 -0.1317  0.4219
13530TIP3    H162005   3.628   6.763   5.642  0.9104  0.3156  0.6576
13530TIP3    H262006   3.652   6.674   5.522 -0.8912  1.2222 -0.4256
13531TIP3   OH262007   0.586   4.254   4.187  0.1646  0.2250 -0.0977
13531TIP3    H162008   0.672   4.291   4.166  0.8367 -1.3193 -0.1952
13531TIP3    H262009   0.599   4.160   4.186 -1.1280 -0.0335  1.6428
13532TIP3   OH262010   0.209   5.497   5.838 -0.5350 -0.8631  0.2020
13532TIP3    H162011   0.173   5.408   5.829 -0.9059 -0.7690  0.7098
13532TIP3    H262012   0.281   5.500   5.775  0.1567 -1.8787  0.9162
13533TIP3   OH262013   5.438   1.514   6.018 -0.4636  0.2999 -0.4715
13533TIP3    H162014   5.390   1.573   5.960  0.9011  2.5748  0.5979
13533TIP3    H262015   5.410   1.539   6.106  0.5552 -0.2988  0.0354
13534TIP3   OH262016   1.829   5.370  14.891  0.4199  0.2416 -0.0380
13534TIP3    H162017   1.832   5.334  14.980 -0.6130  0.1051 -0.0411
13534TIP3    H262018   1.758   5.435  14.894  0.6091  0.4831 -0.6734
13535TIP3   OH262019   5.012   4.517  10.450  0.6649  0.2526  0.2755
13535TIP3    H162020   4.964   4.442  10.415  0.5648  0.6100 -0.3659
13535TIP3    H262021   4.971   4.593  10.409  2.0159  0.5463 -0.5744
13536TIP3   OH262022   5.351   2.071   2.410 -0.7290 -0.4726  0.5627
13536TIP3    H162023   5.388   2.022   2.483 -0.3319 -1.4517 -0.2581
13536TIP3    H262024   5.372   2.018   2.333  0.2761  1.3095 -0.4553
13537TIP3   OH262025   5.066   6.447  16.139  0.5221  0.6379  0.1115
13537TIP3    H162026   5.034   6.460  16.049  0.1003  0.6298  0.2581
13537TIP3    H262027   5.162   6.445  16.130  0.4874  0.7420 -0.3250
13538TIP3   OH262028   5.140   2.692  15.891  0.2330 -0.1560  0.0750
13538TIP3    H162029   5.207   2.680  15.959  1.5684  3.0786 -0.4936
13538TIP3    H262030   5.160   2.623  15.827  0.0266 -2.1705  2.0552
13539TIP3   OH262031   3.062   2.343  15.040 -0.0198  0.1032  0.0891
13539TIP3    H162032   3.010   2.266  15.061 -0.7739  0.7818  0.7717
13539TIP3    H262033   3.152   2.311  15.039 -0.0411 -0.2826  3.0099
13540TIP3   OH262034   6.769   3.988  11.629  0.2635 -0.0070 -0.0632
13540TIP3    H162035   6.720   3.945  11.559  0.9607 -0.6364 -0.1829
13540TIP3    H262036   6.702   4.025  11.686 -0.3744 -1.1115 -0.0521
13541TIP3   OH262037   3.973   6.100   3.515 -0.9084  0.3082 -0.1904
13541TIP3    H162038   4.008   6.094   3.604  1.1476 -0.7902 -1.0172
13541TIP3    H262039   3.990   6.190   3.487  0.2800  0.1043 -0.1637
13542TIP3   OH262040   3.708   0.688  16.369 -0.8616 -0.6364 -0.3897
13542TIP3    H162041   3.753   0.646  16.442 -1.1621 -0.4671 -0.1049
13542TIP3    H262042   3.651   0.753  16.410  1.6335  2.0781 -0.9306
13543TIP3   OH262043   5.583   0.852  12.577 -0.2468  0.2224 -0.0810
13543TIP3    H162044   5.669   0.875  12.612 -1.5641  0.7537  3.0956
13543TIP3    H262045   5.600   0.774  12.524  2.1290  0.0028  0.8592
13544TIP3   OH262046   5.048   0.067  14.069  0.3260  0.0384 -0.2793
13544TIP3    H162047   5.143   0.068  14.081  0.2069 -1.5497  1.1563
13544TIP3    H262048   5.027  -0.025  14.055 -0.9579  0.4364 -1.1124
13545TIP3   OH262049   4.775   4.995  14.312  0.1687  0.5315  0.1180
13545TIP3    H162050   4.757   4.908  14.276  0.2649  0.1073  1.0740
13545TIP3    H262051   4.689   5.032  14.330  0.1387 -0.0024  1.1692
13546TIP3   OH262052   1.197   5.159   5.714  0.6912 -0.3586  0.1245
13546TIP3    H162053   1.119   5.103   5.712  1.6741 -1.7716 -0.4594
13546TIP3    H262054   1.224   5.159   5.806 -1.6187  2.6078  0.9686
13547TIP3   OH262055   1.942   0.153  14.056 -0.1375  0.1987 -0.9582
13547TIP3    H162056   1.909   0.063  14.057  0.5455 -0.0751  0.6031
13547TIP3    H262057   1.914   0.188  13.972 -0.7409 -1.3547 -1.4442
13548TIP3   OH262058   3.202   4.890  11.814 -0.2478  0.1144  0.0741
13548TIP3    H162059   3.200   4.824  11.745 -2.2008 -1.1985  1.2831
13548TIP3    H262060   3.134   4.953  11.789  1.3753  1.5653 -0.8984
13549TIP3   OH262061   0.207   5.541   3.179  0.0150 -0.3880  0.4805
13549TIP3    H162062   0.214   5.636   3.171  0.0804 -0.1239  2.9314
13549TIP3    H262063   0.289   5.515   3.220  0.1443 -1.5725 -0.4947
13550TIP3   OH262064   2.639   6.141  16.786 -0.2741  0.1812  0.2458
13550TIP3    H162065   2.554   6.105  16.758  0.1418  0.4802 -1.5339
13550TIP3    H262066   2.630   6.152  16.880 -1.6891 -1.1793  0.3218
13551TIP3   OH262067   1.089   4.224   1.126  0.5746  0.1429 -0.7612
13551TIP3    H162068   1.102   4.319   1.133  1.5521 -0.0238 -0.0057
13551TIP3    H262069   1.150   4.187   1.190 -0.5491 -0.9582 -0.2732
13552TIP3   OH262070   5.685   3.267  12.439  0.2326 -0.3266 -0.2449
13552TIP3    H162071   5.732   3.321  12.502 -1.0094  0.2783  0.2109
13552TIP3    H262072   5.749   3.203  12.408  0.6007 -1.4284  2.5179
13553TIP3   OH262073   5.440   0.598   3.536 -0.2705  0.1509  0.4463
13553TIP3    H162074   5.391   0.640   3.465 -1.4841 -0.7697  0.7189
13553TIP3    H262075   5.471   0.671   3.590  0.4169  0.8537 -0.8431
13554TIP3   OH262076   5.898   0.678   5.231 -0.0422  0.0657 -0.0632
13554TIP3    H162077   5.934   0.737   5.165  0.9133 -1.2342 -0.7694
13554TIP3    H262078   5.805   0.671   5.209 -0.2111  1.4140  0.1494
13555TIP3   OH262079   0.918   1.209  15.738 -0.2361 -0.5975 -0.1155
13555TIP3    H162080   0.951   1.121  15.753 -2.1449 -1.5009 -0.8766
13555TIP3    H262081   0.979   1.247  15.675  0.5934 -1.3840  0.2026
13556TIP3   OH262082   2.445   3.418  13.361  0.3125  0.1938  0.3598
13556TIP3    H162083   2.443   3.474  13.283 -0.7970  1.9374  1.5881
13556TIP3    H262084   2.515   3.455  13.415 -0.1527  0.1346  1.0068
13557TIP3   OH262085   2.107   1.841  15.009 -0.3573 -0.4171  0.2100
13557TIP3    H162086   2.172   1.885  14.956 -0.2173 -2.2211 -1.2037
13557TIP3    H262087   2.106   1.890  15.092  1.1982  0.9404 -0.5260
13558TIP3   OH262088   6.438   2.977  13.696 -0.1466  0.2890 -0.1075
13558TIP3    H162089   6.353   3.018  13.712  0.0489  1.6821 -2.1929
13558TIP3    H262090   6.464   2.941  13.780 -2.3478  0.6823  0.8057
13559TIP3   OH262091   6.592   5.913   2.241  0.1758 -0.5576 -0.1216
13559TIP3    H162092   6.511   5.923   2.290 -0.2663 -0.0030 -0.9485
13559TIP3    H262093   6.567   5.923   2.150  1.3463  0.8691 -0.3233
13560TIP3   OH262094   5.309   2.602  11.382 -0.3919  0.5498  0.1811
13560TIP3    H162095   5.252   2.605  11.459  0.2334  0.9512  0.6311
13560TIP3    H262096   5.250   2.617  11.308 -0.6973  2.1583  0.7255
13561TIP3   OH262097   5.098   5.567  16.872  0.4590  0.4411 -0.3463
13561TIP3    H162098   5.027   5.621  16.838  1.4095  3.2085  1.6710
13561TIP3    H262099   5.159   5.629  16.911  2.2302 -2.0537  1.1758
13562TIP3   OH262100   2.618   4.711   3.767  0.0815 -0.0677 -0.2765
13562TIP3    H162101   2.540   4.749   3.806  0.0944 -0.1397 -0.1806
13562TIP3    H262102   2.594   4.620   3.749 -0.2567  0.2259 -1.3555
13563TIP3   OH262103   6.526   3.061   1.435  0.5819 -0.2492 -0.0619
13563TIP3    H162104   6.592   3.006   1.393  1.5120  0.2704  0.6740
13563TIP3    H262105   6.576   3.135   1.471 -0.1360 -0.6490  1.9093
13564TIP3   OH262106   0.681   4.507  16.836 -0.1871 -0.0380  0.0056
13564TIP3    H162107   0.741   4.514  16.761 -0.7922 -1.1925 -0.6176
13564TIP3    H262108   0.738   4.516  16.913  0.5709  0.3233 -0.5752
13565TIP3   OH262109   0.063   1.638   5.367  0.1205  0.0068 -0.0984
13565TIP3    H162110   0.149   1.660   5.331 -0.1510  1.2436 -0.0440
13565TIP3    H262111   0.083   1.592   5.449  0.7576  0.8492  0.2493
13566TIP3   OH262112   4.979   3.002   1.393  0.1839  0.3730 -0.0344
13566TIP3    H162113   4.890   2.970   1.376 -0.2129  1.8827 -1.0480
13566TIP3    H262114   4.990   3.074   1.332  0.5376  2.9838  2.8558
13567TIP3   OH262115   0.038   1.646  12.025  0.3618  0.0441  0.0618
13567TIP3    H162116  -0.056   1.651  12.009 -0.1008  0.1534  2.4885
13567TIP3    H262117   0.061   1.733  12.059  0.9972 -0.5119  1.0818
13568TIP3   OH262118   6.133   2.316   2.516 -0.0682 -0.2405  0.0752
13568TIP3    H162119   6.050   2.326   2.469 -0.6676 -2.5404  0.5067
13568TIP3    H262120   6.162   2.227   2.494  1.5049 -0.0296  1.1484
13569TIP3   OH262121   3.590   1.358  12.071  0.4293  0.5347  0.6720
13569TIP3    H162122   3.626   1.284  12.021 -0.6835  1.4838 -1.7350
13569TIP3    H262123   3.666   1.399  12.112  1.1003 -1.7524  1.8908
13570TIP3   OH262124   3.769   2.275  14.955  0.2222  0.4969 -0.5920
13570TIP3    H162125   3.791   2.362  14.924 -3.7806  1.4241 -1.4255
13570TIP3    H262126   3.725   2.233  14.881 -2.1618 -0.3735  1.1660
13571TIP3   OH262127   5.190   0.284   6.415  0.4727  0.0372 -0.3559
13571TIP3    H162128   5.160   0.246   6.332 -0.7156  1.3107 -0.5364
13571TIP3    H262129   5.114   0.330   6.449  0.7304 -1.0493  1.8331
13572TIP3   OH262130   5.596   0.477   0.281  0.2194 -0.3107 -0.6162
13572TIP3    H162131   5.681   0.498   0.242 -0.0285  1.2812 -0.3630
13572TIP3    H262132   5.554   0.562   0.295 -1.5731 -1.0712 -1.0568
13573TIP3   OH262133   2.769   3.939   0.266 -0.0467  0.1424  0.1992
13573TIP3    H162134   2.677   3.932   0.293 -0.8660  2.4890 -1.6125
13573TIP3    H262135   2.796   4.026   0.295  0.9235  0.3070 -1.1213
13574TIP3   OH262136   4.536   4.444   3.837 -0.6094  0.5025  0.1997
13574TIP3    H162137   4.522   4.411   3.747 -0.9269  2.0650 -0.3537
13574TIP3    H262138   4.586   4.524   3.825 -2.3929  1.8435  1.2344
13575TIP3   OH262139   6.746   6.390  14.258 -0.1828 -0.3194  0.3501
13575TIP3    H162140   6.775   6.321  14.199 -0.8902 -0.1850 -0.1564
13575TIP3    H262141   6.671   6.430  14.215 -1.8772 -1.4104  2.1493
13576TIP3   OH262142   6.321   3.053   3.543  0.4171 -0.6170 -0.2294
13576TIP3    H162143   6.400   3.002   3.559  0.8317 -0.0052 -0.2872
13576TIP3    H262144   6.257   3.018   3.605  0.7102 -1.1639 -0.2322
13577TIP3   OH262145   4.169   3.246  12.300 -0.1167  0.0158  0.7213
13577TIP3    H162146   4.127   3.229  12.215 -0.2185  0.6167  0.6457
13577TIP3    H262147   4.103   3.292  12.351  0.5377  1.2518  0.4912
13578TIP3   OH262148   6.743   1.964  16.280 -0.5957  0.2673  0.3924
13578TIP3    H162149   6.671   1.949  16.341 -1.5574 -1.9347 -1.1647
13578TIP3    H262150   6.709   2.028  16.218 -1.1274 -0.5164 -0.1431
13579TIP3   OH262151   1.733   0.973   1.862  0.2177 -0.3520  0.1399
13579TIP3    H162152   1.688   0.995   1.944  0.5568 -2.3761  0.9340
13579TIP3    H262153   1.703   1.039   1.800 -1.5130  0.1420  1.4101
13580TIP3   OH262154   1.096   2.921   1.514  0.2333 -0.4666 -0.0453
13580TIP3    H162155   1.061   3.009   1.526  0.1704 -0.6226  1.0862
13580TIP3    H262156   1.036   2.865   1.563  0.2883 -1.1360 -0.7350
13581TIP3   OH262157   6.115   4.328  12.908 -0.0722 -0.2841 -0.7571
13581TIP3    H162158   6.028   4.328  12.947 -0.3804 -0.0714 -1.4385
13581TIP3    H262159   6.169   4.280  12.971 -0.1835  1.4478  0.7264
13582TIP3   OH262160   5.800   6.650   4.496 -0.1174  0.2069  0.0335
13582TIP3    H162161   5.741   6.706   4.546  0.0208 -1.6538  2.4845
13582TIP3    H262162   5.881   6.701   4.489 -0.7452  1.2392  0.1166
13583TIP3   OH262163   3.870   1.886  14.453  0.7669 -0.2298  0.7766
13583TIP3    H162164   3.919   1.931  14.523 -1.0724  1.6079  0.9912
13583TIP3    H262165   3.930   1.884  14.379  2.0687 -0.4088  1.8068
13584TIP3   OH262166   2.983   2.258   2.901 -0.0241  0.1439  0.1924
13584TIP3    H162167   2.998   2.245   2.807 -0.6470  2.3050 -0.2725
13584TIP3    H262168   2.888   2.254   2.911  0.0324  0.0021  0.7122
13585TIP3   OH262169   1.222   4.635  16.280 -0.0861  0.5087 -0.1847
13585TIP3    H162170   1.173   4.717  16.284 -0.0097  0.7958 -2.9206
13585TIP3    H262171   1.157   4.569  16.255  0.3342  0.3137 -0.8080
13586TIP3   OH262172   2.067   4.194   1.403  0.0399  0.0824  0.5742
13586TIP3    H162173   2.145   4.186   1.348 -0.9031 -0.3048 -0.7751
13586TIP3    H262174   2.090   4.259   1.469  0.7149  1.7871 -1.2347
13587TIP3   OH262175   6.239   0.491   6.506 -0.0125  0.2205 -0.3977
13587TIP3    H162176   6.150   0.458   6.519 -0.6820  1.2150 -2.1445
13587TIP3    H262177   6.274   0.436   6.435 -0.6261  2.1544 -2.3206
13588TIP3   OH262178   5.720   5.424   1.687  0.3408 -0.0888 -0.1395
13588TIP3    H162179   5.686   5.347   1.642  0.7493 -0.2651 -0.1502
13588TIP3    H262180   5.738   5.486   1.616 -2.4415  1.0472  0.0135
13589TIP3   OH262181   4.449   1.391   5.266 -0.3177  0.1584 -0.5890
13589TIP3    H162182   4.538   1.370   5.295 -0.7663 -0.9976  0.0153
13589TIP3    H262183   4.396   1.317   5.297 -1.1643 -0.1373 -2.6121
13590TIP3   OH262184   3.909   2.046   1.535 -0.5805  0.3043 -0.0757
13590TIP3    H162185   3.922   2.022   1.626 -1.5638 -2.0218 -0.4585
13590TIP3    H262186   3.943   2.135   1.527  0.0729  0.3241  2.3929
13591TIP3   OH262187   3.867   5.763   6.360  0.1656 -0.2095  0.0845
13591TIP3    H162188   3.941   5.815   6.393 -1.0777  1.8453 -0.1652
13591TIP3    H262189   3.828   5.724   6.438  0.0326  0.7702  0.5237
13592TIP3   OH262190   0.897   6.521   3.953  0.2732 -0.2524 -0.6160
13592TIP3    H162191   0.983   6.554   3.925 -0.2152  0.7115 -1.0234
13592TIP3    H262192   0.858   6.486   3.873 -0.9505  2.1150 -1.1302
13593TIP3   OH262193   5.190   2.042  11.641  0.2029 -0.0946  0.5686
13593TIP3    H162194   5.202   2.024  11.548 -0.6657 -0.2080  0.4690
13593TIP3    H262195   5.275   2.074  11.671  0.4638  0.0194 -0.2800
13594TIP3   OH262196   3.606   2.531   4.867  0.2696  0.2793  1.1472
13594TIP3    H162197   3.534   2.468   4.872  1.2925 -1.3501 -1.9256
13594TIP3    H262198   3.563   2.614   4.843 -0.7104 -0.5403 -0.1187
13595TIP3   OH262199   1.922   6.411   4.893 -0.1533 -0.3906  0.2156
13595TIP3    H162200   1.973   6.340   4.931 -1.2563 -1.6540 -0.5534
13595TIP3    H262201   1.897   6.465   4.967  3.2729  1.0267  0.5159
13596TIP3   OH262202   2.604   2.665   5.129 -0.2932 -0.2186 -0.4019
13596TIP3    H162203   2.633   2.737   5.184 -0.2247 -0.5503  0.0002
13596TIP3    H262204   2.603   2.701   5.040 -0.0964  0.2257 -0.2243
13597TIP3   OH262205   5.928   6.117  11.888 -0.7709  0.0474 -0.3319
13597TIP3    H162206   5.879   6.150  11.814 -2.6002 -1.1335  0.2837
13597TIP3    H262207   5.952   6.028  11.863  0.2831  0.2912 -0.2432
13598TIP3   OH262208   0.973   1.134  12.472  0.3399  0.0139  0.2889
13598TIP3    H162209   0.980   1.039  12.479  2.4970  0.1719  1.2450
13598TIP3    H262210   0.924   1.160  12.550 -0.0606 -0.2941  0.1417
13599TIP3   OH262211   6.336   1.623   0.809  0.0574 -0.0562 -0.1162
13599TIP3    H162212   6.355   1.543   0.857  1.5299  1.0512  1.2835
13599TIP3    H262213   6.418   1.644   0.763  0.3685  1.6056  1.0940
13600TIP3   OH262214   1.156   0.157  15.042 -0.2477 -0.2251  0.1359
13600TIP3    H162215   1.135   0.066  15.060  0.3327 -0.3581  0.1488
13600TIP3    H262216   1.216   0.183  15.112  0.1042 -0.0316 -0.2322
13601TIP3   OH262217   5.851   2.097   2.542 -0.4270 -0.5172  0.3487
13601TIP3    H162218   5.774   2.122   2.491 -0.0248 -0.1299 -0.0731
13601TIP3    H262219   5.842   2.146   2.624 -0.1016  0.3255 -0.1164
13602TIP3   OH262220   6.730   4.195  16.314 -0.3353  0.5637 -0.3226
13602TIP3    H162221   6.727   4.104  16.282 -2.2371  0.6437 -0.4972
13602TIP3    H262222   6.814   4.202  16.358  0.1618 -1.0773 -0.9248
13603TIP3   OH262223   1.405   5.369  15.469 -0.0833 -0.5772  0.0087
13603TIP3    H162224   1.460   5.291  15.474  0.5815 -0.1754 -0.7966
13603TIP3    H262225   1.458   5.438  15.509 -1.4548 -0.9155  2.6113
13604TIP3   OH262226   0.070   3.345  12.818  0.0461 -0.3095 -0.2903
13604TIP3    H162227   0.076   3.252  12.798 -1.0944 -0.2402 -1.0522
13604TIP3    H262228  -0.022   3.358  12.841  0.1147  0.6946 -0.5545
13605TIP3   OH262229   4.605   1.062  14.785  0.5528  0.3856 -0.0751
13605TIP3    H162230   4.583   1.096  14.872  1.7941  2.4151 -0.4935
13605TIP3    H262231   4.665   0.989  14.802  0.0138  0.1380  0.7956
13606TIP3   OH262232   3.601   1.939  14.362  0.0209 -0.1159  0.2323
13606TIP3    H162233   3.629   1.984  14.282  1.5949 -0.7301  0.4056
13606TIP3    H262234   3.682   1.915  14.406 -0.7813 -1.5999  1.0030
13607TIP3   OH262235   5.285   1.749  12.629 -0.1138  0.8595 -0.0732
13607TIP3    H162236   5.315   1.831  12.669  0.3122  0.2354  0.9310
13607TIP3    H262237   5.346   1.683  12.662 -0.4166  0.1382 -0.9180
13608TIP3   OH262238   0.308   6.623  16.249  0.4508 -0.0799  0.0472
13608TIP3    H162239   0.348   6.541  16.276  2.8092  1.0375  0.2363
13608TIP3    H262240   0.351   6.690  16.303 -3.5649  1.1136  2.1523
13609TIP3   OH262241   1.271   4.083   1.301  0.0382 -0.0492  0.2919
13609TIP3    H162242   1.251   4.025   1.375 -0.6657 -0.6526 -0.3607
13609TIP3    H262243   1.359   4.057   1.273  0.5111  0.5090  1.2084
13610TIP3   OH262244   1.014   0.692   2.056 -0.4210  0.2534 -0.2125
13610TIP3    H162245   0.919   0.681   2.066 -0.3734 -0.9644 -0.9273
13610TIP3    H262246   1.040   0.745   2.131 -1.7972  1.3581 -0.4658
13611TIP3   OH262247   4.706   2.258   2.417 -0.4375 -0.0467  0.2046
13611TIP3    H162248   4.789   2.212   2.431 -1.7444 -2.0101  2.1416
13611TIP3    H262249   4.679   2.286   2.505 -2.9386 -1.5631 -0.0034
13612TIP3   OH262250   2.229   1.135   4.649  0.3478 -0.2349  0.5122
13612TIP3    H162251   2.219   1.110   4.741 -0.0434  0.1255  0.5724
13612TIP3    H262252   2.145   1.176   4.626  0.8455  0.7345  0.3394
13613TIP3   OH262253   0.219   3.337  14.468  0.0488 -0.5774 -0.0784
13613TIP3    H162254   0.221   3.281  14.546 -2.4640 -0.2417  0.2993
13613TIP3    H262255   0.134   3.320  14.428 -0.0114  1.5821 -1.0099
13614TIP3   OH262256   3.987   0.430   3.687  0.3371 -0.0075 -0.3121
13614TIP3    H162257   3.904   0.433   3.640  0.2411  1.5470 -0.0714
13614TIP3    H262258   4.052   0.417   3.618 -0.1461 -2.8902 -0.3791
13615TIP3   OH262259   3.446   2.856  11.677 -0.3208  0.4073 -0.0030
13615TIP3    H162260   3.490   2.939  11.695 -1.0393  0.5118  1.4901
13615TIP3    H262261   3.515   2.790  11.681  0.0405  0.7930  0.1464
13616TIP3   OH262262   0.374   1.335  14.007 -0.0006  0.2249  0.0453
13616TIP3    H162263   0.302   1.378  14.053 -0.2973  0.0322 -0.2335
13616TIP3    H262264   0.332   1.264  13.958  0.3076  0.4129 -0.5015
13617TIP3   OH262265   1.020   2.647  12.856  0.4573 -0.0855  0.1276
13617TIP3    H162266   0.985   2.672  12.770  3.7879  2.7565 -0.5965
13617TIP3    H262267   1.061   2.562  12.841  0.3170  0.0098 -0.8774
13618TIP3   OH262268   2.052   5.935   2.856  0.0443  0.1945 -0.5119
13618TIP3    H162269   2.134   5.977   2.882  1.7076 -2.8160 -0.5030
13618TIP3    H262270   2.035   5.870   2.924 -0.2558 -1.8068 -2.3826
13619TIP3   OH262271   2.074   3.449  16.347 -0.2217 -0.0076 -0.8476
13619TIP3    H162272   2.137   3.405  16.404 -1.4846  0.1402  0.7492
13619TIP3    H262273   2.102   3.541  16.347  0.2001 -0.1357 -1.0475
13620TIP3   OH262274   0.067   6.337   2.083  0.2144 -0.2319  0.3428
13620TIP3    H162275   0.083   6.361   1.991  1.8057 -0.4699  0.5298
13620TIP3    H262276   0.069   6.241   2.083 -0.8139 -0.2647  0.4774
13621TIP3   OH262277   3.592   0.653   5.401 -0.1608  0.4183  0.2007
13621TIP3    H162278   3.508   0.616   5.428  1.4442 -1.9162  2.4340
13621TIP3    H262279   3.592   0.643   5.306 -1.6323 -1.3996  0.3122
13622TIP3   OH262280   5.473   0.633   1.342 -0.2208  0.1308 -0.1278
13622TIP3    H162281   5.522   0.643   1.423 -1.8635 -0.3330  0.9774
13622TIP3    H262282   5.462   0.538   1.331 -0.9751  0.2207 -0.2569
13623TIP3   OH262283   3.627   2.529  13.198 -0.6539 -0.5777  0.0951
13623TIP3    H162284   3.588   2.578  13.270 -0.3734  0.5523 -0.4922
13623TIP3    H262285   3.625   2.438  13.227 -2.1816 -0.3571  0.7606
13624TIP3   OH262286   4.289   6.091   2.767  0.2594 -0.3715  0.1916
13624TIP3    H162287   4.270   6.060   2.678  2.8599 -0.0774 -0.5393
13624TIP3    H262288   4.346   6.167   2.754  1.0407 -0.5802  2.1129
13625TIP3   OH262289   1.108   5.296   4.046  0.1785 -0.2525  0.1015
13625TIP3    H162290   1.020   5.303   4.010  0.8345  0.7934 -1.4171
13625TIP3    H262291   1.110   5.358   4.119 -0.5785 -0.9019  0.6832
13626TIP3   OH262292   3.393   5.683  16.695 -0.2412  0.0771  0.3165
13626TIP3    H162293   3.379   5.775  16.717  0.3845  0.0566  0.8589
13626TIP3    H262294   3.476   5.682  16.647  0.0985 -0.2701  0.8916
13627TIP3   OH262295   0.557   6.776   4.632 -0.5464 -0.1348  0.4250
13627TIP3    H162296   0.469   6.753   4.659 -0.3346  0.1283  1.3472
13627TIP3    H262297   0.606   6.693   4.637 -0.7258 -0.2756 -0.0653
13628TIP3   OH262298   4.289   0.707  12.979  0.4264 -0.2621  0.3439
13628TIP3    H162299   4.313   0.732  12.889 -2.0080 -2.1938 -0.9655
13628TIP3    H262300   4.254   0.788  13.017  1.2991  0.5420 -0.4856
13629TIP3   OH262301   3.327   1.455   3.432  0.2781  0.4666 -0.1468
13629TIP3    H162302   3.274   1.478   3.508 -0.4582 -0.8982 -0.2144
13629TIP3    H262303   3.379   1.380   3.462 -0.5188 -0.5229 -1.1628
13630TIP3   OH262304   2.864   0.656  15.915  0.1667  0.1660 -0.0868
13630TIP3    H162305   2.850   0.677  15.822  1.3902 -1.0625 -0.5841
13630TIP3    H262306   2.898   0.737  15.953  0.4229  0.4506 -0.8991
13631TIP3   OH262307   4.442   2.721  12.839  0.1383 -0.3481 -0.1080
13631TIP3    H162308   4.381   2.776  12.791 -0.7264 -0.5041  0.7755
13631TIP3    H262309   4.412   2.632  12.825  0.3247 -0.4489  0.1146
13632TIP3   OH262310   0.818   3.767   3.013  0.4392  0.2782 -0.2892
13632TIP3    H162311   0.794   3.712   2.938  2.4172 -1.1087  0.0092
13632TIP3    H262312   0.792   3.716   3.089 -3.1008  2.3807  0.1474
13633TIP3   OH262313   0.737   5.162   5.418 -0.4041 -0.2277 -0.4225
13633TIP3    H162314   0.783   5.242   5.441 -0.9335 -0.7921  3.2739
13633TIP3    H262315   0.779   5.094   5.472  0.2605 -2.6028 -3.6407
13634TIP3   OH262316   2.438   1.355  10.778 -1.0290 -0.8263 -0.2219
13634TIP3    H162317   2.346   1.374  10.758 -0.8062 -0.4382 -0.9219
13634TIP3    H262318   2.481   1.351  10.692 -0.2066 -0.0608  0.1396
13635TIP3   OH262319   2.627   0.004   3.014  0.0704 -0.3376  0.0498
13635TIP3    H162320   2.571   0.042   3.081  2.1004  0.3076  1.4852
13635TIP3    H262321   2.615  -0.090   3.023 -1.5218 -0.2013 -0.3918
13636TIP3   OH262322   1.392   2.972  13.114 -0.6255  0.3739 -0.5245
13636TIP3    H162323   1.363   2.983  13.024  0.3995  0.8331 -0.8115
13636TIP3    H262324   1.476   2.926  13.107  0.1584  1.6747  0.1014
13637TIP3   OH262325   6.380   1.428   1.057 -0.1513 -0.3627 -0.5426
13637TIP3    H162326   6.378   1.336   1.030 -0.1968  0.1719 -2.5275
13637TIP3    H262327   6.467   1.439   1.097  0.4229 -0.9355 -1.5880
13638TIP3   OH262328   5.826   3.622   5.104 -0.1774  0.3311  0.6697
13638TIP3    H162329   5.853   3.689   5.168  2.7833 -0.5447  0.4651
13638TIP3    H262330   5.908   3.584   5.073 -1.6599 -1.2944 -1.5280
13639TIP3   OH262331   4.926   1.781  11.951  0.1466 -0.2313  0.2694
13639TIP3    H162332   4.924   1.713  12.019 -1.3236 -0.0524  0.4463
13639TIP3    H262333   4.932   1.863  11.999 -0.4733 -0.1255  0.1779
13640TIP3   OH262334   1.239   5.559   1.462 -0.3908 -0.5034 -0.0209
13640TIP3    H162335   1.321   5.578   1.507 -1.7851  1.9711  1.7147
13640TIP3    H262336   1.239   5.618   1.387 -0.6807 -0.3462  0.1032
13641TIP3   OH262337   0.476   3.918  10.880 -0.5748  0.3338  0.6685
13641TIP3    H162338   0.408   3.985  10.890  0.3246  1.3159  0.3806
13641TIP3    H262339   0.524   3.944  10.801  0.2749 -0.2160  0.9906
13642TIP3   OH262340   1.535   1.207  16.383  0.2257  0.0712  0.0131
13642TIP3    H162341   1.453   1.199  16.334 -0.0729 -1.0467  0.6464
13642TIP3    H262342   1.588   1.133  16.353  1.1654  1.0050 -0.6678
13643TIP3   OH262343   2.316   5.698   5.170  0.5348  0.0129 -0.3474
13643TIP3    H162344   2.397   5.663   5.207  0.0539  1.3700  2.2101
13643TIP3    H262345   2.258   5.710   5.244 -1.5015  0.4908 -1.9185
13644TIP3   OH262346   4.579   2.595  10.936 -0.0590  0.1786 -0.5862
13644TIP3    H162347   4.669   2.601  10.904  0.0954  1.7011  0.0705
13644TIP3    H262348   4.547   2.685  10.936 -1.6469 -0.3601 -0.9593
13645TIP3   OH262349   5.464   1.088   5.530  0.2532 -0.3166 -0.2942
13645TIP3    H162350   5.541   1.124   5.576  1.1276 -2.6651  0.2064
13645TIP3    H262351   5.415   1.042   5.598 -0.0508 -1.2913 -1.1576
13646TIP3   OH262352   5.034   3.094   5.713  0.4750  0.2515  0.6319
13646TIP3    H162353   5.021   3.148   5.635  1.2471  1.4729  1.3179
13646TIP3    H262354   5.089   3.148   5.770  1.6657 -1.4457  1.1531
13647TIP3   OH262355   3.308   0.650  13.636 -0.2182 -0.2632 -0.6962
13647TIP3    H162356   3.220   0.664  13.602  0.1324 -0.6595 -1.8006
13647TIP3    H262357   3.346   0.738  13.641 -1.2034  0.1236  1.3915
13648TIP3   OH262358   0.204   3.887  11.579 -0.3046 -0.3200 -0.1158
13648TIP3    H162359   0.111   3.902  11.599 -0.6550 -1.2237 -0.9755
13648TIP3    H262360   0.205   3.804  11.531  0.8564  0.1277 -0.9097
13649TIP3   OH262361   2.774   3.424  15.408  0.3327 -0.3787  1.1338
13649TIP3    H162362   2.808   3.429  15.498 -0.5143  0.5609  1.4195
13649TIP3    H262363   2.775   3.515  15.377 -0.7606 -0.4873  0.7227
13650TIP3   OH262364   6.427   0.654   4.448  0.3075  0.1846 -0.7075
13650TIP3    H162365   6.357   0.719   4.443 -0.8366 -0.9681 -0.2324
13650TIP3    H262366   6.497   0.698   4.495 -0.9947  0.6379  0.8927
13651TIP3   OH262367   6.337   0.430  11.878 -0.1630 -0.1139  0.3567
13651TIP3    H162368   6.371   0.456  11.792  0.2133  2.5349  1.2133
13651TIP3    H262369   6.412   0.392  11.923 -0.4985 -2.0671 -0.6138
13652TIP3   OH262370   0.246   5.764  13.952  0.3625  0.3584 -0.1424
13652TIP3    H162371   0.280   5.845  13.990  0.4156 -0.4352  1.5761
13652TIP3    H262372   0.270   5.696  14.014 -0.2697 -0.9024 -1.2227
13653TIP3   OH262373   2.537   6.773   0.884  0.2769 -0.4382  0.1428
13653TIP3    H162374   2.549   6.691   0.836  1.9204 -0.1873  0.0495
13653TIP3    H262375   2.528   6.747   0.976 -1.9985 -0.8625 -0.1441
13654TIP3   OH262376   2.190   1.434   4.515  0.0282 -0.0087 -0.3650
13654TIP3    H162377   2.113   1.412   4.566 -0.0969 -0.1709 -0.6198
13654TIP3    H262378   2.244   1.355   4.517 -0.3481 -0.3021 -1.1488
13655TIP3   OH262379   3.247   0.504   1.653  0.4291 -0.0504  0.4816
13655TIP3    H162380   3.228   0.464   1.738 -0.0901 -0.6190  0.1076
13655TIP3    H262381   3.193   0.583   1.651 -1.8795 -1.5483 -0.4943
13656TIP3   OH262382   6.289   3.572   2.107  0.2647 -0.2684 -0.3347
13656TIP3    H162383   6.324   3.637   2.168  0.4326 -0.0958 -0.6126
13656TIP3    H262384   6.321   3.600   2.021 -0.1557 -0.3826 -0.5322
13657TIP3   OH262385   4.405   0.023  14.090  0.0923 -0.1323 -0.0066
13657TIP3    H162386   4.394  -0.062  14.047 -1.7394 -0.0675  0.2601
13657TIP3    H262387   4.462   0.005  14.165  0.3402 -0.9619 -0.3856
13658TIP3   OH262388   1.811   4.179   0.538 -0.4162 -0.5986 -0.3823
13658TIP3    H162389   1.774   4.161   0.451  0.9135  0.3460 -1.1968
13658TIP3    H262390   1.749   4.239   0.579  0.2857  1.2026 -1.8340
13659TIP3   OH262391   4.040   2.613  12.256 -0.2636 -0.0725  0.1892
13659TIP3    H162392   3.984   2.685  12.227  2.4219  2.1045  0.0401
13659TIP3    H262393   4.000   2.584  12.338 -2.3208  0.4664 -0.5574
13660TIP3   OH262394   4.666   2.964   2.324  0.0789  0.2709  0.0965
13660TIP3    H162395   4.674   2.935   2.416  1.0464 -0.2507 -0.1341
13660TIP3    H262396   4.699   2.889   2.274 -0.4490  0.5578 -0.6822
13661TIP3   OH262397   6.819   5.359  13.357  0.1590  0.1172  0.1246
13661TIP3    H162398   6.896   5.381  13.304 -0.6273  1.1034 -0.6554
13661TIP3    H262399   6.825   5.417  13.433  0.0651  0.3611 -0.0531
13662TIP3   OH262400   0.175   2.789  16.843 -0.0986 -0.6977  0.6285
13662TIP3    H162401   0.251   2.828  16.886  1.3760 -2.4121 -0.3044
13662TIP3    H262402   0.196   2.794  16.749 -1.1699 -1.1558  0.3503
13663TIP3   OH262403   3.209   5.687  11.463  0.0053 -0.3786  0.0077
13663TIP3    H162404   3.282   5.650  11.414  0.5936 -0.0305  0.6067
13663TIP3    H262405   3.229   5.780  11.470  0.5767 -0.6038  1.9740
13664TIP3   OH262406   4.446   2.273  12.986 -0.4230  0.0657  0.1889
13664TIP3    H162407   4.373   2.211  12.986 -0.3366 -0.0423 -0.6357
13664TIP3    H262408   4.507   2.238  13.051 -1.1425  0.2119  0.9622
13665TIP3   OH262409   3.157   0.918   5.981 -0.0661 -0.3477  0.3771
13665TIP3    H162410   3.110   1.001   5.980 -0.8190 -0.7258  1.8666
13665TIP3    H262411   3.230   0.933   6.041  1.0293 -0.1570 -0.9451
13666TIP3   OH262412   1.986   0.651   2.660  0.2575 -1.1893 -0.0463
13666TIP3    H162413   2.023   0.629   2.746 -1.8545 -2.0858  0.6869
13666TIP3    H262414   1.975   0.567   2.617  0.3041 -0.8246 -0.7766
13667TIP3   OH262415   4.106   0.353  12.031 -0.2001 -0.6408 -0.2531
13667TIP3    H162416   4.018   0.331  11.999 -0.8228  0.2409  0.7632
13667TIP3    H262417   4.091   0.390  12.118  1.0795  0.5473 -0.4996
13668TIP3   OH262418   0.356   5.010   2.533 -0.0543 -0.1483  0.1766
13668TIP3    H162419   0.440   4.983   2.570  0.5447 -1.7866 -2.1489
13668TIP3    H262420   0.352   5.105   2.549  2.0094 -0.1132  0.7747
13669TIP3   OH262421   5.701   1.946  13.653 -0.4967  0.1890  0.0052
13669TIP3    H162422   5.703   2.033  13.615  0.1340  0.3759  0.4367
13669TIP3    H262423   5.746   1.890  13.590 -0.7641  0.2073 -0.2009
13670TIP3   OH262424   4.197   1.899   3.885  0.2680  0.3169  0.3415
13670TIP3    H162425   4.220   1.967   3.822  0.5742  1.3007  1.4824
13670TIP3    H262426   4.118   1.932   3.929 -0.9960 -1.1642 -0.7102
13671TIP3   OH262427   0.792   4.237  12.479 -0.0740  0.3404  0.1052
13671TIP3    H162428   0.871   4.198  12.515  0.2175  1.9110  1.2852
13671TIP3    H262429   0.734   4.248  12.555 -0.8212  0.5943 -0.4845
13672TIP3   OH262430   0.482   4.760   5.627  0.6509 -0.5170 -0.6317
13672TIP3    H162431   0.465   4.783   5.718 -0.5670 -2.7220 -0.2208
13672TIP3    H262432   0.422   4.814   5.576 -0.7032 -1.2520  0.1202
13673TIP3   OH262433   2.777   0.880  15.340 -0.6565 -0.1876 -0.3519
13673TIP3    H162434   2.684   0.901  15.354 -0.7552 -1.2040  0.5992
13673TIP3    H262435   2.801   0.825  15.414  0.2985 -1.2263 -1.4017
13674TIP3   OH262436   4.983   5.301   5.115 -0.2989  0.0344 -0.2116
13674TIP3    H162437   5.020   5.319   5.028 -0.8058 -0.5159 -0.5519
13674TIP3    H262438   5.058   5.307   5.174  0.4189 -1.3285 -0.9281
13675TIP3   OH262439   2.065   6.631   5.013 -0.4011  0.0159  0.2575
13675TIP3    H162440   2.037   6.694   4.947  0.4066 -1.4637 -1.5904
13675TIP3    H262441   1.994   6.631   5.077 -1.6855  0.8205 -1.1011
13676TIP3   OH262442   0.120   6.499   0.463 -0.2158 -0.0695 -0.6425
13676TIP3    H162443   0.183   6.571   0.462 -1.0091  0.6920 -2.6774
13676TIP3    H262444   0.124   6.463   0.374 -0.0402 -2.3968  0.2445
13677TIP3   OH262445   2.214   0.673   5.644  0.0463 -0.1841 -0.0533
13677TIP3    H162446   2.214   0.765   5.671  1.5936  0.0027 -0.5921
13677TIP3    H262447   2.121   0.652   5.633 -0.3672  1.1332  0.6443
13678TIP3   OH262448   3.699   5.448   0.670 -0.0866  0.2831 -0.4747
13678TIP3    H162449   3.609   5.462   0.638 -0.0025  1.0083 -0.3982
13678TIP3    H262450   3.726   5.533   0.704  0.3686 -0.1194  0.1809
13679TIP3   OH262451   6.771   6.510  11.457  0.2062  0.3689 -0.5074
13679TIP3    H162452   6.800   6.552  11.537 -0.0862 -0.2708 -0.0580
13679TIP3    H262453   6.817   6.557  11.387 -0.1041  1.4084 -0.0298
13680TIP3   OH262454   1.474   2.099  11.781  0.0270  0.3566 -0.1176
13680TIP3    H162455   1.556   2.104  11.830  0.3955 -0.8285 -0.5687
13680TIP3    H262456   1.414   2.050  11.838  0.2925 -0.5694 -0.6196
13681TIP3   OH262457   3.153   2.559  15.181 -0.5892  0.1839  0.2198
13681TIP3    H162458   3.106   2.503  15.120  0.4473 -0.8182  0.3082
13681TIP3    H262459   3.084   2.597  15.236 -1.4175  0.0390 -0.6905
13682TIP3   OH262460   1.712   3.593  14.652  0.7698 -0.1611 -0.1169
13682TIP3    H162461   1.619   3.592  14.674  0.7159 -1.7114 -0.3069
13682TIP3    H262462   1.754   3.634  14.728 -0.0160  0.0977  0.1830
13683TIP3   OH262463   4.766   5.066   3.281 -0.1788  0.1122  0.2440
13683TIP3    H162464   4.730   5.000   3.222  1.1141 -1.1950  0.8452
13683TIP3    H262465   4.703   5.072   3.353 -0.9973  0.5868 -0.5001
13684TIP3   OH262466   0.082   3.021  11.517  0.0314 -0.3487 -0.3380
13684TIP3    H162467   0.153   2.964  11.487  0.1587 -1.6232  2.1736
13684TIP3    H262468   0.110   3.052  11.603 -1.6103  0.6699 -0.1227
13685TIP3   OH262469   3.705   0.728   3.498 -0.2435  0.8916  0.2249
13685TIP3    H162470   3.791   0.770   3.491  0.0973  0.2949  0.7211
13685TIP3    H262471   3.662   0.746   3.414  1.2137 -0.6299 -0.9278
13686TIP3   OH262472   5.246   6.760  11.928 -0.0165 -0.2854  0.6239
13686TIP3    H162473   5.182   6.708  11.977  0.6042 -0.7542  0.9581
13686TIP3    H262474   5.209   6.769  11.840 -0.9692  0.2401  1.0629
13687TIP3   OH262475   6.283   5.110   4.602  0.0317 -0.1922 -0.4939
13687TIP3    H162476   6.368   5.140   4.571  0.3952  0.6773  1.1900
13687TIP3    H262477   6.223   5.123   4.528  1.2772 -0.4905 -1.5806
13688TIP3   OH262478   4.183   5.786  11.956 -0.7062  0.1465 -0.4443
13688TIP3    H162479   4.252   5.725  11.929 -1.9348 -1.1891 -0.7015
13688TIP3    H262480   4.207   5.869  11.916  1.6732  0.1890  0.9170
13689TIP3   OH262481   0.526   3.092  14.671 -0.4707  0.0724  0.1593
13689TIP3    H162482   0.531   3.071  14.578  0.3587 -2.3720  0.6767
13689TIP3    H262483   0.617   3.084  14.702 -1.0221 -1.5275  1.5658
13690TIP3   OH262484   2.918   4.668   2.254 -0.0156  0.0248  0.8065
13690TIP3    H162485   2.964   4.723   2.190 -0.7995 -1.9745 -1.6440
13690TIP3    H262486   2.981   4.657   2.325  1.9935  0.2146 -0.8407
13691TIP3   OH262487   3.422   4.461   2.976 -0.7405 -0.3740  0.6429
13691TIP3    H162488   3.386   4.533   3.028  1.3791 -0.3330  2.1961
13691TIP3    H262489   3.464   4.504   2.901 -0.1785 -0.0218  1.1438
13692TIP3   OH262490   4.346   3.224  15.898  0.0784  0.6548 -0.3389
13692TIP3    H162491   4.372   3.315  15.909 -1.3963  1.2608 -1.4238
13692TIP3    H262492   4.284   3.226  15.825 -0.1971 -1.1788 -0.2026
13693TIP3   OH262493   1.511   6.664  12.380 -0.5445 -0.4954 -0.2441
13693TIP3    H162494   1.542   6.754  12.380 -1.8894 -0.0080 -0.1067
13693TIP3    H262495   1.583   6.614  12.419 -0.9988  0.9791  2.8277
13694TIP3   OH262496   5.591   3.003   5.912  0.4137 -0.5426 -0.2968
13694TIP3    H162497   5.508   2.957   5.902  0.3155 -0.1536 -1.3984
13694TIP3    H262498   5.566   3.096   5.918  0.5855 -0.5968  2.1692
13695TIP3   OH262499   4.664   0.322   0.859 -0.2128  0.0285 -0.2141
13695TIP3    H162500   4.624   0.262   0.922 -0.8501 -0.5251 -1.1237
13695TIP3    H262501   4.610   0.401   0.863 -1.0286 -0.4638 -0.9365
13696TIP3   OH262502   2.706   5.594  16.836  0.1051  0.4894  0.0729
13696TIP3    H162503   2.668   5.680  16.816  0.3406  0.9587  1.5371
13696TIP3    H262504   2.776   5.613  16.899 -0.6581 -0.8966  1.3935
13697TIP3   OH262505   5.891   4.048   1.896  0.0384 -0.0531 -0.6125
13697TIP3    H162506   5.864   3.997   1.972 -3.2055 -0.3589 -1.8246
13697TIP3    H262507   5.933   3.984   1.838 -0.4073 -0.4853 -0.4589
13698TIP3   OH262508   1.493   6.056   0.387 -0.1431 -0.2056 -0.1865
13698TIP3    H162509   1.489   5.982   0.447  0.6492 -0.7295 -0.7552
13698TIP3    H262510   1.426   6.116   0.418  0.4952 -0.2845  1.4598
13699TIP3   OH262511   6.481   4.670   4.758  0.0069 -0.1572 -0.0729
13699TIP3    H162512   6.455   4.686   4.849  0.0970  2.5747 -0.4384
13699TIP3    H262513   6.411   4.711   4.706  1.5176  1.1971 -1.1484
13700TIP3   OH262514   5.316   0.601   4.757  0.0466 -0.4143  1.2217
13700TIP3    H162515   5.328   0.526   4.698 -0.0215  1.0873 -0.8271
13700TIP3    H262516   5.404   0.636   4.770 -0.2102  1.2182 -0.8253
13701TIP3   OH262517   5.587   5.822   1.621  0.1573  0.5272 -0.6651
13701TIP3    H162518   5.648   5.779   1.561 -0.5718 -1.3953 -0.0853
13701TIP3    H262519   5.517   5.855   1.565  0.3096  0.2261 -1.0348
13702TIP3   OH262520   6.369   5.411   1.182 -0.2025 -0.3389  0.5792
13702TIP3    H162521   6.413   5.484   1.138  0.9186 -0.5846  1.2583
13702TIP3    H262522   6.381   5.337   1.123 -1.2129 -0.0203 -0.0416
13703TIP3   OH262523   3.439   0.904  13.661  0.3206  0.5943  0.2361
13703TIP3    H162524   3.425   0.974  13.597 -2.8206  0.3911  0.5326
13703TIP3    H262525   3.427   0.946  13.746 -1.0330 -0.1393  0.4389
13704TIP3   OH262526   0.843   5.229   2.971 -0.0429 -0.5302  0.2658
13704TIP3    H162527   0.870   5.153   2.919  0.5288  0.0151 -0.2541
13704TIP3    H262528   0.917   5.246   3.029 -0.1891 -0.4016  0.4174
13705TIP3   OH262529   5.749   4.884   3.745  0.1067  0.2728  0.1973
13705TIP3    H162530   5.791   4.805   3.710  0.5098  0.7291 -0.3539
13705TIP3    H262531   5.659   4.879   3.713  0.1278  0.0362  0.1687
13706TIP3   OH262532   2.675   2.265  12.098 -0.4056 -0.1992 -0.1353
13706TIP3    H162533   2.629   2.182  12.085  2.8963 -2.1818 -0.3554
13706TIP3    H262534   2.737   2.247  12.168 -0.5931  2.6219  0.8641
13707TIP3   OH262535   1.574   4.986  11.335 -0.0703 -0.6013  0.1590
13707TIP3    H162536   1.569   4.890  11.332 -0.0439 -0.5980 -1.7849
13707TIP3    H262537   1.662   5.004  11.368  1.6752 -1.4182 -3.4400
13708TIP3   OH262538   3.193   4.695  11.573  0.3297 -0.1800  0.0414
13708TIP3    H162539   3.118   4.636  11.564 -0.8347  1.2559 -0.0130
13708TIP3    H262540   3.223   4.710  11.483  0.6131 -0.6557  0.0541
13709TIP3   OH262541   2.125   6.391  16.338 -0.0467  0.0508  0.1881
13709TIP3    H162542   2.219   6.403  16.342 -0.1963  1.2710  0.3222
13709TIP3    H262543   2.111   6.333  16.263  0.6513  1.8468 -1.4140
13710TIP3   OH262544   2.368   5.702   6.135 -0.4486  0.3153  0.1854
13710TIP3    H162545   2.282   5.741   6.119 -0.9917  0.3734  2.8023
13710TIP3    H262546   2.350   5.611   6.158  0.1333  0.4365  1.1813
13711TIP3   OH262547   1.603   5.650  15.968  0.4507 -0.4230 -0.4524
13711TIP3    H162548   1.547   5.721  15.998  0.2974 -0.2335 -1.1721
13711TIP3    H262549   1.586   5.643  15.874 -0.3557 -2.1433 -0.2130
13712TIP3   OH262550   6.253   3.749  14.084  0.3531  0.1586  0.1502
13712TIP3    H162551   6.202   3.708  14.155  0.7371 -0.3828  0.1159
13712TIP3    H262552   6.191   3.809  14.043  0.9467  2.9338  2.9192
13713TIP3   OH262553   5.024   2.949  16.144  0.2079 -0.1489  0.0443
13713TIP3    H162554   5.003   3.012  16.213  1.6134  0.2150  0.1777
13713TIP3    H262555   5.003   2.864  16.182 -1.9684  0.2061 -0.2359
13714TIP3   OH262556   3.250   4.120   5.003  0.0229  0.3428  0.4860
13714TIP3    H162557   3.246   4.208   5.040  0.7160  1.2418 -1.4493
13714TIP3    H262558   3.299   4.130   4.922 -0.4331 -1.7354 -0.1158
13715TIP3   OH262559   1.317   2.597   3.360 -0.2097  0.2268 -0.3303
13715TIP3    H162560   1.332   2.507   3.329 -0.3755 -0.1218  0.5786
13715TIP3    H262561   1.396   2.618   3.411 -0.0309  0.7165 -0.8022
13716TIP3   OH262562   0.015   1.693   4.748 -0.6239  0.0029 -0.0791
13716TIP3    H162563   0.102   1.652   4.750 -0.0370  1.1770  0.0108
13716TIP3    H262564   0.009   1.730   4.660 -0.9027  0.1840  0.0155
13717TIP3   OH262565   0.709   0.504  11.017  0.0459  0.3595 -0.2236
13717TIP3    H162566   0.701   0.600  11.014 -0.7822  0.5657  3.3711
13717TIP3    H262567   0.800   0.487  10.994  0.5979  2.1757  0.4083
13718TIP3   OH262568   5.565   4.011   0.523 -0.3261  0.3770 -0.1898
13718TIP3    H162569   5.652   4.027   0.487  1.1713  2.4144  3.7553
13718TIP3    H262570   5.520   4.095   0.516 -0.2419  0.6384  1.7343
13719TIP3   OH262571   1.965   3.077  12.987  0.2922  0.0757  0.3664
13719TIP3    H162572   2.053   3.057  13.018  0.8016 -0.4319 -1.3082
13719TIP3    H262573   1.909   3.065  13.064  1.2451 -2.7552  0.7333
13720TIP3   OH262574   1.995   1.298  14.749  0.2743  0.7920  0.3284
13720TIP3    H162575   2.041   1.381  14.759 -0.9756  1.6301 -0.5763
13720TIP3    H262576   1.910   1.311  14.791  0.0014  0.0398  0.0421
13721TIP3   OH262577   2.278   5.429  11.897 -0.6297  0.0574  0.4095
13721TIP3    H162578   2.234   5.468  11.822 -1.0840 -1.3965 -0.1097
13721TIP3    H262579   2.331   5.358  11.860  1.2108  0.9690  1.1713
13722TIP3   OH262580   5.896   2.168   3.926 -0.2557  0.4136  0.4344
13722TIP3    H162581   5.822   2.228   3.928  0.5351  1.4189  1.2168
13722TIP3    H262582   5.936   2.177   4.013 -1.0078 -2.4481  1.1780
13723TIP3   OH262583   2.968   3.156  15.137  0.8069 -0.2415 -0.2887
13723TIP3    H162584   2.942   3.248  15.134 -2.0788 -0.9343  0.5087
13723TIP3    H262585   3.019   3.148  15.217  0.6170  0.5512 -0.0820
13724TIP3   OH262586   5.048   2.632   3.551 -0.1450 -0.3450 -0.2517
13724TIP3    H162587   5.098   2.711   3.530  3.4166 -2.5003 -0.7030
13724TIP3    H262588   5.062   2.619   3.645 -1.2938 -0.1040 -0.0395
13725TIP3   OH262589   4.953   2.097  13.827 -0.1707 -0.3509 -0.4705
13725TIP3    H162590   5.017   2.168  13.831  1.6183 -1.9363  0.0859
13725TIP3    H262591   4.898   2.111  13.904 -1.2494  1.6298 -1.5177
13726TIP3   OH262592   4.007   0.026  15.328 -0.0187 -0.4917  0.1299
13726TIP3    H162593   3.962   0.027  15.244 -0.7728  0.3899  0.5254
13726TIP3    H262594   3.939   0.001  15.392 -0.2409  1.7759  0.8618
13727TIP3   OH262595   4.729   1.657   1.462 -0.1017  0.5056  1.0313
13727TIP3    H162596   4.728   1.732   1.403  0.1850 -2.2867 -2.8424
13727TIP3    H262597   4.639   1.627   1.464  0.2494 -0.6151  0.3581
13728TIP3   OH262598   4.264   1.279   2.692 -0.3709  0.1744  0.0953
13728TIP3    H162599   4.348   1.247   2.725 -0.0294  0.6300 -0.3289
13728TIP3    H262600   4.208   1.285   2.770  0.4085  1.1698  0.6035
13729TIP3   OH262601   6.023   1.013  11.909 -0.0975 -0.4856  0.3638
13729TIP3    H162602   6.037   1.054  11.995  0.7176  1.5963 -0.6735
13729TIP3    H262603   5.935   0.977  11.914 -0.2093 -0.0744  1.9545
13730TIP3   OH262604   6.249   3.804   0.425  0.1670  0.3946  0.1405
13730TIP3    H162605   6.264   3.811   0.331 -0.8131 -0.4962 -0.1080
13730TIP3    H262606   6.154   3.808   0.434  0.2657  0.8208  1.1332
13731TIP3   OH262607   2.478   6.177  13.741  0.5059  0.6009 -0.3423
13731TIP3    H162608   2.569   6.182  13.769  0.2067  0.3693  0.7081
13731TIP3    H262609   2.432   6.241  13.795  0.0386  0.7183 -0.8638
13732TIP3   OH262610   3.050   2.233  11.647 -0.1690  0.1624 -0.1821
13732TIP3    H162611   3.083   2.235  11.737  0.0417  1.6385 -0.2696
13732TIP3    H262612   2.978   2.296  11.645  0.0194  0.3744 -1.1114
13733TIP3   OH262613   1.385   6.512   5.121 -0.0669 -0.1180 -0.6750
13733TIP3    H162614   1.421   6.427   5.096  1.0073 -0.0172  0.4209
13733TIP3    H262615   1.430   6.534   5.202  0.3262  1.9090 -1.3944
13734TIP3   OH262616   5.891   0.417  12.443  0.0310 -0.5725 -0.3620
13734TIP3    H162617   5.801   0.425  12.475  0.4133 -0.9920  0.8954
13734TIP3    H262618   5.943   0.467  12.507  0.7632 -0.8788 -0.7119
13735TIP3   OH262619   4.558   4.110   5.912  0.2121 -0.0984 -0.3641
13735TIP3    H162620   4.650   4.088   5.929  0.4082  0.6877 -0.3954
13735TIP3    H262621   4.540   4.070   5.827  0.3643 -0.7130 -0.1120
13736TIP3   OH262622   4.250   2.857   2.431  0.0472  0.2425  0.4211
13736TIP3    H162623   4.268   2.848   2.524  1.8460  0.2117  0.0983
13736TIP3    H262624   4.289   2.941   2.407 -1.4872  0.8523 -0.0813
13737TIP3   OH262625   4.490   3.623   5.665  0.3228  0.4413  0.3174
13737TIP3    H162626   4.436   3.552   5.631 -1.7280  2.0747 -0.0077
13737TIP3    H262627   4.538   3.583   5.739  0.3534 -1.6022 -0.7292
13738TIP3   OH262628   0.301   0.503   4.056  0.3833  0.2992 -0.1777
13738TIP3    H162629   0.374   0.560   4.081  1.5642 -0.7067 -1.1849
13738TIP3    H262630   0.322   0.418   4.096  0.1662 -0.1931 -1.0786
13739TIP3   OH262631   0.594   4.750   3.865 -0.0896  0.4353  0.3555
13739TIP3    H162632   0.643   4.722   3.788 -0.8829 -1.7750  0.5791
13739TIP3    H262633   0.538   4.820   3.834  0.2795  0.2147 -0.8528
13740TIP3   OH262634   1.555   2.647   3.501  0.1769  0.0333 -0.4020
13740TIP3    H162635   1.630   2.609   3.545  0.3921 -0.3044 -1.0416
13740TIP3    H262636   1.593   2.695   3.427 -0.0372  1.9634  0.6927
13741TIP3   OH262637   4.659   0.471   1.684 -0.1820  0.3655 -0.3723
13741TIP3    H162638   4.726   0.403   1.682 -1.1272 -0.8651  3.0308
13741TIP3    H262639   4.610   0.460   1.602 -0.7947 -3.6872  0.3444
13742TIP3   OH262640   6.753   1.709  13.276  0.6786  0.0850 -0.8102
13742TIP3    H162641   6.681   1.646  13.277  0.1230  0.6471  1.2290
13742TIP3    H262642   6.709   1.794  13.271  0.7604  0.6665  3.8013
13743TIP3   OH262643   4.721   3.842  14.592  0.4280  0.0657 -0.3923
13743TIP3    H162644   4.813   3.841  14.621 -0.0252  0.5441  1.1464
13743TIP3    H262645   4.696   3.750  14.592 -0.3371  0.0792  3.6147
13744TIP3   OH262646   4.190   6.297  10.807 -0.9804  0.0704 -0.4868
13744TIP3    H162647   4.249   6.370  10.825 -1.2902  0.7357 -1.9890
13744TIP3    H262648   4.128   6.331  10.742 -1.0453 -1.5555 -1.3407
13745TIP3   OH262649   3.907   1.775   1.389 -0.6941 -0.5057 -0.6233
13745TIP3    H162650   3.896   1.831   1.466  0.5729 -1.6773  0.4735
13745TIP3    H262651   3.914   1.836   1.315 -1.0935  0.6879  0.3053
13746TIP3   OH262652   3.607   0.585   4.053  0.3177 -0.1824 -0.0446
13746TIP3    H162653   3.657   0.556   3.977  1.8470 -0.8679  1.1540
13746TIP3    H262654   3.672   0.629   4.109  0.1167 -2.8124  2.4787
13747TIP3   OH262655   0.635   0.379  13.859 -0.6231 -0.1386 -0.1614
13747TIP3    H162656   0.701   0.403  13.793 -0.0117 -1.9232 -0.2728
13747TIP3    H262657   0.576   0.454  13.863  0.8356  1.0885 -0.8151
13748TIP3   OH262658   4.139   0.102   0.436 -0.7498  0.6684  0.0297
13748TIP3    H162659   4.124   0.015   0.399 -0.2463  1.2053 -1.5144
13748TIP3    H262660   4.230   0.100   0.467 -0.2982  1.0154 -1.1967
13749TIP3   OH262661   4.753   1.628   5.799  0.9341  0.4391  0.3353
13749TIP3    H162662   4.681   1.654   5.855  0.7452  0.7062 -0.0254
13749TIP3    H262663   4.831   1.635   5.855  0.8647  1.5971  0.3212
13750TIP3   OH262664   3.049   1.902  11.219  0.1682 -0.1319 -0.2204
13750TIP3    H162665   3.072   1.814  11.248 -0.8505 -0.0769  0.8235
13750TIP3    H262666   3.086   1.960  11.286  0.5448  0.2202 -0.7247
13751TIP3   OH262667   5.574   5.508  14.867 -0.0163 -0.1385 -0.0123
13751TIP3    H162668   5.561   5.452  14.944  2.0813 -2.4649 -1.1928
13751TIP3    H262669   5.520   5.469  14.799 -3.7705  3.2801  0.6087
13752TIP3   OH262670   1.392   2.422  11.876 -0.5011  0.0051  0.7264
13752TIP3    H162671   1.396   2.436  11.781  1.0479  0.0343  0.7610
13752TIP3    H262672   1.343   2.340  11.886 -2.2700  0.9210  0.0395
13753TIP3   OH262673   5.851   6.580  10.902 -0.5014 -0.4132 -0.3750
13753TIP3    H162674   5.943   6.606  10.901 -0.2484 -1.2630 -0.2676
13753TIP3    H262675   5.838   6.532  10.820 -0.5987 -1.1095  0.0423
13754TIP3   OH262676   6.279   2.843  14.629 -0.2983 -0.0806 -0.0847
13754TIP3    H162677   6.212   2.853  14.696 -0.9811  0.8426 -0.8753
13754TIP3    H262678   6.291   2.748  14.620 -0.4503 -0.2228  1.0628
13755TIP3   OH262679   1.782   3.179  15.619  0.0740  0.3152  0.0916
13755TIP3    H162680   1.778   3.249  15.684  1.1241 -2.0220  2.8804
13755TIP3    H262681   1.856   3.202  15.563 -0.3262  1.9703  0.2011
13756TIP3   OH262682   2.377   1.626   5.333 -0.2251  0.3851 -0.0435
13756TIP3    H162683   2.386   1.721   5.338  0.0275  0.3167  1.0121
13756TIP3    H262684   2.313   1.612   5.264 -0.4544  1.3357 -0.0383
13757TIP3   OH262685   6.790   5.531  14.718 -0.1920 -0.2837 -0.1103
13757TIP3    H162686   6.765   5.616  14.753 -0.4779 -1.0883  1.7506
13757TIP3    H262687   6.707   5.491  14.690  0.0589  0.4491 -2.0346
13758TIP3   OH262688   3.250   5.362  12.300 -0.7740  0.1454  0.7761
13758TIP3    H162689   3.175   5.330  12.250 -1.8992  0.2795  2.3051
13758TIP3    H262690   3.213   5.426  12.360  0.7518  1.0079  0.8402
13759TIP3   OH262691   1.908   0.124   5.245 -0.3716  0.0182  0.8298
13759TIP3    H162692   1.984   0.182   5.252 -0.5848  0.3836  0.2032
13759TIP3    H262693   1.903   0.103   5.151 -0.7727 -0.3696  0.9381
13760TIP3   OH262694   4.582   1.208  15.041 -0.6952 -0.5278  0.6987
13760TIP3    H162695   4.625   1.290  15.018  0.0339 -0.8510  0.8699
13760TIP3    H262696   4.630   1.176  15.117  0.4585 -2.1728 -0.6345
13761TIP3   OH262697   5.185   6.589   5.283 -0.3070 -0.5240  0.0754
13761TIP3    H162698   5.271   6.612   5.248 -0.9218  0.3372 -0.9286
13761TIP3    H262699   5.142   6.673   5.296 -2.6671 -0.9177 -3.7688
13762TIP3   OH262700   1.751   5.043   3.158  0.2897  0.8430  0.0978
13762TIP3    H162701   1.749   5.037   3.254  1.6790  2.1449  0.2375
13762TIP3    H262702   1.719   4.957   3.128 -1.5739  0.9172  1.6903
13763TIP3   OH262703   4.775   3.348   5.674  0.7550 -0.2723  0.2562
13763TIP3    H162704   4.779   3.264   5.721 -0.4711 -1.6968 -1.9949
13763TIP3    H262705   4.718   3.403   5.728 -0.5324 -1.8138  0.5392
13764TIP3   OH262706   1.756   6.157  12.467 -0.0363 -0.5367  0.2558
13764TIP3    H162707   1.837   6.199  12.496 -0.1565 -1.7491  2.6013
13764TIP3    H262708   1.759   6.070  12.506 -0.4881 -2.2750 -3.1854
13765TIP3   OH262709   5.402   6.202   6.392  0.4067 -0.2909  0.7817
13765TIP3    H162710   5.482   6.183   6.442  0.6883  0.8813  0.7938
13765TIP3    H262711   5.347   6.251   6.453  1.2224  2.1863 -0.3729
13766TIP3   OH262712   0.430   1.400   3.795 -0.2979 -0.0062 -0.6092
13766TIP3    H162713   0.499   1.393   3.728 -0.1556 -1.3927 -0.3473
13766TIP3    H262714   0.361   1.451   3.753  0.5308  0.6779 -1.1817
13767TIP3   OH262715   4.834   0.717  12.235 -0.6593 -0.4770  0.3218
13767TIP3    H162716   4.926   0.740  12.246 -0.5922 -1.1554  1.3233
13767TIP3    H262717   4.800   0.783  12.174  0.0020  1.0525  1.5214
13768TIP3   OH262718   3.385   4.548  12.518  0.0167 -0.4956 -0.9469
13768TIP3    H162719   3.468   4.516  12.483  0.0553 -0.5765 -0.7813
13768TIP3    H262720   3.408   4.596  12.597 -0.2074 -1.6902 -0.1193
13769TIP3   OH262721   5.712   6.402   4.447  0.4523 -0.4293  0.3030
13769TIP3    H162722   5.791   6.348   4.451  1.8138  1.1511 -2.5349
13769TIP3    H262723   5.744   6.492   4.452 -0.7305  0.3823 -3.5236
13770TIP3   OH262724   1.693   5.421  11.136  0.8823  0.2351  0.5220
13770TIP3    H162725   1.755   5.456  11.199 -0.6042  2.5297  0.8477
13770TIP3    H262726   1.724   5.453  11.051  1.8320 -1.2531  0.2876
13771TIP3   OH262727   1.563   4.278  11.908  0.3293  0.3135 -0.5066
13771TIP3    H162728   1.566   4.360  11.859  1.4340  0.0133 -0.9804
13771TIP3    H262729   1.631   4.223  11.867  0.3060 -0.4642  0.4567
13772TIP3   OH262730   1.852   6.632   1.215 -0.4980  0.2360  0.0164
13772TIP3    H162731   1.847   6.724   1.240  0.8274  1.7951 -4.5479
13772TIP3    H262732   1.765   6.597   1.234 -0.7795  2.0885  2.6601
13773TIP3   OH262733   3.365   2.480   4.549 -0.1555 -0.2800 -0.5288
13773TIP3    H162734   3.361   2.559   4.603  0.8874 -0.6197  0.0600
13773TIP3    H262735   3.320   2.504   4.468 -2.3293  0.0513  0.6860
13774TIP3   OH262736   4.908   5.187   4.384  0.3264  0.1689  0.3796
13774TIP3    H162737   4.916   5.123   4.455 -1.7608  2.1775  2.6067
13774TIP3    H262738   4.814   5.202   4.376  0.7209  2.7820 -0.1917
13775TIP3   OH262739   4.891   4.946   3.573  0.3348 -0.3004 -0.0919
13775TIP3    H162740   4.915   4.958   3.665  0.3440  0.3623 -0.1749
13775TIP3    H262741   4.799   4.970   3.568  0.0326 -1.3832 -0.0625
13776TIP3   OH262742   1.986   3.956   4.600 -0.2178  0.7306 -0.0145
13776TIP3    H162743   1.928   3.936   4.526 -0.8272  0.9428  0.4002
13776TIP3    H262744   1.976   4.050   4.614 -1.2907  0.4578  1.3021
13777TIP3   OH262745   2.915   0.757   3.215 -0.3411 -0.1821  0.1812
13777TIP3    H162746   2.826   0.774   3.245 -0.8881 -1.2666 -0.7808
13777TIP3    H262747   2.913   0.668   3.180  0.4503  0.6905 -2.3055
13778TIP3   OH262748   0.552   4.816   0.370 -0.1760 -0.3010  0.2979
13778TIP3    H162749   0.630   4.871   0.355  0.4637 -0.9719  1.0703
13778TIP3    H262750   0.499   4.865   0.432 -0.8904  0.6361 -1.0075
13779TIP3   OH262751   2.929   3.002   2.481 -0.2519  0.4047  0.2438
13779TIP3    H162752   2.998   2.936   2.484  1.1454  1.8334  1.0162
13779TIP3    H262753   2.866   2.969   2.417  1.8993 -0.2559 -1.6322
13780TIP3   OH262754   4.884   6.335   1.661  0.2588 -0.2458 -0.0710
13780TIP3    H162755   4.843   6.352   1.576  1.1990 -0.9180 -0.6806
13780TIP3    H262756   4.871   6.241   1.676 -0.2714 -0.0516  0.7423
13781TIP3   OH262757   5.860   6.090   3.936  0.1245  0.3881  0.0042
13781TIP3    H162758   5.872   6.111   4.028  0.8784  0.8855 -0.1935
13781TIP3    H262759   5.949   6.087   3.900 -0.1620  0.2932 -0.7246
13782TIP3   OH262760   4.096   4.733   2.015 -0.7008 -0.0018 -0.1846
13782TIP3    H162761   4.034   4.736   1.942 -3.9596  0.9018  2.3589
13782TIP3    H262762   4.127   4.824   2.023 -0.9261  0.0623 -0.0185
13783TIP3   OH262763   5.573   3.231   4.536 -0.3621 -0.1171 -0.0617
13783TIP3    H162764   5.661   3.218   4.573 -0.8058  1.5296  1.7501
13783TIP3    H262765   5.578   3.316   4.491 -1.1329  0.2189  0.4640
13784TIP3   OH262766   5.469   1.599  15.140  0.1962 -0.5419  0.1609
13784TIP3    H162767   5.514   1.587  15.223  1.1134 -1.9979 -0.5055
13784TIP3    H262768   5.443   1.511  15.113 -1.0066  0.0106 -0.6166
13785TIP3   OH262769   3.989   0.181  15.964 -0.6472 -0.1799 -0.3102
13785TIP3    H162770   4.011   0.113  15.900  1.0404  0.1319 -0.1169
13785TIP3    H262771   4.004   0.263  15.916  0.3683  0.0515  0.3677
13786TIP3   OH262772   3.387   1.011   5.543  0.0950 -0.2060 -0.0459
13786TIP3    H162773   3.470   1.047   5.510 -0.0522 -0.2433 -0.4689
13786TIP3    H262774   3.363   1.068   5.615  0.9807 -0.7638  0.7084
13787TIP3   OH262775   6.394   0.839  14.499  0.7289 -0.8006 -0.0875
13787TIP3    H162776   6.376   0.879  14.584 -0.8520  0.8102 -1.1030
13787TIP3    H262777   6.358   0.751  14.507 -3.6989  0.7073 -0.3698
13788TIP3   OH262778   5.858   3.513   0.894  0.2517  0.4635  0.2084
13788TIP3    H162779   5.874   3.557   0.810  3.2778  0.4936  0.6810
13788TIP3    H262780   5.930   3.542   0.950 -0.3674 -1.3792  2.0929
13789TIP3   OH262781   4.185   5.068   4.102  0.4523  0.1092  0.2033
13789TIP3    H162782   4.213   5.025   4.182 -0.4091  0.0995  0.5068
13789TIP3    H262783   4.089   5.068   4.106  0.4073  2.2382  0.3270
13790TIP3   OH262784   6.054   2.560  11.916  0.3794 -0.4446  0.5724
13790TIP3    H162785   6.044   2.514  11.833  0.1217  0.2259  0.2300
13790TIP3    H262786   6.023   2.649  11.899 -1.7027 -0.8476  1.9426
13791TIP3   OH262787   3.959   2.148   4.949 -0.2924  0.3911 -0.0452
13791TIP3    H162788   3.886   2.087   4.933 -0.6920  0.0265  2.6898
13791TIP3    H262789   4.007   2.150   4.867 -1.7544 -1.6160 -1.0319
13792TIP3   OH262790   5.650   5.455  13.337  0.3704 -0.0348  0.3748
13792TIP3    H162791   5.578   5.494  13.287  1.0907  0.2747 -0.4493
13792TIP3    H262792   5.684   5.386  13.281  0.3522 -0.5725  1.0095
13793TIP3   OH262793   4.675   2.390  14.622 -0.2967 -0.0758 -0.5075
13793TIP3    H162794   4.711   2.305  14.647  0.0284  0.0493 -0.5462
13793TIP3    H262795   4.655   2.433  14.705 -1.9150 -0.7907 -0.4845
13794TIP3   OH262796   1.973   3.994  15.817  0.0919  0.0413 -0.4827
13794TIP3    H162797   2.049   4.051  15.806 -0.4902  1.3371  1.6484
13794TIP3    H262798   1.996   3.938  15.891 -1.1438  0.6817  0.4039
13795TIP3   OH262799   0.676   2.193   1.890 -0.4729 -0.0081 -0.5150
13795TIP3    H162800   0.745   2.168   1.829 -0.2164 -0.2069 -0.1514
13795TIP3    H262801   0.652   2.111   1.933  0.2418  0.3225  0.5547
13796TIP3   OH262802   0.524   0.567   1.086  1.0296  0.5429  0.3597
13796TIP3    H162803   0.506   0.661   1.086  2.3164  0.8160  0.9234
13796TIP3    H262804   0.607   0.559   1.132  0.1825 -1.0369  1.6906
13797TIP3   OH262805   4.343   4.252   6.059 -0.3812  0.0865  0.6632
13797TIP3    H162806   4.412   4.196   6.022 -0.4267 -1.3464  2.6121
13797TIP3    H262807   4.267   4.194   6.066 -1.2312  1.1313  0.3363
13798TIP3   OH262808   1.800   3.893   4.430 -0.2438  0.4009 -0.5206
13798TIP3    H162809   1.814   3.833   4.356 -2.3157 -0.4615 -0.2911
13798TIP3    H262810   1.716   3.935   4.411 -0.1448  1.1839  0.6820
13799TIP3   OH262811   3.047   1.223   3.842  0.6829 -0.2379  0.3432
13799TIP3    H162812   3.138   1.233   3.870  0.2614 -0.5156  1.8620
13799TIP3    H262813   2.998   1.210   3.923 -0.8555  0.8984 -0.3589
13800TIP3   OH262814   1.881   3.956  12.607 -0.1634  0.1313 -0.6019
13800TIP3    H162815   1.809   4.017  12.624 -0.1270  0.1110 -0.3667
13800TIP3    H262816   1.911   3.930  12.694  0.1479  0.1605 -0.7002
13801TIP3   OH262817   5.245   3.013  15.983 -0.0628 -0.1952  0.0840
13801TIP3    H162818   5.282   2.928  16.007 -0.2811  0.0741  1.4314
13801TIP3    H262819   5.150   3.000  15.988 -0.1035  0.0302 -0.0745
13802TIP3   OH262820   5.931   5.676  15.635 -0.0538 -0.0044 -0.3653
13802TIP3    H162821   6.004   5.694  15.693 -1.4439 -0.2921  1.5911
13802TIP3    H262822   5.898   5.762  15.609 -0.4397  0.1665  0.6592
13803TIP3   OH262823   0.050   2.477  12.888 -0.1729  0.1968 -0.0243
13803TIP3    H162824   0.109   2.508  12.820 -0.9325  1.4316 -0.1603
13803TIP3    H262825   0.022   2.390  12.858  0.4212  0.2283 -0.6919
13804TIP3   OH262826   6.117   3.565   4.547  0.4620  0.3713  0.8203
13804TIP3    H162827   6.023   3.567   4.530  0.6932  0.6005 -0.5629
13804TIP3    H262828   6.127   3.607   4.633 -0.6649  0.6471  0.8316
13805TIP3   OH262829   0.756   6.322   5.685  0.1857 -0.0567 -0.0201
13805TIP3    H162830   0.743   6.262   5.612  0.3433  0.0722 -0.1547
13805TIP3    H262831   0.809   6.273   5.748  1.8440  0.5219 -0.8894
13806TIP3   OH262832   0.837   2.869  15.077  0.5962 -0.2420  0.7239
13806TIP3    H162833   0.880   2.932  15.134 -0.2259  0.9598  0.0348
13806TIP3    H262834   0.743   2.884  15.089  0.3851  0.4529 -1.3276
13807TIP3   OH262835   2.529   0.573  11.016 -0.1019  0.3174 -0.0711
13807TIP3    H162836   2.581   0.651  11.033 -1.5814  1.1371  0.8847
13807TIP3    H262837   2.500   0.583  10.926  1.2544 -0.1014 -0.5838
13808TIP3   OH262838   3.606   1.558   3.793 -0.0744 -0.1658  0.1768
13808TIP3    H162839   3.681   1.500   3.806  1.6154  1.4159 -1.7042
13808TIP3    H262840   3.535   1.500   3.768 -0.2620 -1.9684  4.2242
13809TIP3   OH262841   3.478   2.084  13.962  0.2862 -0.0858 -0.2996
13809TIP3    H162842   3.560   2.109  14.004  0.4940 -1.4787  0.1754
13809TIP3    H262843   3.419   2.065  14.035 -0.5351  1.1150 -0.6396
13810TIP3   OH262844   0.987   1.117   4.368  0.6075 -0.5076 -0.2379
13810TIP3    H162845   0.982   1.023   4.349 -0.0221 -1.2545  3.0823
13810TIP3    H262846   1.081   1.134   4.379  0.6255 -1.0602  0.4996
13811TIP3   OH262847   4.697   3.840  15.982  0.0167  0.2788  0.3828
13811TIP3    H162848   4.643   3.861  15.906 -0.5098  0.3283  0.7651
13811TIP3    H262849   4.765   3.783  15.948  2.2368  3.4215 -0.9787
13812TIP3   OH262850   2.743   6.128  12.471 -0.2498 -0.0320 -0.6293
13812TIP3    H162851   2.790   6.064  12.416 -0.0511 -0.7714  0.3634
13812TIP3    H262852   2.805   6.148  12.541 -0.0502  1.7955 -1.2763
13813TIP3   OH262853   1.067   4.253  15.191 -0.0722 -0.0457  0.2997
13813TIP3    H162854   1.003   4.320  15.166 -0.2900 -0.5805 -0.6201
13813TIP3    H262855   1.123   4.243  15.115  1.1000  0.3841  1.0881
13814TIP3   OH262856   4.536   3.918  15.769 -0.1440 -0.3220 -0.2536
13814TIP3    H162857   4.445   3.905  15.795  0.2203  0.8232  1.8102
13814TIP3    H262858   4.559   4.004  15.804  1.6980 -0.5233 -0.8449
13815TIP3   OH262859   1.886   2.082   2.178 -0.5337 -0.1598 -0.2025
13815TIP3    H162860   1.931   2.111   2.099 -0.0641 -1.0210 -0.2666
13815TIP3    H262861   1.903   1.988   2.181  0.7669  0.0879  1.7589
13816TIP3   OH262862   5.620   5.261  17.011 -0.0835 -0.2468  0.2812
13816TIP3    H162863   5.597   5.227  17.097 -0.5764  3.1941  1.6908
13816TIP3    H262864   5.712   5.284  17.018  0.3838 -1.6466 -0.8128
13817TIP3   OH262865   1.758   1.442   1.311  0.1394  0.2961  0.1621
13817TIP3    H162866   1.836   1.497   1.306 -1.2616  2.3203 -0.9769
13817TIP3    H262867   1.747   1.407   1.223 -0.3598  0.2259  0.2449
13818TIP3   OH262868   0.663   4.930   4.769  0.9967  0.0182 -0.0224
13818TIP3    H162869   0.601   4.858   4.753  0.2556  1.1170 -2.4705
13818TIP3    H262870   0.749   4.888   4.770  0.5045 -1.0374 -0.3748
13819TIP3   OH262871   6.746   2.983   0.693  0.1135  0.3896  0.4367
13819TIP3    H162872   6.802   3.049   0.650 -0.0723  0.1075 -0.2549
13819TIP3    H262873   6.665   2.984   0.642  0.8559 -1.8344 -0.9249
13820TIP3   OH262874   1.006   5.412  15.938 -0.0789  0.4665  0.0544
13820TIP3    H162875   0.980   5.348  16.004 -0.8339  2.2746  1.5985
13820TIP3    H262876   1.100   5.424  15.952 -0.1090  0.3566  0.3486
13821TIP3   OH262877   6.637   0.180  15.249  0.3608  0.2654  0.6949
13821TIP3    H162878   6.577   0.152  15.319 -0.4841 -2.5945 -0.9768
13821TIP3    H262879   6.594   0.256  15.210 -1.0545 -0.3716  0.9462
13822TIP3   OH262880   5.989   3.248  13.320 -0.1599 -0.7406 -0.4150
13822TIP3    H162881   6.081   3.223  13.332 -0.5065 -1.5268  0.7907
13822TIP3    H262882   5.964   3.210  13.236  0.6017 -0.5324 -0.7450
13823TIP3   OH262883   5.042   2.119   1.479 -0.0039 -0.1526  0.3531
13823TIP3    H162884   5.031   2.085   1.568 -1.1769  1.3006  0.8189
13823TIP3    H262885   5.118   2.178   1.485  0.4308 -0.6856  0.1734
13824TIP3   OH262886   5.955   0.838  16.250 -0.5331  0.4690  0.2752
13824TIP3    H162887   6.010   0.913  16.225  0.6365 -0.7628 -1.0295
13824TIP3    H262888   5.993   0.764  16.202 -2.4076 -0.7269  0.5574
13825TIP3   OH262889   4.593   1.229   4.924  0.0456 -0.3496 -0.4674
13825TIP3    H162890   4.650   1.176   4.869 -0.3221 -0.6855 -0.5335
13825TIP3    H262891   4.609   1.319   4.896  1.1085 -0.3748  0.0544
13826TIP3   OH262892   3.348   4.890  15.314  0.6486 -0.5731  0.5746
13826TIP3    H162893   3.364   4.875  15.221  0.5883  1.1985  0.2478
13826TIP3    H262894   3.328   4.803  15.349  0.5602 -1.2568 -1.0805
13827TIP3   OH262895   5.039   0.446   3.293 -0.0305  0.9759  0.9732
13827TIP3    H162896   4.978   0.474   3.226 -0.0476  1.7206  1.2947
13827TIP3    H262897   5.111   0.405   3.245 -0.7631  0.1068  0.5932
13828TIP3   OH262898   0.944   2.483   3.444  0.2820  0.0464  0.2390
13828TIP3    H162899   1.026   2.532   3.456 -0.1465  0.5476  1.2870
13828TIP3    H262900   0.959   2.401   3.491 -1.0645  1.6354  3.8570
13829TIP3   OH262901   4.894   5.819   2.049 -0.8422  0.1533  0.2138
13829TIP3    H162902   4.987   5.842   2.040 -0.0520 -1.1604  3.5143
13829TIP3    H262903   4.861   5.878   2.117 -2.3367  0.2580 -0.5552
13830TIP3   OH262904   5.562   3.748  12.108 -0.1850 -0.4716 -0.1891
13830TIP3    H162905   5.580   3.764  12.015  0.9969  0.8524  0.2408
13830TIP3    H262906   5.602   3.662  12.125  2.2301  0.5402 -0.2776
13831TIP3   OH262907   4.240   3.017   0.762 -0.3311  0.0817  0.2918
13831TIP3    H162908   4.179   3.043   0.832 -0.0330  1.8618 -0.0613
13831TIP3    H262909   4.321   2.995   0.808  0.2257  2.3299  0.5147
13832TIP3   OH262910   1.515   6.604   0.290  0.3877  0.2823  0.2691
13832TIP3    H162911   1.483   6.610   0.200 -0.9429 -0.5375  0.6495
13832TIP3    H262912   1.558   6.688   0.306 -0.2102  0.8197 -0.8162
13833TIP3   OH262913   0.592   1.268   0.772  0.0336  0.6219  0.4082
13833TIP3    H162914   0.574   1.258   0.679 -0.1295  2.1321  0.2406
13833TIP3    H262915   0.677   1.226   0.785 -0.2678 -0.2218 -0.2647
13834TIP3   OH262916   2.298   2.489  16.274  0.3310 -0.0206  0.1124
13834TIP3    H162917   2.203   2.505  16.278  0.1890 -0.7549 -0.1445
13834TIP3    H262918   2.336   2.576  16.266 -0.3933  0.2108 -1.0457
13835TIP3   OH262919   0.862   5.660  15.906 -0.2040  0.0687  0.2454
13835TIP3    H162920   0.899   5.572  15.914  0.7193  0.3147 -0.9575
13835TIP3    H262921   0.828   5.664  15.817 -0.6283  0.7890  0.4309
13836TIP3   OH262922   3.111   3.027  16.503 -0.1113  0.3978 -0.3556
13836TIP3    H162923   3.029   3.069  16.475 -1.4556 -2.1113 -0.4982
13836TIP3    H262924   3.112   3.039  16.598 -2.2445 -1.9481  0.0763
13837TIP3   OH262925   0.812   1.229   5.526 -0.8120  0.1134 -0.2648
13837TIP3    H162926   0.882   1.200   5.585  1.0694  3.0990 -0.8261
13837TIP3    H262927   0.802   1.158   5.463 -0.3918 -1.6258  1.5446
13838TIP3   OH262928   2.008   5.210   3.337 -0.1677  0.1139 -0.8948
13838TIP3    H162929   1.943   5.163   3.285  0.0912 -1.5911  0.2434
13838TIP3    H262930   1.965   5.227   3.420  0.7506 -0.8853 -0.1880
13839TIP3   OH262931   6.573   6.009  13.184  0.0374  0.0258 -0.8976
13839TIP3    H162932   6.572   6.078  13.118 -2.1117  1.1285  0.1706
13839TIP3    H262933   6.568   5.927  13.134 -2.9097  0.8538 -2.1668
13840TIP3   OH262934   3.546   4.899   0.887  0.1320  0.2024  0.3636
13840TIP3    H162935   3.531   4.806   0.902  0.7553  0.3103  1.7571
13840TIP3    H262936   3.475   4.943   0.932 -0.5602  0.4059 -0.8777
13841TIP3   OH262937   0.612   0.738  12.779 -0.3926 -0.6373 -0.4600
13841TIP3    H162938   0.607   0.821  12.732 -0.1405 -0.4086 -0.0893
13841TIP3    H262939   0.530   0.733  12.828  0.1012 -0.0266  0.4594
13842TIP3   OH262940   4.592   0.138  16.033 -0.1714 -0.3841  0.8614
13842TIP3    H162941   4.525   0.128  15.966 -1.1388  2.7941  1.1902
13842TIP3    H262942   4.651   0.205  15.999  0.1080  0.3072  2.5573
13843TIP3   OH262943   1.110   3.239  12.923  0.5382 -0.2432 -0.5859
13843TIP3    H162944   1.143   3.244  13.012 -1.6939  1.7747  0.2214
13843TIP3    H262945   1.124   3.147  12.898  1.1526 -0.8853  1.8344
13844TIP3   OH262946   1.672   3.995  15.168 -0.1723  0.2595 -0.1402
13844TIP3    H162947   1.592   4.039  15.197  0.5551  1.7916 -0.3323
13844TIP3    H262948   1.722   4.064  15.125  1.2394 -0.6797 -0.0551
13845TIP3   OH262949   0.118   0.079   3.523 -0.4123  0.2638  0.4440
13845TIP3    H162950   0.072   0.034   3.453  0.0706 -0.8335  0.8062
13845TIP3    H262951   0.053   0.089   3.593 -0.4254 -0.2162  0.5026
13846TIP3   OH262952   2.117   5.259   1.373 -0.4409 -0.4993  0.3486
13846TIP3    H162953   2.080   5.346   1.386  0.6237 -0.0716  0.6517
13846TIP3    H262954   2.121   5.221   1.461 -1.0103 -0.9088  0.2034
13847TIP3   OH262955   0.119   1.586   3.008  0.3310  0.0485 -0.3642
13847TIP3    H162956   0.052   1.607   2.943  0.3493  2.3453  0.2840
13847TIP3    H262957   0.069   1.547   3.081 -0.2262  1.1092 -0.1643
13848TIP3   OH262958   5.871   5.175   1.923 -0.2515 -0.2746 -0.0553
13848TIP3    H162959   5.934   5.246   1.910 -0.4512 -0.3666 -1.7051
13848TIP3    H262960   5.900   5.132   2.004  1.2852  0.2105 -0.3180
13849TIP3   OH262961   4.771   1.383   5.180  0.9155 -0.5394 -0.1101
13849TIP3    H162962   4.733   1.328   5.248  0.2698 -0.3412 -0.3017
13849TIP3    H262963   4.865   1.368   5.187  0.8743 -0.4217  0.9143
13850TIP3   OH262964   1.985   6.253  16.665  0.2304 -0.0842 -0.2011
13850TIP3    H162965   1.953   6.340  16.689  0.6476  0.6144 -1.9378
13850TIP3    H262966   2.080   6.260  16.675  0.1963 -0.6741  0.5911
13851TIP3   OH262967   1.169   2.084   2.193 -0.0355  0.2869  0.3990
13851TIP3    H162968   1.169   2.111   2.284  1.3147 -1.0895  0.8603
13851TIP3    H262969   1.086   2.040   2.180 -0.7538  1.5459  0.5961
13852TIP3   OH262970   4.138   3.544  14.944 -0.2686  0.1493 -0.1245
13852TIP3    H162971   4.065   3.495  14.982  0.7721 -1.0210  0.4451
13852TIP3    H262972   4.164   3.604  15.013 -0.4809  0.3435 -0.2114
13853TIP3   OH262973   5.645   4.049  16.951 -0.2057  0.6372  0.2719
13853TIP3    H162974   5.692   4.102  17.015  0.1671  0.2903  0.2873
13853TIP3    H262975   5.563   4.025  16.994  0.5666 -0.6104  1.0741
13854TIP3   OH262976   5.221   2.128   5.427 -0.2736 -0.3472 -0.2512
13854TIP3    H162977   5.208   2.058   5.362 -0.5546 -3.3740  2.8037
13854TIP3    H262978   5.132   2.155   5.450 -0.1718  0.7334 -1.0399
13855TIP3   OH262979   4.161   0.187   1.424 -0.4527  0.3812  0.1713
13855TIP3    H162980   4.160   0.112   1.484 -0.2302  0.8201  0.7305
13855TIP3    H262981   4.090   0.169   1.362 -1.6936  0.6301  1.4654
13856TIP3   OH262982   1.482   6.267  11.988 -0.0277  0.3258 -0.5883
13856TIP3    H162983   1.494   6.329  11.915  0.0804  2.2570  0.9856
13856TIP3    H262984   1.569   6.256  12.025  0.3152 -2.3401 -1.9593
13857TIP3   OH262985   1.509   1.773  12.426 -0.1703 -0.7446  0.9883
13857TIP3    H162986   1.564   1.823  12.366 -2.7323  1.0390 -0.0840
13857TIP3    H262987   1.451   1.722  12.369 -1.7947 -0.0051  1.8875
13858TIP3   OH262988   3.926   3.942   1.159 -0.2569  0.0436  0.0405
13858TIP3    H162989   3.896   3.902   1.241  0.5091 -0.5724  0.0304
13858TIP3    H262990   4.018   3.962   1.174 -0.3715  0.8854 -0.3187
13859TIP3   OH262991   4.469   1.547  12.454 -0.2577 -0.1796  0.5809
13859TIP3    H162992   4.558   1.546  12.419 -0.0242 -1.9446  1.1507
13859TIP3    H262993   4.478   1.586  12.541 -0.5802  2.6041 -0.5346
13860TIP3   OH262994   4.043   3.824  15.762 -0.8386 -0.3985  0.4968
13860TIP3    H162995   4.046   3.895  15.697  0.5505 -0.0758  0.8710
13860TIP3    H262996   3.994   3.755  15.718 -2.6479  0.9288  0.2943
13861TIP3   OH262997   2.930   3.207   3.297  0.4146 -0.9428 -0.2683
13861TIP3    H162998   2.938   3.297   3.265 -0.5812 -0.8381 -0.2356
13861TIP3    H262999   2.870   3.165   3.236 -1.2937 -0.8202  1.2267
13862TIP3   OH263000   2.668   4.011   2.541 -0.1800 -0.1698  0.0410
13862TIP3    H163001   2.625   3.988   2.624 -0.1896 -0.2808  0.0051
13862TIP3    H263002   2.688   4.104   2.550 -0.9259  0.0220 -0.1580
13863TIP3   OH263003   6.460   3.526   5.425 -0.2565  0.2524 -0.3799
13863TIP3    H163004   6.462   3.541   5.520  1.5468 -0.9162 -0.1884
13863TIP3    H263005   6.473   3.432   5.415  0.0206  0.4144 -1.7915
13864TIP3   OH263006   4.999   1.666   0.362 -0.3289 -0.4747 -0.0817
13864TIP3    H163007   5.074   1.617   0.329  1.1253  0.7548  1.1941
13864TIP3    H263008   4.973   1.619   0.441  1.1324  0.7344  1.2009
13865TIP3   OH263009   5.450   0.114  16.315 -0.0507  0.5326 -0.2259
13865TIP3    H163010   5.534   0.157  16.329  0.9614 -1.2730 -0.4359
13865TIP3    H263011   5.385   0.183  16.327  1.2411  1.3139  3.2105
13866TIP3   OH263012   4.730   4.572   3.243 -0.2163 -0.0245 -0.4897
13866TIP3    H163013   4.756   4.520   3.320  2.3004  0.1936 -1.1099
13866TIP3    H263014   4.701   4.655   3.279 -0.0031 -0.2731  0.2800
13867TIP3   OH263015   3.180   1.704   0.811  0.0603  0.0876  0.2073
13867TIP3    H163016   3.258   1.701   0.756 -0.4244 -0.4285 -0.4753
13867TIP3    H263017   3.110   1.673   0.754 -0.5670  0.1306  0.9423
13868TIP3   OH263018   3.598   3.379   0.659 -0.4619 -0.3274  0.1765
13868TIP3    H163019   3.614   3.370   0.565  0.5370 -3.1209  0.5308
13868TIP3    H263020   3.645   3.460   0.683 -0.9828  0.6001 -1.7241
13869TIP3   OH263021   1.684   0.136  11.513 -0.1246 -0.3151  0.3228
13869TIP3    H163022   1.741   0.197  11.466 -1.2545  0.7450  0.2701
13869TIP3    H263023   1.632   0.192  11.570 -2.3518 -1.0330 -0.8999
13870TIP3   OH263024   4.751   1.023   4.585  0.3354 -0.0127  0.1354
13870TIP3    H163025   4.667   0.986   4.558 -0.1871  1.6088 -0.5873
13870TIP3    H263026   4.786   1.064   4.506  0.2836  2.0593  1.1221
13871TIP3   OH263027   0.162   4.236   2.301  0.0443 -0.3302  0.4169
13871TIP3    H163028   0.238   4.180   2.286  0.9880 -0.2272  4.0078
13871TIP3    H263029   0.088   4.184   2.270  1.2952 -1.6617 -0.4744
13872TIP3   OH263030   5.310   0.316  11.272 -0.0500  0.0248  0.1920
13872TIP3    H163031   5.223   0.345  11.299 -0.3208 -0.3751 -0.2429
13872TIP3    H263032   5.296   0.275  11.187  0.4983 -0.4312  0.3205
13873TIP3   OH263033   3.944   6.382  14.591 -0.1774 -0.8273  0.3482
13873TIP3    H163034   3.912   6.443  14.526 -1.7797 -2.1498 -0.1798
13873TIP3    H263035   3.959   6.301  14.543  1.1335 -1.0982  1.1655
13874TIP3   OH263036   0.870   2.654   5.416  0.1508  0.3880  0.0918
13874TIP3    H163037   0.930   2.686   5.348 -1.4234 -0.0695 -1.5965
13874TIP3    H263038   0.922   2.591   5.465  1.1240  0.1130 -1.2268
13875TIP3   OH263039   0.751   3.550   2.388  0.1794  0.6046 -0.1259
13875TIP3    H163040   0.828   3.588   2.430  0.9925 -0.8337 -0.2743
13875TIP3    H263041   0.735   3.607   2.313  1.2749  0.7577 -0.2660
13876TIP3   OH263042   2.812   5.885  16.744  0.2020 -0.5202  0.7833
13876TIP3    H163043   2.725   5.888  16.781 -0.3421  0.6494 -0.5204
13876TIP3    H263044   2.830   5.974  16.716  1.9450 -0.6768  1.2717
13877TIP3   OH263045   4.673   4.491   1.268  0.0713  0.1500 -0.1990
13877TIP3    H163046   4.663   4.426   1.338  0.1065 -2.1187 -2.2021
13877TIP3    H263047   4.598   4.550   1.280 -0.2801 -0.5421  1.3349
13878TIP3   OH263048   3.852   5.842   3.586 -0.2566  0.5437  0.1219
13878TIP3    H163049   3.906   5.816   3.512 -0.4139 -0.8751  0.4630
13878TIP3    H263050   3.816   5.927   3.562  0.1075  0.3418 -1.1937
13879TIP3   OH263051   2.340   3.475  11.769 -0.0611  0.4677  0.2269
13879TIP3    H163052   2.360   3.384  11.786 -0.0227  0.1103 -1.4982
13879TIP3    H263053   2.290   3.474  11.687  0.1871  2.0007  0.0143
13880TIP3   OH263054   0.051   6.734  16.180  0.1961 -0.1116 -0.4283
13880TIP3    H163055   0.143   6.716  16.195  0.8640  1.7908 -1.7925
13880TIP3    H263056   0.010   6.727  16.266  1.1791 -2.9035 -0.0832
13881TIP3   OH263057   0.130   0.635  12.345 -0.9292  0.0310  0.1357
13881TIP3    H163058   0.069   0.704  12.371  0.4944  1.3781  0.0829
13881TIP3    H263059   0.159   0.596  12.428  0.7029  1.7426  0.4563
13882TIP3   OH263060   0.833   0.891  15.708 -0.4281 -0.2042 -0.2460
13882TIP3    H163061   0.882   0.901  15.626  1.8571 -0.3708  1.0373
13882TIP3    H263062   0.801   0.801  15.706 -1.5309  0.1809 -1.5122
13883TIP3   OH263063   3.029   1.863  15.229 -0.0055  0.1542  0.2298
13883TIP3    H163064   3.012   1.917  15.152 -0.3915 -0.8007 -0.3666
13883TIP3    H263065   2.941   1.841  15.262  0.1347 -0.8021 -0.0245
13884TIP3   OH263066   2.998   3.790  16.223  0.5665 -0.2439 -0.4906
13884TIP3    H163067   2.998   3.866  16.164 -0.2023 -0.5587 -0.9263
13884TIP3    H263068   3.001   3.827  16.311  2.3608  0.2170 -0.7252
13885TIP3   OH263069   0.696   3.489  12.277  0.1802  0.0341  0.1685
13885TIP3    H163070   0.620   3.544  12.260 -0.1215 -0.6866 -0.9481
13885TIP3    H263071   0.768   3.531  12.231  0.3789  0.5045  0.8979
13886TIP3   OH263072   2.002   5.651  14.918  0.6353 -0.3337  0.0422
13886TIP3    H163073   1.955   5.713  14.863  0.4508 -1.8214 -1.5472
13886TIP3    H263074   1.986   5.566  14.878  1.7002 -1.3129  1.5809
13887TIP3   OH263075   1.025   3.408  10.262 -0.7512 -0.0213  0.3456
13887TIP3    H163076   1.100   3.379  10.210 -0.1949 -2.0862  2.1347
13887TIP3    H263077   1.057   3.486  10.308  0.5585 -1.1327  1.4416
13888TIP3   OH263078   3.531   3.601  15.968  0.1864 -0.0864 -0.0609
13888TIP3    H163079   3.622   3.570  15.971 -0.7367 -3.1158 -0.2035
13888TIP3    H263080   3.506   3.612  16.060  0.0364 -1.5677  0.1025
13889TIP3   OH263081   0.918   2.939  13.070 -0.0712 -0.0653 -0.5406
13889TIP3    H163082   0.946   2.952  13.160 -1.5155  0.8168 -0.1989
13889TIP3    H263083   0.828   2.907  13.076 -0.0596 -0.3921 -1.6675
13890TIP3   OH263084   6.000   1.967   0.472  0.2254  0.1940 -0.5802
13890TIP3    H163085   6.074   1.979   0.532 -0.6009  1.6005  0.1964
13890TIP3    H263086   5.971   1.877   0.490  0.3301  0.4023  0.7616
13891TIP3   OH263087   5.244   1.347  12.900  0.1738  0.0532  0.4036
13891TIP3    H163088   5.214   1.295  12.974  1.7217  0.0716  1.0785
13891TIP3    H263089   5.166   1.356  12.844 -0.5309 -1.5924  1.0559
13892TIP3   OH263090   1.162   4.933  12.634 -0.6134 -0.9700 -0.1634
13892TIP3    H163091   1.073   4.914  12.664 -0.8264  1.7031  1.1475
13892TIP3    H263092   1.150   4.979  12.551 -0.9428  3.8234  2.2426
13893TIP3   OH263093   2.961   2.180   3.508 -0.6229  0.3783 -0.6781
13893TIP3    H163094   2.984   2.258   3.458  1.3561 -0.7212 -1.6239
13893TIP3    H263095   3.033   2.119   3.492 -1.8006 -1.4412  0.4955
13894TIP3   OH263096   3.070   6.092   0.247  0.2697  0.1393 -0.1739
13894TIP3    H163097   3.087   6.155   0.177  0.5887  0.0968 -0.1376
13894TIP3    H263098   3.103   6.134   0.326 -1.8870  1.0448  0.3115
13895TIP3   OH263099   4.114   2.509   0.624 -0.1660  0.4247 -0.8483
13895TIP3    H163100   4.144   2.465   0.703  3.7635  0.0216 -2.3373
13895TIP3    H263101   4.044   2.453   0.591 -1.4985  0.2882  1.9347
13896TIP3   OH263102   4.624   1.314  15.967  0.2309  0.1532 -0.4376
13896TIP3    H163103   4.651   1.299  16.057  2.8399  0.8337 -1.0101
13896TIP3    H263104   4.613   1.226  15.930  0.6588 -0.1479  0.1387
13897TIP3   OH263105   1.828   6.237  13.244  0.4256 -0.1329 -0.4981
13897TIP3    H163106   1.796   6.301  13.181 -1.2757 -0.2592  0.1800
13897TIP3    H263107   1.919   6.261  13.259  0.6497  0.3359 -2.4307
13898TIP3   OH263108   5.663   2.911  12.109 -0.0531 -0.4111  0.3139
13898TIP3    H163109   5.573   2.914  12.076  0.5541 -1.1960 -1.5282
13898TIP3    H263110   5.653   2.908  12.204 -1.8952  1.6646  0.2719
13899TIP3   OH263111   0.956   1.089   0.496  0.4986 -0.5172  0.3585
13899TIP3    H163112   0.907   1.024   0.446 -0.5979 -0.7438  1.6611
13899TIP3    H263113   0.952   1.058   0.587  1.5742  0.3932  0.7476
13900TIP3   OH263114   1.639   2.852  11.671 -0.4089 -0.5406  0.2393
13900TIP3    H163115   1.646   2.871  11.578 -1.1823  1.7562  0.5908
13900TIP3    H263116   1.729   2.861  11.704 -0.2891 -0.4007 -0.1240
13901TIP3   OH263117   2.373   3.373   1.542 -0.4035  0.0645  0.5408
13901TIP3    H163118   2.427   3.437   1.588 -0.7462 -1.3309  3.1058
13901TIP3    H263119   2.403   3.288   1.576 -1.5615 -0.9888 -0.9320
13902TIP3   OH263120   1.453   2.704  12.950 -0.2204 -0.0193 -0.8757
13902TIP3    H163121   1.485   2.635  13.008  1.2089  0.2651 -1.2880
13902TIP3    H263122   1.526   2.764  12.941 -0.7589  0.4914 -2.1521
13903TIP3   OH263123   2.700   3.872   2.871 -0.1193 -0.2199 -0.3875
13903TIP3    H163124   2.683   3.965   2.882  0.5983 -0.1219 -0.0433
13903TIP3    H263125   2.780   3.856   2.921 -1.0051 -1.3017  0.7614
13904TIP3   OH263126   2.629   0.667   4.939  0.0700  0.2252  0.6242
13904TIP3    H163127   2.554   0.723   4.957  0.8175  1.0268  1.3801
13904TIP3    H263128   2.690   0.723   4.891 -0.0260 -0.5763 -0.4646
13905TIP3   OH263129   0.144   3.357   5.673  0.2309 -0.0535  0.6007
13905TIP3    H163130   0.100   3.282   5.633  0.2842  0.5269 -0.5779
13905TIP3    H263131   0.210   3.384   5.609  0.9677  0.3191  1.4948
13906TIP3   OH263132   4.315   6.097  11.421 -0.6740  0.0338  0.0025
13906TIP3    H163133   4.360   6.149  11.488 -0.5894 -0.8211  0.6271
13906TIP3    H263134   4.345   6.007  11.436 -1.0530 -0.2456 -0.8570
13907TIP3   OH263135   2.576   0.106  12.990  0.4632  0.4801  0.1871
13907TIP3    H163136   2.538   0.031  13.036 -0.2611  0.3394 -0.6171
13907TIP3    H263137   2.650   0.133  13.045  0.6679 -0.7481  0.5461
13908TIP3   OH263138   1.378   6.048   3.976  0.1855  0.6431 -0.5001
13908TIP3    H163139   1.325   5.974   3.946  1.2893  0.3532 -1.8201
13908TIP3    H263140   1.330   6.082   4.052  0.1880 -2.0682  0.8413
13909TIP3   OH263141   0.565   3.134   5.574  0.2984  0.6282 -0.8442
13909TIP3    H163142   0.540   3.045   5.601  1.5758  0.5377  0.1390
13909TIP3    H263143   0.615   3.168   5.648 -0.0837  2.1527 -1.2436
13910TIP3   OH263144   2.291   6.551  13.164 -0.1666 -0.7192  0.2827
13910TIP3    H163145   2.295   6.646  13.172  1.2175 -0.6554 -0.7764
13910TIP3    H263146   2.295   6.519  13.254  0.1947  0.1957  0.6075
13911TIP3   OH263147   5.571   2.386  16.679 -0.7268  0.0814 -0.6079
13911TIP3    H163148   5.498   2.327  16.701 -0.2748  0.2056  1.3797
13911TIP3    H263149   5.563   2.398  16.585 -3.1111 -0.1324 -0.5053
13912TIP3   OH263150   0.561   4.431   2.077 -0.1565 -0.3033 -0.1526
13912TIP3    H163151   0.521   4.383   2.006  1.2667  0.6082 -1.6501
13912TIP3    H263152   0.603   4.363   2.131 -0.7993 -0.9605 -0.4616
13913TIP3   OH263153   5.522   4.726  16.770 -0.7608 -0.1800  0.1494
13913TIP3    H163154   5.532   4.778  16.849  1.3755  0.3151 -0.3617
13913TIP3    H263155   5.601   4.745  16.719 -2.3014 -0.0247 -2.3894
13914TIP3   OH263156   3.913   0.883   5.201 -0.0347 -0.5372  0.1479
13914TIP3    H163157   3.919   0.927   5.116 -0.4846 -0.8342 -0.0361
13914TIP3    H263158   3.998   0.840   5.211  0.9480  1.4212  0.9217
13915TIP3   OH263159   1.329   4.194  12.443  0.3862  0.3890  0.0550
13915TIP3    H163160   1.289   4.178  12.357  0.5946 -0.6445  0.1297
13915TIP3    H263161   1.259   4.175  12.506  0.1907  1.2856  0.1208
13916TIP3   OH263162   6.103   6.468  12.707  0.1248 -0.2181  0.0061
13916TIP3    H163163   6.167   6.422  12.761 -2.3414 -1.9002  1.7483
13916TIP3    H263164   6.041   6.505  12.770 -1.8481 -0.5940 -1.5971
13917TIP3   OH263165   1.639   2.274   3.349 -0.2087  0.2243  0.1897
13917TIP3    H163166   1.719   2.304   3.308 -0.4675 -1.0471 -1.3802
13917TIP3    H263167   1.587   2.353   3.362  0.4884  0.8316 -0.6232
13918TIP3   OH263168   6.364   2.747  16.485  0.0939  0.3518  0.1707
13918TIP3    H163169   6.381   2.837  16.456  0.8731  0.0289 -0.4262
13918TIP3    H263170   6.274   2.748  16.515 -0.6930  0.7774 -2.0324
13919TIP3   OH263171   1.272   4.251  12.817  0.0845 -0.6031 -0.0411
13919TIP3    H163172   1.240   4.335  12.850  0.7998 -0.9258  1.5664
13919TIP3    H263173   1.197   4.211  12.773 -0.6188  0.3090  0.3124
13920TIP3   OH263174   1.047   2.069  14.860  0.0173  0.0666 -0.5081
13920TIP3    H163175   0.996   2.119  14.925 -1.4025 -0.3559 -1.2583
13920TIP3    H263176   0.986   2.054  14.788  1.4158  0.0905 -1.7486
13921TIP3   OH263177   3.875   6.066  10.725 -0.2787  0.1477  0.1983
13921TIP3    H163178   3.820   5.990  10.705 -1.0692  0.6362  0.4802
13921TIP3    H263179   3.965   6.032  10.720 -0.5153 -0.3207 -1.7231
13922TIP3   OH263180   0.828   6.268   2.902  0.4573  0.5357 -0.1259
13922TIP3    H163181   0.735   6.268   2.924  0.5493 -0.0151  0.2722
13922TIP3    H263182   0.855   6.359   2.913  0.1073  0.5834  0.3656
13923TIP3   OH263183   2.055   2.780  16.919  0.4052 -0.2046 -0.0907
13923TIP3    H163184   2.078   2.805  16.829 -0.1813 -1.0252 -0.4760
13923TIP3    H263185   2.132   2.733  16.950  0.4605 -0.2545 -0.2988
13924TIP3   OH263186   5.024   1.508   1.277  0.7939 -0.6079 -0.1178
13924TIP3    H163187   5.040   1.415   1.262  0.3004 -0.6633 -0.3350
13924TIP3    H263188   5.103   1.540   1.320  0.8087 -1.2152  0.3232
13925TIP3   OH263189   5.827   2.340  16.836 -0.0475  0.2111  0.6618
13925TIP3    H163190   5.872   2.350  16.751  1.4885  1.2133  1.5389
13925TIP3    H263191   5.734   2.336  16.814  0.2860  0.9648 -1.0353
13926TIP3   OH263192   0.520   0.328  15.133 -0.3246  0.1573  0.3336
13926TIP3    H163193   0.430   0.318  15.102  0.2941 -0.6314 -1.3288
13926TIP3    H263194   0.541   0.244  15.175  0.3089 -0.5008 -1.2186
13927TIP3   OH263195   5.446   3.812  12.480 -0.1398 -0.1408 -0.8196
13927TIP3    H163196   5.441   3.721  12.450 -0.0181 -0.0115 -1.2470
13927TIP3    H263197   5.509   3.853  12.420  0.5130  0.0017 -0.0526
13928TIP3   OH263198   2.506   2.159  14.448  0.1665  0.1812 -0.1013
13928TIP3    H163199   2.479   2.126  14.363 -0.9254  0.8315 -0.0393
13928TIP3    H263200   2.546   2.084  14.492 -1.8968 -1.0101 -0.0974
13929TIP3   OH263201   2.087   3.460  15.329  0.8357 -0.0794 -0.2352
13929TIP3    H163202   2.165   3.501  15.366 -0.8412  1.0410  2.3836
13929TIP3    H263203   2.052   3.526  15.269  1.3930 -0.1998 -0.6950
13930TIP3   OH263204   5.482   1.353   0.545  0.4256  0.4746 -0.5712
13930TIP3    H163205   5.499   1.293   0.472  0.4483  1.2460 -1.2068
13930TIP3    H263206   5.395   1.328   0.576 -0.5000  1.4605 -2.2053
13931TIP3   OH263207   6.723   4.993   4.226 -0.1311  0.4087 -0.5582
13931TIP3    H163208   6.755   4.993   4.316  1.0241 -0.7515 -0.9423
13931TIP3    H263209   6.638   5.036   4.232 -0.6385 -0.7067  1.2979
13932TIP3   OH263210   0.369   0.748  12.910 -0.5355  0.8210 -0.6868
13932TIP3    H163211   0.339   0.830  12.948  0.0280  0.2300  1.1462
13932TIP3    H263212   0.289   0.702  12.886 -0.8964  1.3741 -0.5599
13933TIP3   OH263213   5.003   1.811  13.181  0.0714  0.3376  0.4136
13933TIP3    H163214   5.005   1.826  13.087 -0.9234  1.3081  0.5266
13933TIP3    H263215   4.910   1.804  13.202  0.2500  0.9055  1.4380
13934TIP3   OH263216   3.800   3.310   0.435 -0.0157 -0.9529 -0.1614
13934TIP3    H163217   3.743   3.299   0.359  0.1519 -3.5161 -0.0128
13934TIP3    H263218   3.885   3.335   0.399 -0.1809 -1.2220 -0.7365
13935TIP3   OH263219   6.469   5.725  12.428  0.2269 -0.3186  0.1476
13935TIP3    H163220   6.438   5.773  12.351  0.7201 -0.9954 -0.4813
13935TIP3    H263221   6.462   5.633  12.404 -1.9922 -0.6868  1.8271
13936TIP3   OH263222   1.781   5.755   5.472 -0.3533 -0.1297  0.3116
13936TIP3    H163223   1.703   5.704   5.449 -0.2636 -0.8095  1.4507
13936TIP3    H263224   1.852   5.691   5.469  0.0693  0.3566 -0.1245
13937TIP3   OH263225   1.268   0.836   3.858 -0.0177  0.0788  0.1864
13937TIP3    H163226   1.234   0.890   3.930  1.1959  1.3527 -0.1470
13937TIP3    H263227   1.192   0.787   3.827 -0.9505  0.8438  1.1769
13938TIP3   OH263228   2.754   1.060   4.337  0.4645  0.4402  0.2631
13938TIP3    H163229   2.688   1.129   4.347  1.8350  1.8210  0.1737
13938TIP3    H263230   2.813   1.072   4.411 -0.2128 -1.7895  1.2414
13939TIP3   OH263231   2.063   4.991   0.354 -0.1095  0.3727  0.3686
13939TIP3    H163232   2.105   5.067   0.315  0.4824 -0.1213  0.0210
13939TIP3    H263233   1.977   5.023   0.383 -0.5761  0.7801 -1.3429
13940TIP3   OH263234   4.820   0.837   5.349 -0.0255 -1.2669 -0.5977
13940TIP3    H163235   4.748   0.869   5.295  0.3950 -0.1872 -0.5471
13940TIP3    H263236   4.783   0.762   5.396 -0.6378 -1.7194 -1.7520
13941TIP3   OH263237   4.833   0.946  13.683  0.3797  0.2830 -0.1739
13941TIP3    H163238   4.884   0.884  13.734  1.7607 -0.0455 -1.8634
13941TIP3    H263239   4.855   1.031  13.721  0.9690  0.0088  0.1154
13942TIP3   OH263240   6.467   3.629  13.109  0.2547  0.4639  0.1109
13942TIP3    H163241   6.490   3.670  13.026  1.6538  0.3125  0.4015
13942TIP3    H263242   6.536   3.564  13.124 -1.9600 -2.2193 -0.4279
13943TIP3   OH263243   3.757   5.868  16.780 -1.1497  0.0432 -0.0917
13943TIP3    H163244   3.680   5.904  16.737 -0.6399 -1.0279 -2.0222
13943TIP3    H263245   3.830   5.920  16.747 -0.7151 -0.9760 -0.7687
13944TIP3   OH263246   3.903   0.070   5.662 -0.3335  0.0798 -0.0685
13944TIP3    H163247   3.833   0.022   5.618  0.4817  0.4571 -1.8604
13944TIP3    H263248   3.878   0.162   5.654 -0.1328  0.1615  0.2205
13945TIP3   OH263249   1.852   3.456  13.837 -0.9790 -0.4168 -0.1578
13945TIP3    H163250   1.934   3.420  13.871 -0.2359  1.0297 -0.3440
13945TIP3    H263251   1.875   3.488  13.750 -1.5578  0.6774  0.0780
13946TIP3   OH263252   3.735   2.035   5.933  0.3410 -0.0419 -0.1906
13946TIP3    H163253   3.683   2.023   5.853  1.5538 -0.4225 -0.9544
13946TIP3    H263254   3.679   2.087   5.990 -0.7289 -0.1213 -1.1236
13947TIP3   OH263255   0.908   6.191  11.057  0.0160 -0.1218  0.2726
13947TIP3    H163256   0.993   6.219  11.026  0.7020 -0.5321  1.6815
13947TIP3    H263257   0.885   6.116  11.002 -0.3571  1.1461 -1.3779
13948TIP3   OH263258   1.771   0.488   5.378  1.0000  0.5798  0.3073
13948TIP3    H163259   1.688   0.481   5.424  0.2887  1.2538 -0.8325
13948TIP3    H263260   1.825   0.417   5.414 -0.3886 -0.4701  0.3811
13949TIP3   OH263261   4.747   0.471  12.168 -0.1487  0.6275 -0.7011
13949TIP3    H163262   4.709   0.463  12.256  0.5649  0.8728 -0.3655
13949TIP3    H263263   4.798   0.552  12.171  2.0128 -0.6641 -0.5046
13950TIP3   OH263264   3.009   0.554  16.260 -0.5507 -0.4641  0.1309
13950TIP3    H163265   3.002   0.570  16.355 -1.3236 -1.2628  0.2209
13950TIP3    H263266   3.102   0.541  16.245 -0.6457 -3.3788  1.3433
13951TIP3   OH263267   3.783   1.999   3.548  0.0471  0.3165 -0.0897
13951TIP3    H163268   3.819   1.948   3.620  0.4956  0.8846  0.0965
13951TIP3    H263269   3.856   2.009   3.487 -0.6316 -1.1250 -1.1739
13952TIP3   OH263270   0.156   4.324   2.609  0.6215  0.3778 -0.1865
13952TIP3    H163271   0.241   4.327   2.565 -0.5337  1.4340 -2.5291
13952TIP3    H263272   0.103   4.388   2.562 -2.1500 -1.8341 -0.3240
13953TIP3   OH263273   2.884   4.788   5.758  0.0287 -0.2889  0.2617
13953TIP3    H163274   2.876   4.797   5.663 -3.7192 -1.5479  0.2901
13953TIP3    H263275   2.854   4.873   5.792  2.3335  0.5385  0.4369
13954TIP3   OH263276   3.423   5.291  16.869 -0.0379  0.1218 -0.1384
13954TIP3    H163277   3.494   5.342  16.829  0.4621 -0.3155  0.1802
13954TIP3    H263278   3.399   5.227  16.803  1.3465 -1.1389  0.5203
13955TIP3   OH263279   0.546   3.727  11.562  0.3241 -0.8727 -0.1560
13955TIP3    H163280   0.475   3.786  11.536 -0.3682 -1.5877  0.0879
13955TIP3    H263281   0.551   3.736  11.657  0.6010 -0.7883 -0.1772
13956TIP3   OH263282   5.463   5.633  10.960 -0.0242  0.1682  0.3839
13956TIP3    H163283   5.557   5.619  10.968  0.2696  1.4763 -0.3645
13956TIP3    H263284   5.452   5.727  10.977 -1.3431 -0.1760  1.5864
13957TIP3   OH263285   6.307   2.265  11.940 -0.1114 -0.3237  0.0588
13957TIP3    H163286   6.348   2.179  11.951  0.1409 -0.0128  2.0418
13957TIP3    H263287   6.262   2.260  11.856  0.9952 -1.9262 -0.4822
13958TIP3   OH263288   4.009   0.419  12.859 -0.5246 -0.9864 -0.2235
13958TIP3    H163289   4.024   0.502  12.814 -4.3716  0.4879  0.7943
13958TIP3    H263290   4.046   0.431  12.946  0.1793 -0.8919 -0.5331
13959TIP3   OH263291   3.759   6.618  13.939  0.3007 -0.0328  0.1217
13959TIP3    H163292   3.692   6.615  14.008  0.1420 -1.7272 -0.0663
13959TIP3    H263293   3.738   6.697  13.889 -2.0350 -0.8728 -0.3573
13960TIP3   OH263294   5.313   3.067   0.425  0.1137 -0.0393  0.7377
13960TIP3    H163295   5.230   3.020   0.417  0.4390 -0.5099 -0.0934
13960TIP3    H263296   5.378   2.998   0.441  0.4562  0.2204  0.4927
13961TIP3   OH263297   5.063   4.017  15.951 -0.2770 -0.6466 -0.6463
13961TIP3    H163298   5.004   4.039  15.879 -0.5833  0.0108 -0.2045
13961TIP3    H263299   5.007   3.976  16.016 -0.1073 -0.7030 -0.5352
13962TIP3   OH263300   5.147   4.068   2.826 -0.0755  0.1156 -0.6274
13962TIP3    H163301   5.200   4.019   2.763 -0.6846 -2.0548  0.4509
13962TIP3    H263302   5.061   4.026   2.822 -0.7780  1.4353  0.0299
13963TIP3   OH263303   5.517   2.149  13.451 -0.0266 -0.1086  0.6002
13963TIP3    H163304   5.585   2.208  13.419 -0.1227 -1.0849 -1.5787
13963TIP3    H263305   5.492   2.097  13.375 -4.1854  1.0885  0.8819
13964TIP3   OH263306   1.034   5.865  11.513  0.2766  0.3213  0.2261
13964TIP3    H163307   0.989   5.944  11.543 -0.7673  0.3762 -1.3287
13964TIP3    H263308   1.068   5.889  11.427 -0.6368 -1.0825 -0.5697
13965TIP3   OH263309   1.699   0.096   4.752 -0.0380  0.0319  0.3169
13965TIP3    H163310   1.654   0.130   4.675 -0.3400 -0.9809  0.0262
13965TIP3    H263311   1.632   0.045   4.799  0.0316  0.9527  1.4671
13966TIP3   OH263312   2.120   3.635   3.089  0.1465 -0.6096 -0.1647
13966TIP3    H163313   2.200   3.625   3.141 -0.8167  1.3401  1.8683
13966TIP3    H263314   2.058   3.573   3.127 -0.7586  1.2552  1.5921
13967TIP3   OH263315   5.960   4.906  16.085  0.2851  0.2275  0.4574
13967TIP3    H163316   5.869   4.911  16.116  0.0299  0.5682 -0.3237
13967TIP3    H263317   5.978   4.993  16.048  0.9476  0.1752  0.6400
13968TIP3   OH263318   5.010   0.216   1.217 -0.5001 -0.0589  0.1248
13968TIP3    H163319   5.007   0.308   1.193  3.1006 -0.1652 -1.3826
13968TIP3    H263320   4.972   0.170   1.142  1.9744  0.1101 -1.3679
13969TIP3   OH263321   2.971   3.451   1.607 -0.1738  0.0807  0.2231
13969TIP3    H163322   2.982   3.502   1.688 -1.2382  0.7983 -0.0655
13969TIP3    H263323   2.950   3.363   1.637 -0.9750  0.4391  0.7481
13970TIP3   OH263324   6.313   3.102  16.232  0.7545 -0.4214  0.6258
13970TIP3    H163325   6.361   3.059  16.303 -1.0851 -0.9497  1.6198
13970TIP3    H263326   6.308   3.194  16.257  2.3615 -0.0898 -0.1603
13971TIP3   OH263327   0.400   2.398  11.212  0.4452 -0.1769  0.1858
13971TIP3    H163328   0.383   2.312  11.251 -2.2542  0.0130 -0.3824
13971TIP3    H263329   0.464   2.380  11.143 -0.8668 -1.9937 -0.6546
13972TIP3   OH263330   5.559   4.230   3.153  0.0494 -0.5913  0.3402
13972TIP3    H163331   5.566   4.324   3.171  1.3222 -0.7771  0.9363
13972TIP3    H263332   5.528   4.225   3.063  0.5696  0.4158  0.0914
13973TIP3   OH263333   2.155   6.791   4.431 -0.0963 -0.0661 -0.3674
13973TIP3    H163334   2.109   6.873   4.446  1.8042  1.0086 -0.1329
13973TIP3    H263335   2.097   6.741   4.373 -1.0853  1.6219 -0.8937
13974TIP3   OH263336   4.539   0.421  13.824 -0.1925 -0.4067 -0.4801
13974TIP3    H163337   4.538   0.500  13.879  0.6999 -0.4523 -0.3858
13974TIP3    H263338   4.478   0.361  13.867 -0.8158  0.1943 -0.5028
13975TIP3   OH263339   5.753   2.330  14.139  0.0107 -0.5321 -0.0611
13975TIP3    H163340   5.696   2.305  14.211 -1.0604 -0.2451 -0.7829
13975TIP3    H263341   5.792   2.413  14.167 -1.4835  0.3100 -0.3651
13976TIP3   OH263342   4.497   2.369  14.149 -0.5954  0.0731  0.0045
13976TIP3    H163343   4.406   2.397  14.149 -0.4465  1.0077 -3.5040
13976TIP3    H263344   4.496   2.282  14.109  0.1502  1.0382 -2.2874
13977TIP3   OH263345   4.331   0.945   1.261  0.1318  0.5210 -0.7335
13977TIP3    H163346   4.392   0.897   1.205  0.6600  1.4694 -0.9899
13977TIP3    H263347   4.380   0.958   1.343 -0.4414 -0.3854 -0.2210
13978TIP3   OH263348   1.685   4.494   0.861 -0.0642  0.1594 -0.3731
13978TIP3    H163349   1.665   4.546   0.939  1.9940  0.0050  0.3018
13978TIP3    H263350   1.606   4.502   0.807 -2.0659 -0.7319  2.2130
13979TIP3   OH263351   5.128   4.016  12.073  0.1266 -0.2415 -0.2883
13979TIP3    H163352   5.204   4.072  12.089 -0.4334  0.0206  1.7595
13979TIP3    H263353   5.089   4.003  12.160 -1.5607 -1.2440 -1.1402
13980TIP3   OH263354   4.093   2.222  14.388  0.1860  0.5154 -0.0003
13980TIP3    H163355   4.126   2.171  14.462  0.7565  2.4984  1.1619
13980TIP3    H263356   4.141   2.305  14.392 -0.2412  0.9412 -2.2216
13981TIP3   OH263357   1.201   5.344  16.769  0.5242  0.5228  0.2396
13981TIP3    H163358   1.252   5.400  16.711  1.3698 -0.6730 -0.2124
13981TIP3    H263359   1.253   5.264  16.776 -0.2991  0.0777  1.4495
13982TIP3   OH263360   2.851   4.607   1.173  0.3816  0.0566 -0.3148
13982TIP3    H163361   2.946   4.597   1.180  0.3420 -0.2118 -0.1597
13982TIP3    H263362   2.829   4.570   1.087  0.5170  0.8598 -0.7100
13983TIP3   OH263363   2.681   1.551   0.729 -0.1674 -0.3465 -0.0747
13983TIP3    H163364   2.743   1.521   0.795 -0.8984 -0.7317  0.4545
13983TIP3    H263365   2.687   1.486   0.658 -0.6514 -0.9340  0.4051
13984TIP3   OH263366   1.919   5.645  11.719 -0.6576 -0.0403  0.9821
13984TIP3    H163367   1.883   5.713  11.661 -0.9210 -3.3889 -3.2944
13984TIP3    H263368   1.846   5.622  11.777 -1.4252  1.4277  0.6546
13985TIP3   OH263369   6.592   2.212  12.840  0.1994 -0.0826 -0.1232
13985TIP3    H163370   6.603   2.239  12.932  0.2047  1.5004 -0.5628
13985TIP3    H263371   6.657   2.263  12.792 -0.1197 -0.5481 -1.0748
13986TIP3   OH263372   3.630   5.152   0.628  0.0047  0.3585 -0.2047
13986TIP3    H163373   3.585   5.231   0.659  1.4342  0.7833  0.9374
13986TIP3    H263374   3.608   5.146   0.535  0.9231  2.8950 -0.6583
13987TIP3   OH263375   1.357   2.348   3.226  0.1205  0.8490  0.5676
13987TIP3    H163376   1.372   2.366   3.133 -1.4067  1.5799  0.4148
13987TIP3    H263377   1.297   2.273   3.226 -0.4774  1.3094  0.9064
13988TIP3   OH263378   2.500   4.655   1.934 -0.3348  0.8194 -0.1368
13988TIP3    H163379   2.489   4.731   1.876  0.5172  0.4918 -0.7505
13988TIP3    H263380   2.530   4.692   2.017  0.5854  1.1336 -0.5919
13989TIP3   OH263381   1.957   3.194   5.700  0.4226 -0.1685 -0.2168
13989TIP3    H163382   2.013   3.127   5.662  0.8262  0.9447 -1.7014
13989TIP3    H263383   1.994   3.212   5.786  1.3711 -0.5848 -0.5314
13990TIP3   OH263384   4.716   0.708   3.469 -0.5601 -0.5137  0.2756
13990TIP3    H163385   4.696   0.779   3.408  2.0209 -0.7631 -1.0042
13990TIP3    H263386   4.703   0.747   3.556  0.5751  1.5160 -0.3957
13991TIP3   OH263387   4.151   0.627  13.236 -0.4169 -0.5244  0.1872
13991TIP3    H163388   4.200   0.550  13.207 -0.7587 -0.7246  0.1431
13991TIP3    H263389   4.064   0.616  13.200 -0.7621 -0.6217  1.0288
13992TIP3   OH263390   3.715   1.197  12.931 -0.2030 -0.2168  0.1313
13992TIP3    H163391   3.770   1.193  13.009 -0.4681  0.7314  0.3801
13992TIP3    H263392   3.760   1.142  12.867  0.7074  0.0491  0.5278
13993TIP3   OH263393   5.016   5.635  13.873  0.3274 -0.1794  0.3622
13993TIP3    H163394   5.053   5.554  13.908 -1.8450 -2.0452 -1.3856
13993TIP3    H263395   5.039   5.635  13.781  0.8085  1.5434  0.4525
13994TIP3   OH263396   5.689   4.108   4.305  0.1539 -0.0399  0.3702
13994TIP3    H163397   5.751   4.070   4.368  1.3718 -1.0942 -1.3578
13994TIP3    H263398   5.665   4.034   4.248 -1.6493  0.6701  0.1516
13995TIP3   OH263399   5.688   5.203  15.321 -0.0387  0.2596 -0.2151
13995TIP3    H163400   5.730   5.127  15.281  0.3477 -0.5592  1.6226
13995TIP3    H263401   5.753   5.236  15.383 -1.6570 -0.4615  2.0076
13996TIP3   OH263402   2.653   5.347   5.221  0.1510 -0.1541  0.2945
13996TIP3    H163403   2.658   5.254   5.241 -1.6489 -0.1111  1.0801
13996TIP3    H263404   2.686   5.354   5.131 -0.3385 -1.6391 -0.0215
13997TIP3   OH263405   0.232   5.130  11.174  0.0020  0.0263  0.7145
13997TIP3    H163406   0.193   5.118  11.261  0.1329 -0.6128  0.6867
13997TIP3    H263407   0.321   5.097  11.182 -0.1249 -0.4457  0.2219
13998TIP3   OH263408   1.533   0.565   0.050  0.0041  0.0766 -0.2034
13998TIP3    H163409   1.495   0.522  -0.027  0.7591  0.5987 -0.8840
13998TIP3    H263410   1.615   0.518   0.066  0.5186  0.8289 -0.5600
13999TIP3   OH263411   1.260   4.213  16.932  0.6012 -0.2908  0.2494
13999TIP3    H163412   1.319   4.259  16.991 -0.5814  2.0190 -0.2506
13999TIP3    H263413   1.312   4.198  16.853  1.2656 -0.6268  0.7421
14000TIP3   OH263414   2.885   1.897   2.817 -0.0538 -0.2438  0.0606
14000TIP3    H163415   2.897   1.890   2.912  0.4252  1.8747  0.2089
14000TIP3    H263416   2.973   1.913   2.783 -0.3011 -0.4550 -0.6989
14001TIP3   OH263417   1.444   4.843  16.007  0.4902 -0.1155  0.0787
14001TIP3    H163418   1.466   4.774  16.069  1.2825  0.1345  0.0880
14001TIP3    H263419   1.413   4.915  16.062 -0.2945 -0.4345  0.0711
14002TIP3   OH263420   2.598   1.169  11.289  0.6666 -0.4067  0.1393
14002TIP3    H163421   2.527   1.234  11.283 -0.5477 -1.8144 -1.5863
14002TIP3    H263422   2.624   1.172  11.381 -3.0226 -1.1977  1.4072
14003TIP3   OH263423   4.491   0.056   5.883  0.0508 -0.0358 -0.0329
14003TIP3    H163424   4.516   0.092   5.968 -1.8637  2.0823 -0.2934
14003TIP3    H263425   4.505   0.128   5.821  1.7484 -1.6404 -1.6535
14004TIP3   OH263426   2.723   0.784   0.374  0.1751  0.0792 -0.6819
14004TIP3    H163427   2.640   0.833   0.368 -0.3818 -0.7893 -0.2757
14004TIP3    H263428   2.750   0.771   0.284 -1.0724 -1.1634 -0.9113
14005TIP3   OH263429   5.597   6.693   4.100  0.3454  0.6926  0.3164
14005TIP3    H163430   5.540   6.674   4.026  1.0662  1.2151 -0.3993
14005TIP3    H263431   5.602   6.788   4.103  0.4409  0.6713  0.9472
14006TIP3   OH263432   3.710   5.335  13.661  0.1088  0.2747  0.3064
14006TIP3    H163433   3.715   5.358  13.568  1.4993  1.0588  0.5413
14006TIP3    H263434   3.682   5.244  13.662  1.5523 -0.2270 -0.9642
14007TIP3   OH263435   1.342   4.753  15.050 -0.3856 -0.2459 -0.2048
14007TIP3    H163436   1.294   4.691  14.995 -0.1437 -0.4575 -0.1823
14007TIP3    H263437   1.364   4.703  15.129 -0.0053 -0.2000 -0.2769
14008TIP3   OH263438   3.532   4.046   3.518 -0.0696 -0.5845 -0.0537
14008TIP3    H163439   3.628   4.044   3.514 -0.0402  0.1173  0.0530
14008TIP3    H263440   3.503   3.987   3.449  0.4436  0.3095 -1.0537
14009TIP3   OH263441   1.286   1.328   6.524  0.4281  0.0686  0.0248
14009TIP3    H163442   1.239   1.403   6.561  0.8148  1.1880 -1.6478
14009TIP3    H263443   1.351   1.367   6.466  0.4038 -1.5794 -1.1745
14010TIP3   OH263444   4.122   0.940  13.072 -0.0505 -0.7305 -0.2925
14010TIP3    H163445   4.157   0.999  13.139 -1.9629  0.6601 -0.4218
14010TIP3    H263446   4.046   0.899  13.114 -1.6402  0.6119 -1.7117
14011TIP3   OH263447   2.605   6.262   5.148  0.1915  0.5095  0.6164
14011TIP3    H163448   2.691   6.249   5.190 -0.3583  0.6508  1.8225
14011TIP3    H263449   2.549   6.195   5.188 -0.4508  0.9120  0.3883
14012TIP3   OH263450   3.930   0.416  14.485  0.2771  0.5818 -0.4277
14012TIP3    H163451   3.978   0.415  14.568  1.1105 -2.5701 -0.8511
14012TIP3    H263452   3.853   0.470  14.504  0.1289 -0.4861  2.5959
14013TIP3   OH263453   5.177   5.065   1.103 -0.1953 -0.1104  0.1785
14013TIP3    H163454   5.117   5.110   1.161  0.4096  1.5468 -0.4100
14013TIP3    H263455   5.121   5.010   1.048 -1.2500  1.6601 -0.6015
14014TIP3   OH263456   3.075   6.597   5.412 -0.0473  0.0122 -0.2708
14014TIP3    H163457   3.055   6.607   5.505 -0.7071 -0.1808 -0.3865
14014TIP3    H263458   2.998   6.631   5.367  0.6440  0.9619 -0.7712
14015TIP3   OH263459   6.626   1.981   6.523  0.1359 -0.1495  0.0781
14015TIP3    H163460   6.620   1.887   6.510 -0.5496 -0.2045  0.7572
14015TIP3    H263461   6.658   2.015   6.439  0.0496 -0.9446 -0.2812
14016TIP3   OH263462   3.393   1.099  15.964  0.4008  0.3237 -0.1447
14016TIP3    H163463   3.438   1.017  15.987 -1.0694 -0.5443 -0.2656
14016TIP3    H263464   3.407   1.156  16.040 -0.7682 -0.9878  1.1326
14017TIP3   OH263465   3.362   4.657   0.331 -0.7742 -0.1108 -0.3521
14017TIP3    H163466   3.379   4.625   0.243 -1.4621  0.8562 -0.8531
14017TIP3    H263467   3.428   4.725   0.345 -0.7481 -0.1723 -0.1693
14018TIP3   OH263468   2.323   0.453   1.748  0.5686  0.3275 -0.0137
14018TIP3    H163469   2.234   0.420   1.762  1.6205 -2.4112  0.7584
14018TIP3    H263470   2.357   0.468   1.836  1.5511 -0.6870 -0.2011
14019TIP3   OH263471   1.213   4.301  11.828 -0.1946 -0.1507  0.5017
14019TIP3    H163472   1.306   4.319  11.842 -0.4216 -0.0672  2.0603
14019TIP3    H263473   1.168   4.359  11.890 -1.3295  0.3404 -0.7442
14020TIP3   OH263474   4.855   3.579   4.228 -0.3971  0.1214  0.6296
14020TIP3    H163475   4.914   3.645   4.263 -1.2473  0.2730  1.8334
14020TIP3    H263476   4.911   3.520   4.178  0.6015  0.8588  0.8659
14021TIP3   OH263477   6.435   2.020   0.466  0.1304 -0.0496 -0.0431
14021TIP3    H163478   6.354   2.053   0.428 -0.2849 -1.3532 -0.3423
14021TIP3    H263479   6.494   2.010   0.390  0.9279  1.7513  0.2733
14022TIP3   OH263480   5.584   2.193  14.301  0.1253  0.2539 -0.4049
14022TIP3    H163481   5.525   2.140  14.354  0.4054  0.5047  0.1699
14022TIP3    H263482   5.628   2.250  14.364  0.0248  0.9804 -0.9763
14023TIP3   OH263483   3.644   0.778   2.771 -1.1004 -0.2622  0.3190
14023TIP3    H163484   3.620   0.686   2.767 -0.6094 -0.3506 -1.5709
14023TIP3    H263485   3.653   0.796   2.865  0.7317 -2.6473  0.7127
14024TIP3   OH263486   4.107   2.801  16.236 -0.2318  0.1266  0.5293
14024TIP3    H163487   4.063   2.750  16.304  1.3544  1.4091  2.6805
14024TIP3    H263488   4.066   2.887  16.240 -2.8135 -0.7245 -2.9942
14025TIP3   OH263489   5.269   3.891   2.351  0.6840  0.4142  0.2365
14025TIP3    H163490   5.231   3.974   2.323  1.0293  0.5999  0.3119
14025TIP3    H263491   5.203   3.825   2.330  0.0090  0.8188  1.0238
14026TIP3   OH263492   1.801   2.897  14.189  0.1393  0.0061  0.4090
14026TIP3    H163493   1.867   2.833  14.217  0.2786 -0.4324 -0.8447
14026TIP3    H263494   1.850   2.960  14.137 -0.4400 -0.4277 -0.6951
14027TIP3   OH263495   5.840   2.175   6.333  0.1405 -0.0837 -0.2323
14027TIP3    H163496   5.824   2.081   6.344 -1.0693  0.1869  0.5323
14027TIP3    H263497   5.904   2.196   6.401  0.5943 -0.3843 -0.5573
14028TIP3   OH263498   0.224   5.609  15.795 -0.0440  0.5885  0.2201
14028TIP3    H163499   0.293   5.665  15.761  1.6875 -1.6362 -0.1729
14028TIP3    H263500   0.190   5.656  15.871  1.2229  2.1808 -0.1436
14029TIP3   OH263501   1.337   3.323  12.374  0.1465  0.4171  0.3159
14029TIP3    H163502   1.345   3.260  12.445  1.0556  0.0688 -0.0710
14029TIP3    H263503   1.338   3.270  12.294  3.0559  0.9472 -0.1408
14030TIP3   OH263504   0.450   4.858  11.553  0.0066 -0.1381  0.4493
14030TIP3    H163505   0.366   4.812  11.550  0.4656 -1.0572  1.0988
14030TIP3    H263506   0.452   4.910  11.473 -0.6516 -1.0665 -0.1905
14031TIP3   OH263507   0.447   2.052   4.209  0.1706 -0.2984 -0.4675
14031TIP3    H163508   0.359   2.017   4.194  0.8091 -1.1500 -2.6831
14031TIP3    H263509   0.503   2.002   4.150  2.0353  0.7436  0.3305
14032TIP3   OH263510   1.935   6.411   1.078  0.3788  0.0847  0.0038
14032TIP3    H163511   1.851   6.364   1.081  0.6832 -0.4945 -0.4105
14032TIP3    H263512   1.917   6.494   1.122 -0.8444  0.6272 -1.4356
14033TIP3   OH263513   3.335   0.800  10.677  0.1380 -0.1363  0.1471
14033TIP3    H163514   3.325   0.827  10.769  1.6958  0.3369  0.2059
14033TIP3    H263515   3.387   0.720  10.681 -1.0685 -0.9623 -0.2636
14034TIP3   OH263516   1.589   2.515   2.799  0.3751  0.2377  0.1209
14034TIP3    H163517   1.631   2.592   2.836  0.2235 -0.5880  2.1110
14034TIP3    H263518   1.509   2.504   2.851 -0.1420 -0.6711 -0.8197
14035TIP3   OH263519   0.341   5.617   4.118 -0.4515  0.2156 -0.7664
14035TIP3    H163520   0.355   5.629   4.024  2.4380 -1.0111 -0.5856
14035TIP3    H263521   0.420   5.650   4.159 -1.6006  0.5985  1.2778
14036TIP3   OH263522   5.840   6.249   6.042  0.0555  0.4848 -0.0782
14036TIP3    H163523   5.801   6.304   6.110 -0.0967  0.7165 -0.3486
14036TIP3    H263524   5.788   6.168   6.043  1.5850 -0.5640  1.7694
14037TIP3   OH263525   1.967   6.527  16.168 -0.0249  0.3774 -0.7036
14037TIP3    H163526   1.918   6.445  16.158  0.8842 -0.1605 -0.8616
14037TIP3    H263527   2.025   6.512  16.242 -1.5645  1.7766  0.8756
14038TIP3   OH263528   2.681   1.473   2.763  0.2083  0.1182  0.0701
14038TIP3    H163529   2.589   1.493   2.781  0.3378 -0.2704  1.2456
14038TIP3    H263530   2.678   1.410   2.692 -0.5362 -1.0326  1.0679
14039TIP3   OH263531   4.939   3.258   0.374  0.3822  0.1202  0.1555
14039TIP3    H163532   4.859   3.216   0.407  0.6197 -0.7943 -0.3816
14039TIP3    H263533   4.907   3.330   0.320 -0.1347 -0.7439 -0.7353
14040TIP3   OH263534   5.247   0.485  14.163  0.2223  0.0998  0.6697
14040TIP3    H163535   5.188   0.464  14.090 -0.6606  2.7327  0.4951
14040TIP3    H263536   5.188   0.497  14.238  0.6637  1.1289  0.8772
14041TIP3   OH263537   3.266   5.720  13.629  0.1905 -0.3240 -0.1250
14041TIP3    H163538   3.270   5.783  13.557 -2.3332  0.0701 -0.0161
14041TIP3    H263539   3.291   5.637  13.590  2.5185  0.4848 -0.5227
14042TIP3   OH263540   4.534   5.041   5.977 -0.0371 -0.4861  0.5575
14042TIP3    H163541   4.577   4.976   6.033 -0.7148  0.3657  2.1145
14042TIP3    H263542   4.505   5.109   6.037 -0.0409  0.8924 -0.9537
14043TIP3   OH263543   2.536   0.116   2.756 -0.2045 -0.3611  0.0420
14043TIP3    H163544   2.471   0.109   2.826 -1.5150 -2.4689 -1.2783
14043TIP3    H263545   2.543   0.027   2.721  1.0022  0.4549 -1.9580
14044TIP3   OH263546   4.910   0.919   0.956 -0.0094 -0.2532 -0.0155
14044TIP3    H163547   4.968   0.860   0.909  0.5296  1.3797 -1.4760
14044TIP3    H263548   4.837   0.934   0.896  0.6415  1.7949 -0.3651
14045TIP3   OH263549   3.064   4.930  15.313 -0.0188  0.2379 -0.0531
14045TIP3    H163550   3.137   4.931  15.251 -0.6367  1.0181 -0.7894
14045TIP3    H263551   3.105   4.940  15.399  0.7264  0.9156 -0.4740
14046TIP3   OH263552   0.650   4.009  10.693 -0.3199  0.0331  0.0455
14046TIP3    H163553   0.634   4.101  10.672 -0.2992  0.2583  0.9662
14046TIP3    H263554   0.677   3.970  10.610  1.0045  1.1565 -0.0912
14047TIP3   OH263555   1.440   0.596   1.974  0.3232  0.3007  0.2588
14047TIP3    H163556   1.386   0.658   2.023 -0.6486 -0.8706  0.7228
14047TIP3    H263557   1.519   0.645   1.951 -1.0038  2.1448 -0.6163
14048TIP3   OH263558   2.345   2.994  15.653  0.0645 -0.0455 -0.3751
14048TIP3    H163559   2.385   2.944  15.582 -0.4333  0.0008 -0.6940
14048TIP3    H263560   2.387   2.961  15.732 -1.6220 -2.3919 -0.3576
14049TIP3   OH263561   1.607   6.280   3.255 -0.3102 -0.3659  0.3179
14049TIP3    H163562   1.581   6.352   3.312  2.0183 -0.2719  1.3727
14049TIP3    H263563   1.578   6.306   3.167 -3.2232 -0.1373  1.2419
14050TIP3   OH263564   3.216   4.465   4.479  0.3555  0.1711 -0.3150
14050TIP3    H163565   3.242   4.532   4.543  0.4571  0.7583 -0.9655
14050TIP3    H263566   3.298   4.439   4.437  0.4193 -0.8800  0.4121
14051TIP3   OH263567   5.250   0.965   1.520 -0.0872 -0.0179  0.3821
14051TIP3    H163568   5.282   0.939   1.606  2.3389  4.7964  1.2958
14051TIP3    H263569   5.202   1.046   1.536  0.3942  1.0326 -2.7191
14052TIP3   OH263570   2.959   0.519  15.222 -0.1943  0.5379 -0.0478
14052TIP3    H163571   2.870   0.555  15.217 -0.0809  0.8233  0.0055
14052TIP3    H263572   2.963   0.456  15.150 -0.3850  0.6412 -0.1503
14053TIP3   OH263573   3.243   4.046  11.943 -0.0420  0.0613  0.1071
14053TIP3    H163574   3.314   3.999  11.986  1.0357  0.5702 -1.0561
14053TIP3    H263575   3.222   3.993  11.866 -1.8075 -0.7303  1.0663
14054TIP3   OH263576   1.045   5.032  12.943 -0.0188  0.2522  0.1845
14054TIP3    H163577   1.030   5.012  12.851  1.1339  0.0911  0.0140
14054TIP3    H263578   1.005   4.958  12.990  0.7604 -0.4761 -0.2668
14055TIP3   OH263579   6.486   1.090   2.131 -0.3603  0.1327 -0.7808
14055TIP3    H163580   6.436   1.053   2.058  0.5123  0.0384 -1.3450
14055TIP3    H263581   6.547   1.020   2.156 -0.2818  0.3616 -0.3214
14056TIP3   OH263582   6.040   0.142  16.767  0.4695  0.0356  0.1828
14056TIP3    H163583   6.067   0.056  16.800 -0.0746  0.4390  1.7541
14056TIP3    H263584   5.963   0.124  16.712 -1.0320 -0.3125  2.2785
14057TIP3   OH263585   0.451   1.417   5.125 -0.0262 -0.0784 -0.1611
14057TIP3    H163586   0.365   1.381   5.146 -0.1216  0.3826  0.2647
14057TIP3    H263587   0.506   1.341   5.111  0.4266 -0.5321  3.2323
14058TIP3   OH263588   2.386   3.598  13.144 -0.0351 -0.6530  0.0336
14058TIP3    H163589   2.434   3.676  13.172 -1.0711 -0.8883  2.7983
14058TIP3    H263590   2.433   3.567  13.067  1.9710  1.2159  0.4046
14059TIP3   OH263591   0.986   5.640   4.042  0.1781 -0.4133 -0.2611
14059TIP3    H163592   0.928   5.711   4.014  0.5230 -0.0181  0.0122
14059TIP3    H263593   0.960   5.622   4.132  1.1333  0.4591  0.2124
14060TIP3   OH263594   4.369   3.203  13.432 -0.0285 -0.4548  0.1371
14060TIP3    H163595   4.330   3.243  13.510 -1.6980  1.0042 -1.3385
14060TIP3    H263596   4.400   3.277  13.380  2.6849 -1.4916  0.1641
14061TIP3   OH263597   2.674   4.101   1.847 -0.1710  0.1862 -0.0566
14061TIP3    H163598   2.604   4.110   1.782  1.6048  3.0533 -1.8151
14061TIP3    H263599   2.740   4.047   1.803  1.1293  2.3131 -0.9102
14062TIP3   OH263600   4.387   4.272   5.346  0.0898  0.1591  0.5521
14062TIP3    H163601   4.311   4.330   5.341  0.2764  0.3408 -0.4017
14062TIP3    H263602   4.350   4.183   5.345 -0.1178  0.2475  0.2140
14063TIP3   OH263603   3.286   5.699   2.860  0.0465 -0.1747  0.2815
14063TIP3    H163604   3.377   5.674   2.843  0.5721 -0.2491  2.7980
14063TIP3    H263605   3.249   5.623   2.905 -0.3860  0.9256  1.8493
14064TIP3   OH263606   1.967   3.886  12.883 -0.5186 -0.6354  0.5549
14064TIP3    H163607   1.986   3.798  12.918 -0.1023 -0.8059 -0.0944
14064TIP3    H263608   2.036   3.941  12.918  1.2100 -1.2231 -1.6782
14065TIP3   OH263609   6.198   4.164   5.115 -0.3411 -0.0073  0.2840
14065TIP3    H163610   6.213   4.100   5.045  0.4944 -0.2444  0.6721
14065TIP3    H263611   6.103   4.174   5.118 -0.4398 -0.7369 -0.2291
14066TIP3   OH263612   1.547   0.040   5.464 -0.1147  0.4868  0.0273
14066TIP3    H163613   1.623   0.050   5.523 -0.0299  0.6484 -0.1085
14066TIP3    H263614   1.566   0.098   5.391  1.3704 -2.0878 -1.7995
14067TIP3   OH263615   1.926   0.584   1.715 -0.2662  0.3491 -0.1838
14067TIP3    H163616   1.893   0.615   1.799 -2.1859  0.6080 -0.9651
14067TIP3    H263617   1.859   0.612   1.652  1.4490  0.7817 -1.9038
14068TIP3   OH263618   5.724   2.101  13.146 -0.0510 -0.2462 -0.7259
14068TIP3    H163619   5.802   2.054  13.176 -0.7039 -0.7139  0.3101
14068TIP3    H263620   5.731   2.188  13.184 -0.2922 -0.4567 -0.2014
14069TIP3   OH263621   3.639   0.870   1.495 -0.0050  0.3260  0.3416
14069TIP3    H163622   3.561   0.826   1.531 -1.5659  2.6818  0.0531
14069TIP3    H263623   3.604   0.933   1.432  2.4207 -1.3439 -3.0213
14070TIP3   OH263624   4.386   0.278   2.874  0.4172  0.2721 -0.8612
14070TIP3    H163625   4.343   0.285   2.789  3.3451  0.3663 -2.4738
14070TIP3    H263626   4.428   0.193   2.874 -0.9620 -0.5060  1.3301
14071TIP3   OH263627   4.045   1.603   0.123  0.2999 -0.0978 -0.0256
14071TIP3    H163628   4.125   1.645   0.091 -0.6039  0.0083 -2.2717
14071TIP3    H263629   3.978   1.671   0.118 -0.2564 -0.6001  0.4088
14072TIP3   OH263630   0.099   1.814  11.446 -0.1795  0.0705  0.6095
14072TIP3    H163631   0.042   1.762  11.390  1.3553 -0.9258 -0.0997
14072TIP3    H263632   0.101   1.901  11.405  0.1835 -0.3836 -0.3538
14073TIP3   OH263633   0.247   6.469   3.034  0.3143  0.3393 -0.5244
14073TIP3    H163634   0.247   6.396   2.973 -2.4349 -0.1667 -0.0126
14073TIP3    H263635   0.166   6.460   3.084  1.1150  2.3147  1.3053
14074TIP3   OH263636   3.158   3.065   0.283  0.3569 -0.4171 -0.1224
14074TIP3    H163637   3.088   3.117   0.242 -1.2460 -0.3013  2.5466
14074TIP3    H263638   3.191   3.010   0.212 -1.8489  0.1503 -1.7201
14075TIP3   OH263639   6.259   6.738  12.240 -0.6278  0.2460 -0.0089
14075TIP3    H163640   6.323   6.667  12.254 -0.6289  0.2585  0.0614
14075TIP3    H263641   6.196   6.727  12.311 -2.1344 -1.3354 -1.5011
14076TIP3   OH263642   1.390   0.826  13.760  0.1223 -0.0586 -0.1258
14076TIP3    H163643   1.463   0.867  13.713 -1.7293  2.0253 -1.3182
14076TIP3    H263644   1.375   0.883  13.836 -1.5361  0.7250 -0.9979
14077TIP3   OH263645   1.801   0.445  16.994 -0.1622  0.1579  0.4513
14077TIP3    H163646   1.876   0.389  16.971 -0.4296  0.0549 -0.1872
14077TIP3    H263647   1.841   0.520  17.039  0.6433  1.3532 -2.0335
14078TIP3   OH263648   0.548   4.697  10.275  0.7756  0.3688  0.2518
14078TIP3    H163649   0.585   4.610  10.288  0.6950  0.2495 -0.2656
14078TIP3    H263650   0.561   4.742  10.358 -2.3932 -1.3085  1.8345
14079TIP3   OH263651   5.766   6.473   1.316  0.4656  0.5770 -0.0090
14079TIP3    H163652   5.785   6.504   1.404  0.6180  2.9829 -0.8076
14079TIP3    H263653   5.767   6.378   1.323  1.8438  0.6905  2.2721
14080TIP3   OH263654   0.871   1.097  14.904 -0.3358 -0.3980 -0.5408
14080TIP3    H163655   0.962   1.126  14.911 -1.4598  3.8011 -0.3266
14080TIP3    H263656   0.854   1.051  14.986  1.6575 -1.6214 -0.7644
14081TIP3   OH263657   4.070   0.470   0.880  0.0104 -0.2312 -0.4688
14081TIP3    H163658   4.129   0.409   0.836  0.3623  0.1494 -0.5333
14081TIP3    H263659   4.056   0.540   0.816 -2.8932 -1.6991 -1.6631
14082TIP3   OH263660   6.612   1.881   3.397  0.9680  0.3874  0.0541
14082TIP3    H163661   6.669   1.926   3.459  0.4921  0.3716  0.5200
14082TIP3    H263662   6.540   1.847   3.451  0.2024  0.9335 -0.5986
14083TIP3   OH263663   0.539   3.075  15.869 -0.1671 -0.2957  0.0957
14083TIP3    H163664   0.536   3.031  15.784  0.0403 -2.2577  1.0317
14083TIP3    H263665   0.450   3.069  15.903 -0.0836 -0.2150  0.3354
14084TIP3   OH263666   3.814   1.450   5.620 -0.2895  0.2294  0.5871
14084TIP3    H163667   3.800   1.368   5.666  0.4003  0.4999  1.3041
14084TIP3    H263668   3.732   1.499   5.631 -0.6442 -0.2925  0.2859
14085TIP3   OH263669   6.009   4.294   3.251 -1.0871 -0.7198 -0.4075
14085TIP3    H163670   5.945   4.287   3.180 -3.3066 -1.2111  1.5413
14085TIP3    H263671   6.031   4.203   3.272 -1.5456 -0.6420  0.4515
14086TIP3   OH263672   1.783   5.472   0.832 -0.1693  0.4019 -0.1019
14086TIP3    H163673   1.836   5.514   0.900  0.7080  0.0812 -0.5841
14086TIP3    H263674   1.839   5.404   0.796 -1.2164 -0.5316 -0.0330
14087TIP3   OH263675   5.225   5.084  11.827 -0.4029 -0.1549 -0.1027
14087TIP3    H163676   5.161   5.154  11.816 -1.2766 -0.9654 -0.3366
14087TIP3    H263677   5.213   5.028  11.750  1.0038 -0.0105 -0.4561
14088TIP3   OH263678   2.665   0.427   4.342 -0.6421 -0.1142  0.0145
14088TIP3    H163679   2.738   0.485   4.365 -0.3980  0.4529 -2.0064
14088TIP3    H263680   2.588   0.483   4.346 -0.7223 -0.2454  0.3295
14089TIP3   OH263681   5.100   0.976  10.906  0.0796  0.5583 -0.2122
14089TIP3    H163682   5.127   0.913  10.973 -0.5585  1.2451  0.7204
14089TIP3    H263683   5.048   0.926  10.844  0.4096 -0.0229 -0.0257
14090TIP3   OH263684   3.543   2.082  12.600  0.1871 -0.1539 -0.2303
14090TIP3    H163685   3.469   2.022  12.599  0.8546 -1.0217  0.7152
14090TIP3    H263686   3.559   2.102  12.508 -1.4357  0.3593 -0.4392
14091TIP3   OH263687   1.063   1.132   1.568  0.3170  0.1615  0.2026
14091TIP3    H163688   1.022   1.077   1.634  2.2319 -2.0734 -0.3487
14091TIP3    H263689   0.990   1.164   1.515 -1.1330  0.9279  2.5120
14092TIP3   OH263690   2.916   1.937  15.799  0.1829  0.7790  0.3281
14092TIP3    H163691   2.848   1.878  15.830  1.2998 -0.3128  0.7472
14092TIP3    H263692   2.895   2.021  15.840 -1.7515  0.8672 -0.7377
14093TIP3   OH263693   3.950   4.965   2.877 -0.3481  0.1167  0.1389
14093TIP3    H163694   3.891   5.039   2.863  0.3878  0.6313 -0.3512
14093TIP3    H263695   4.036   5.006   2.890  0.5757 -0.7195 -2.7227
14094TIP3   OH263696   3.432   2.312   4.884  0.1763  0.2331  0.4442
14094TIP3    H163697   3.476   2.252   4.823  1.9280 -0.1348  2.0056
14094TIP3    H263698   3.341   2.313   4.854  0.6230 -1.2547 -1.1384
14095TIP3   OH263699   3.112   0.616  10.891  0.2787 -0.5281 -0.5084
14095TIP3    H163700   3.104   0.709  10.916  1.0041 -0.5761 -0.0760
14095TIP3    H263701   3.100   0.616  10.796  1.0072  0.1166 -0.6158
14096TIP3   OH263702   5.595   2.701  12.557  0.0972 -0.6534 -0.9320
14096TIP3    H163703   5.578   2.685  12.464 -0.2144 -1.8326 -0.6786
14096TIP3    H263704   5.659   2.773  12.557  0.1988 -0.7232 -2.0585
14097TIP3   OH263705   6.171   0.116  12.078  0.1989  0.3848  0.0239
14097TIP3    H163706   6.081   0.090  12.059 -0.8201  2.6582  1.3661
14097TIP3    H263707   6.213   0.035  12.109 -1.1563 -0.8589 -1.2209
14098TIP3   OH263708   6.115   5.522  10.574 -0.2126 -0.1658  0.5464
14098TIP3    H163709   6.187   5.571  10.534 -0.2814  0.0090  0.6361
14098TIP3    H263710   6.037   5.552  10.529 -0.2012 -0.5775  0.2410
14099TIP3   OH263711   2.377   4.669  16.477  0.2597 -0.2014  0.0173
14099TIP3    H163712   2.412   4.715  16.554  0.8244  0.2921 -0.5223
14099TIP3    H263713   2.292   4.710  16.461  0.8476  0.8128 -0.5810
14100TIP3   OH263714   5.472   1.688  12.325  0.2813  0.0382 -0.3064
14100TIP3    H163715   5.550   1.736  12.298  0.5423 -1.0134 -1.5249
14100TIP3    H263716   5.469   1.612  12.267  2.2588 -3.8736  4.0268
14101TIP3   OH263717   3.303   6.503   6.070 -0.1190  0.2075  0.2678
14101TIP3    H163718   3.319   6.478   5.979 -0.3409  0.2016  0.2303
14101TIP3    H263719   3.325   6.596   6.073  2.4393 -0.3248  0.8159
14102TIP3   OH263720   1.475   2.644  11.589 -0.1210 -0.2738  0.4792
14102TIP3    H163721   1.528   2.707  11.637  1.2522 -0.8451 -0.2351
14102TIP3    H263722   1.510   2.558  11.614 -1.3991 -0.7312  0.7863
14103TIP3   OH263723   6.735   6.022  12.799 -0.5300 -0.6562  0.1364
14103TIP3    H163724   6.765   6.017  12.708 -2.2035 -0.6361 -0.4409
14103TIP3    H263725   6.812   5.996  12.850  0.9175  0.7914 -1.1832
14104TIP3   OH263726   6.238   5.526  16.876 -0.0532 -0.2177  0.0137
14104TIP3    H163727   6.307   5.593  16.871 -2.0627  2.0051 -0.0135
14104TIP3    H263728   6.174   5.554  16.810 -1.0713 -2.1119  0.1362
14105TIP3   OH263729   5.493   4.625   0.976  0.3597 -0.1216  0.1870
14105TIP3    H163730   5.425   4.691   0.962  1.3966  0.8525 -0.5166
14105TIP3    H263731   5.448   4.552   1.019 -1.2832  0.1504 -0.9738
14106TIP3   OH263732   5.794   3.148  11.112  0.0296 -0.1343  0.4948
14106TIP3    H163733   5.880   3.155  11.154  0.3671 -1.1521  0.0141
14106TIP3    H263734   5.809   3.180  11.023 -0.8347  2.6521  1.2592
14107TIP3   OH263735   0.059   2.344  12.438 -0.0453 -0.3341  0.9172
14107TIP3    H163736   0.033   2.255  12.416 -0.2410 -0.5232  1.8379
14107TIP3    H263737   0.145   2.356  12.398 -1.4227  0.2616 -2.1037
14108TIP3   OH263738   4.757   2.536   3.776 -0.1156  0.3939 -0.2568
14108TIP3    H163739   4.721   2.612   3.821  1.6598  1.7847 -1.0256
14108TIP3    H263740   4.756   2.560   3.683  0.0215 -0.7373 -0.5713
14109TIP3   OH263741   2.227   0.804   3.874 -0.5833  0.6065  0.0789
14109TIP3    H163742   2.257   0.767   3.957 -1.1887  0.6863  0.3342
14109TIP3    H263743   2.267   0.891   3.871  1.3562 -0.2410 -0.8090
14110TIP3   OH263744   2.391   6.175  17.025 -0.1524 -0.2385 -0.0838
14110TIP3    H163745   2.387   6.269  17.040  0.6277 -0.2451  0.1809
14110TIP3    H263746   2.384   6.136  17.112  0.0172 -0.4085 -0.1443
14111TIP3   OH263747   5.966   4.483   5.249  0.3638 -0.1566  0.1575
14111TIP3    H163748   6.062   4.487   5.246  0.5416 -1.9947  1.3176
14111TIP3    H263749   5.941   4.553   5.309  0.8916  0.7726 -0.6646
14112TIP3   OH263750   3.553   0.512  15.878 -0.2341 -0.6193 -0.0946
14112TIP3    H163751   3.557   0.545  15.968  0.4693 -0.9996  0.0172
14112TIP3    H263752   3.644   0.492  15.855 -0.0717  1.5777 -1.6888
14113TIP3   OH263753   2.239   6.809   5.444  0.3582 -0.5917 -0.4191
14113TIP3    H163754   2.221   6.767   5.528  0.9193 -2.8358 -1.3538
14113TIP3    H263755   2.327   6.780   5.420 -0.3549 -1.2648 -2.4675
14114TIP3   OH263756   2.737   4.309  15.216  0.1622  0.0703  0.1327
14114TIP3    H163757   2.827   4.278  15.206 -0.0926 -1.0657  1.1250
14114TIP3    H263758   2.743   4.404  15.203  1.5664  0.0691  0.5552
14115TIP3   OH263759   2.319   2.468  13.038  0.0604  0.5018  0.7529
14115TIP3    H163760   2.368   2.401  12.991 -0.4840 -0.9273  2.1258
14115TIP3    H263761   2.386   2.522  13.080  0.5426  1.6456 -1.3469
14116TIP3   OH263762   5.252   1.774  12.063  0.0777 -0.0152 -0.2371
14116TIP3    H163763   5.213   1.688  12.052  1.4449 -0.8768  1.3154
14116TIP3    H263764   5.192   1.821  12.121 -0.7494  0.1721 -1.2152
14117TIP3   OH263765   6.618   1.790   6.018  0.0109  0.1279 -0.2014
14117TIP3    H163766   6.696   1.841   5.996  0.6687 -1.3900 -1.5992
14117TIP3    H263767   6.616   1.791   6.114  0.6399  1.7692 -0.1608
14118TIP3   OH263768   0.232   1.822  14.128 -0.3497  0.0331 -0.9953
14118TIP3    H163769   0.267   1.897  14.079  0.1084  1.1981  1.0168
14118TIP3    H263770   0.282   1.821  14.209 -1.1679 -1.7733 -0.4605
14119TIP3   OH263771   4.939   2.925  17.009  0.2483 -0.5884  0.1097
14119TIP3    H163772   5.003   2.969  17.066 -0.1412 -1.7476  1.4831
14119TIP3    H263773   4.857   2.972  17.025  0.3043 -0.4106 -0.1127
14120TIP3   OH263774   3.521   2.430  15.689  0.2155 -0.4421 -0.2269
14120TIP3    H163775   3.506   2.359  15.626 -1.0916 -1.3533  1.0403
14120TIP3    H263776   3.573   2.389  15.759  2.5126  0.8020 -1.0907
14121TIP3   OH263777   6.003   6.347   3.679 -0.2616 -0.5709 -0.2516
14121TIP3    H163778   6.013   6.382   3.591 -0.6495 -0.8546 -0.4080
14121TIP3    H263779   5.909   6.348   3.695 -0.1305  0.5817  0.6069
14122TIP3   OH263780   3.183   2.958  14.002  0.4244  0.7301  0.1902
14122TIP3    H163781   3.193   3.030  14.064 -0.5186  1.0242  0.0035
14122TIP3    H263782   3.152   2.999  13.922 -0.1977  0.1096  0.1030
14123TIP3   OH263783   1.185   1.362  16.463 -0.1503  0.5547  0.0035
14123TIP3    H163784   1.202   1.381  16.370 -0.8040 -0.7497 -0.4075
14123TIP3    H263785   1.090   1.368  16.471 -0.1788 -0.3039  0.3562
14124TIP3   OH263786   6.250   4.020   2.131 -0.0137 -1.1038  0.3218
14124TIP3    H163787   6.257   4.013   2.036 -1.6953  1.5002 -0.1000
14124TIP3    H263788   6.160   3.992   2.151 -0.6172  0.9118  0.7182
14125TIP3   OH263789   2.693   1.645  13.804 -0.1323  0.2571  0.8926
14125TIP3    H163790   2.622   1.660  13.742  0.7786  0.8830 -0.0483
14125TIP3    H263791   2.666   1.568  13.855 -0.4104 -1.0122 -1.0621
14126TIP3   OH263792   5.431   5.784  14.548 -0.4675  0.3474  0.1345
14126TIP3    H163793   5.367   5.780  14.619 -0.9428 -0.7553 -0.3191
14126TIP3    H263794   5.385   5.829  14.477 -1.2746 -1.5690 -0.6475
14127TIP3   OH263795   2.976   5.497   3.415  0.4482 -0.0328 -0.1020
14127TIP3    H163796   2.915   5.549   3.468  0.6720  0.9980 -0.8105
14127TIP3    H263797   2.958   5.524   3.325  1.7348  0.0746 -0.3502
14128TIP3   OH263798   6.346   4.412  14.502  0.0770  0.4496 -0.2545
14128TIP3    H163799   6.359   4.445  14.413  0.4933 -2.1686 -1.2462
14128TIP3    H263800   6.371   4.319  14.497 -3.0630 -0.6478  1.7886
14129TIP3   OH263801   4.024   0.702   4.873 -0.0103 -0.5714  0.2833
14129TIP3    H163802   4.092   0.681   4.809  0.0542  0.0577  0.1373
14129TIP3    H263803   4.069   0.753   4.941 -0.8120  2.2574 -1.1690
14130TIP3   OH263804   5.086   3.550   6.368  0.1138 -0.6882  0.5572
14130TIP3    H163805   5.152   3.563   6.435 -0.2837 -1.4925  1.1208
14130TIP3    H263806   5.009   3.517   6.416 -1.0104  1.0419  0.0600
14131TIP3   OH263807   3.331   4.954   0.430 -0.0573 -0.2454  0.0963
14131TIP3    H163808   3.389   4.914   0.494  0.6689  1.1408  0.3494
14131TIP3    H263809   3.253   4.978   0.481  1.2686  2.5923  1.0106
14132TIP3   OH263810   1.906   6.481  12.283  0.0160 -0.1313  0.0928
14132TIP3    H163811   1.977   6.471  12.346 -1.0104  0.3526  1.3559
14132TIP3    H263812   1.835   6.523  12.332 -1.1844 -0.6682 -1.1122
14133TIP3   OH263813   2.540   1.771   4.591 -0.0533  0.2276  0.1628
14133TIP3    H163814   2.551   1.860   4.555  1.7864  0.3304  0.8662
14133TIP3    H263815   2.455   1.743   4.558 -0.3810  1.9905 -0.6498
14134TIP3   OH263816   0.804   2.471   1.030 -0.2910  0.1178 -0.3280
14134TIP3    H163817   0.728   2.522   1.002 -0.7845 -1.8084 -2.8505
14134TIP3    H263818   0.781   2.440   1.118 -2.3546 -0.2525 -0.9404
14135TIP3   OH263819   2.438   0.122  11.236  1.0884  0.0225  0.1807
14135TIP3    H163820   2.525   0.120  11.195  0.4519  1.4099 -1.3453
14135TIP3    H263821   2.394   0.044  11.202  1.6504 -0.6069  0.8464
14136TIP3   OH263822   4.361   5.951  13.079 -0.3907  0.8125 -0.0165
14136TIP3    H163823   4.383   6.029  13.130 -1.2915  1.1032 -0.0556
14136TIP3    H263824   4.281   5.975  13.031 -1.5435 -0.6128  1.0902
14137TIP3   OH263825   2.490   1.464   4.445  0.2653  0.4689 -0.3831
14137TIP3    H163826   2.404   1.495   4.417  1.2741  3.2937 -0.7464
14137TIP3    H263827   2.478   1.440   4.537 -1.0002  0.3956 -0.5516
14138TIP3   OH263828   1.695   1.108   5.122  0.1402 -0.1736  0.1647
14138TIP3    H163829   1.762   1.172   5.148 -0.1271  0.3546 -0.4065
14138TIP3    H263830   1.651   1.086   5.203 -0.0768  0.7466  0.3089
14139TIP3   OH263831   4.845   4.818  12.002 -0.2780  0.0197 -0.4202
14139TIP3    H163832   4.770   4.810  12.061  0.7642  1.3478  1.1874
14139TIP3    H263833   4.819   4.884  11.938 -0.9452 -0.4918 -0.6871
14140TIP3   OH263834   2.853   3.832  16.923 -0.1332  0.0711  0.6179
14140TIP3    H163835   2.788   3.771  16.887  1.1976 -0.4858 -0.9857
14140TIP3    H263836   2.908   3.855  16.848  1.4377  0.6348  1.8835
14141TIP3   OH263837   0.581   3.396   4.042 -0.6732 -1.4834 -0.3817
14141TIP3    H163838   0.554   3.322   3.988  1.1647 -4.4955  2.3858
14141TIP3    H263839   0.627   3.355   4.116  0.2668  2.4825  1.4896
14142TIP3   OH263840   5.561   0.733  16.488  0.1406 -0.1584 -0.2836
14142TIP3    H163841   5.473   0.725  16.526 -0.2122 -0.6787 -1.1719
14142TIP3    H263842   5.550   0.707  16.396  0.5252  3.0462 -1.3650
14143TIP3   OH263843   3.880   4.410   6.783 -0.3323  0.4945  0.5159
14143TIP3    H163844   3.968   4.383   6.756  0.2356  1.8294  0.9403
14143TIP3    H263845   3.821   4.349   6.738  0.8303 -1.0057  0.9466
14144TIP3   OH263846   5.920   4.532   2.749  0.3491  0.0798 -0.3210
14144TIP3    H163847   5.981   4.520   2.821 -1.2007  1.8180  1.3679
14144TIP3    H263848   5.963   4.596   2.692  1.2007 -0.6592 -0.5401
14145TIP3   OH263849   0.404   4.259  13.601 -0.4132  0.3161 -0.0432
14145TIP3    H163850   0.496   4.253  13.578  0.1527 -1.3529  2.2048
14145TIP3    H263851   0.404   4.301  13.687 -1.6265 -0.6166  0.4404
14146TIP3   OH263852   3.546   4.141  12.197 -0.0701 -0.5240  0.0699
14146TIP3    H163853   3.578   4.097  12.276 -0.9900 -1.1893  0.0829
14146TIP3    H263854   3.465   4.184  12.224 -0.6232 -1.1209 -0.5968
14147TIP3   OH263855   0.847   5.146   1.561  0.3200 -0.1809  0.3897
14147TIP3    H163856   0.795   5.140   1.640  2.5946 -0.1299  1.9835
14147TIP3    H263857   0.811   5.222   1.514 -1.4441 -0.5783  1.0377
14148TIP3   OH263858   4.726   2.351  13.924  0.3820  0.0947  0.4978
14148TIP3    H163859   4.676   2.368  14.004  0.4299  0.7743  0.3881
14148TIP3    H263860   4.749   2.438  13.891  0.3194 -0.1808 -0.2879
14149TIP3   OH263861   2.597   6.666  14.843  0.4775  0.4222 -0.0669
14149TIP3    H163862   2.539   6.591  14.825  0.5815  0.7377 -1.8643
14149TIP3    H263863   2.540   6.729  14.887  0.8849 -1.4669  3.5820
14150TIP3   OH263864   0.855   5.676   1.282 -1.0433  0.5010 -0.0233
14150TIP3    H163865   0.835   5.590   1.319  0.2791 -0.1083 -0.6378
14150TIP3    H263866   0.853   5.735   1.358 -0.5167 -0.3348  0.6715
14151TIP3   OH263867   3.582   0.242  13.213 -0.0076  0.1379  0.1685
14151TIP3    H163868   3.602   0.165  13.266 -0.9038  0.4538  0.9787
14151TIP3    H263869   3.627   0.226  13.130  1.0510 -0.5687  0.8472
14152TIP3   OH263870   3.365   4.082  13.638 -0.3353  0.5356 -0.3004
14152TIP3    H163871   3.317   4.143  13.582  0.1434  0.8085 -0.4255
14152TIP3    H263872   3.421   4.033  13.578  2.5043  2.9413  0.1416
14153TIP3   OH263873   4.464   1.509   4.761 -0.1521 -0.6837 -0.0079
14153TIP3    H163874   4.495   1.443   4.699  0.7477 -1.0220  0.7927
14153TIP3    H263875   4.539   1.528   4.817 -0.0549  1.8266 -0.8783
14154TIP3   OH263876   6.147   0.278   1.322 -0.1217 -0.0460  0.0134
14154TIP3    H163877   6.133   0.337   1.248  0.2096 -1.8816 -1.5944
14154TIP3    H263878   6.102   0.198   1.298 -0.9548 -0.3625  2.3402
14155TIP3   OH263879   1.053   1.746   3.574 -0.3032 -0.6857 -0.0848
14155TIP3    H163880   1.028   1.689   3.501  0.1542 -1.7661  0.5730
14155TIP3    H263881   1.005   1.711   3.649  0.4405 -0.5765  0.4523
14156TIP3   OH263882   1.942   4.379   5.353  1.3844  0.5328 -0.3060
14156TIP3    H163883   1.861   4.365   5.403  2.0973  0.8074  0.9886
14156TIP3    H263884   1.964   4.471   5.369  1.0229  0.9688 -2.1239
14157TIP3   OH263885   4.321   3.856  14.819  0.1741 -0.1502  0.2058
14157TIP3    H163886   4.414   3.872  14.802 -0.0006 -0.3869 -1.0860
14157TIP3    H263887   4.298   3.918  14.887  1.2929 -0.1103  0.5647
14158TIP3   OH263888   0.725   0.252  10.873  0.1163  1.0492 -0.1050
14158TIP3    H163889   0.710   0.331  10.925 -0.0178  0.5222  0.6904
14158TIP3    H263890   0.646   0.200  10.886 -0.1633  1.1413 -1.3123
14159TIP3   OH263891   4.024   0.075  16.624 -0.0101  0.1595  0.6680
14159TIP3    H163892   4.058   0.164  16.628  1.1305 -0.1888 -0.5730
14159TIP3    H263893   3.953   0.079  16.560 -0.0495  0.2035  0.7137
14160TIP3   OH263894   5.600   6.815  13.252 -1.0175  0.8494 -0.4884
14160TIP3    H163895   5.521   6.839  13.300 -1.0634  1.7559 -1.0007
14160TIP3    H263896   5.588   6.722  13.231 -1.7634  0.8814 -0.2355
14161TIP3   OH263897   2.875   6.520  13.288  0.4152 -0.0139  0.2610
14161TIP3    H163898   2.934   6.465  13.236  0.0291 -0.9811  0.8344
14161TIP3    H263899   2.891   6.609  13.255  1.4079 -0.3926 -0.3311
14162TIP3   OH263900   5.875   1.251  15.645 -0.1996 -1.1138  0.0209
14162TIP3    H163901   5.855   1.191  15.717  1.6930 -1.7339  0.0838
14162TIP3    H263902   5.952   1.299  15.674 -0.6999  0.1847 -0.7273
14163TIP3   OH263903   0.072   0.956  16.229  0.6462 -0.4004 -0.5265
14163TIP3    H163904   0.126   0.963  16.150 -0.1302  3.7253 -0.9183
14163TIP3    H263905  -0.018   0.946  16.196  0.3342  1.2005 -0.2464
14164TIP3   OH263906   3.072   6.709   5.989 -0.1671  0.2314 -0.2690
14164TIP3    H163907   3.102   6.618   5.982  0.8544  0.5503 -0.1352
14164TIP3    H263908   2.978   6.704   5.968  0.3140 -0.5413 -2.5219
14165TIP3   OH263909   4.563   3.432   3.045 -0.2053  0.5222  0.0345
14165TIP3    H163910   4.519   3.512   3.016 -0.6553  0.4859  0.5935
14165TIP3    H263911   4.575   3.443   3.139 -0.0417  0.0412  0.0753
14166TIP3   OH263912   5.666   2.095   2.030  0.4793  1.0400  0.0950
14166TIP3    H163913   5.602   2.045   1.979 -0.8702  0.3015  2.3372
14166TIP3    H263914   5.751   2.059   2.005 -0.3271 -1.1378  0.2816
14167TIP3   OH263915   3.369   1.197   0.695  0.2513 -0.6194 -0.3410
14167TIP3    H163916   3.355   1.204   0.601  1.2713 -0.5945 -0.5100
14167TIP3    H263917   3.352   1.105   0.715  2.0419 -1.1218 -0.9447
14168TIP3   OH263918   4.231   2.975  12.345  0.6559  0.0375  0.4733
14168TIP3    H163919   4.201   3.061  12.373 -0.1524  0.0834 -0.4849
14168TIP3    H263920   4.320   2.990  12.312  1.0482  0.2415  1.5817
14169TIP3   OH263921   4.515   4.445   4.260 -0.6038  0.2560  0.3199
14169TIP3    H163922   4.581   4.482   4.319  1.1868  0.1302 -1.5013
14169TIP3    H263923   4.466   4.522   4.229  0.4129  0.6661 -0.3108
14170TIP3   OH263924   2.181   1.520  10.310 -0.4698  0.9748 -0.3273
14170TIP3    H163925   2.220   1.463  10.375 -1.2340  0.9153  0.0917
14170TIP3    H263926   2.205   1.481  10.226 -0.2974  0.5035 -0.0619
14171TIP3   OH263927   3.664   5.825  10.731 -0.2226 -0.3786  0.1041
14171TIP3    H163928   3.736   5.797  10.675 -0.2107 -0.1081 -0.0170
14171TIP3    H263929   3.608   5.748  10.739 -0.8739 -0.0736 -1.2864
14172TIP3   OH263930   0.131   6.017  15.340 -0.1672 -0.1276  0.1920
14172TIP3    H163931   0.179   6.079  15.395  0.2256 -0.5160  0.2861
14172TIP3    H263932   0.165   5.931  15.365  1.8900 -0.1895 -2.4405
14173TIP3   OH263933   3.868   3.203  14.804 -0.6119  0.3242  0.0250
14173TIP3    H163934   3.886   3.260  14.730  2.2029  0.5650  0.7684
14173TIP3    H263935   3.812   3.134  14.768 -0.6200  1.2751 -1.9093
14174TIP3   OH263936   6.312   4.811  12.002 -0.3582 -0.5276  0.4068
14174TIP3    H163937   6.361   4.749  11.948 -1.9339  0.5203 -2.4661
14174TIP3    H263938   6.292   4.764  12.082  1.5407 -2.4561 -0.1720
14175TIP3   OH263939   6.382   1.614   2.721 -0.3079  0.7572 -0.2496
14175TIP3    H163940   6.294   1.651   2.722 -0.9008 -0.5791  0.0204
14175TIP3    H263941   6.421   1.642   2.803 -0.7661  0.7488 -0.0255
14176TIP3   OH263942   1.332   5.207  11.701 -0.0720  0.0937  0.0977
14176TIP3    H163943   1.404   5.243  11.649 -0.8625  0.7795 -0.5446
14176TIP3    H263944   1.368   5.127  11.739  1.1211  0.5789  0.0287
14177TIP3   OH263945   1.711   5.107  17.017  0.5219  0.2304 -0.0815
14177TIP3    H163946   1.696   5.013  17.015  2.3660 -0.0995 -2.8228
14177TIP3    H263947   1.704   5.135  16.926 -0.0891  2.8097  0.6682
14178TIP3   OH263948   0.097   1.536   2.098  0.1335  0.2190 -0.7009
14178TIP3    H163949   0.012   1.524   2.055  0.0608 -1.5803 -0.1520
14178TIP3    H263950   0.149   1.460   2.070  0.9183  0.3104  0.4353
14179TIP3   OH263951   0.936   0.968   5.642  0.0796 -0.1808  0.3283
14179TIP3    H163952   0.954   0.898   5.704 -0.7375 -1.0647 -0.3923
14179TIP3    H263953   0.881   0.927   5.575  0.1633  0.9757 -0.4839
14180TIP3   OH263954   6.493   1.972   3.939  0.1196 -0.6083  0.0305
14180TIP3    H163955   6.438   1.942   3.866  1.8561 -0.3847 -1.4390
14180TIP3    H263956   6.431   1.996   4.008 -1.5329 -2.0269 -0.8938
14181TIP3   OH263957   3.806   0.673  16.648 -0.0390 -0.3328  0.0776
14181TIP3    H163958   3.897   0.667  16.675  0.4406  1.6909 -0.9386
14181TIP3    H263959   3.776   0.582  16.645  2.4358 -1.1740 -1.2068
14182TIP3   OH263960   3.171   4.672  11.286 -0.1507 -0.0432 -0.0834
14182TIP3    H163961   3.092   4.618  11.286 -0.6335  0.6493 -0.4744
14182TIP3    H263962   3.179   4.703  11.196  1.8554 -1.9404 -0.6234
14183TIP3   OH263963   2.692   3.758   4.922 -0.5758  0.7172  0.0150
14183TIP3    H163964   2.752   3.704   4.871  1.0785  0.7527  1.8525
14183TIP3    H263965   2.707   3.733   5.013 -2.0234  2.0490  0.6670
14184TIP3   OH263966   2.216   0.108  15.519  0.1191 -0.0794  0.0845
14184TIP3    H163967   2.187   0.186  15.565 -0.7398  1.1552 -2.3472
14184TIP3    H263968   2.164   0.107  15.438  1.3463 -2.2065 -0.7767
14185TIP3   OH263969   5.467   2.478   0.009  0.0342  0.1247  0.1689
14185TIP3    H163970   5.557   2.473   0.040  0.2799  1.2909 -0.3445
14185TIP3    H263971   5.456   2.399  -0.045  1.7889  1.5194 -2.4285
14186TIP3   OH263972   5.416   2.020  15.419  0.7011  0.3256 -0.3063
14186TIP3    H163973   5.493   1.963  15.414 -1.1947 -2.4197 -0.5408
14186TIP3    H263974   5.342   1.960  15.427 -1.3192  2.8416  2.4193
14187TIP3   OH263975   4.174   1.399  12.420  0.0297 -0.5992 -0.2871
14187TIP3    H163976   4.189   1.421  12.512 -0.3123 -1.4225 -0.0264
14187TIP3    H263977   4.258   1.415  12.377 -0.2229  1.3168 -0.1489
14188TIP3   OH263978   4.885   3.746  15.127 -0.1947 -0.6602  0.2834
14188TIP3    H163979   4.971   3.738  15.167  0.0083 -0.4154 -0.0956
14188TIP3    H263980   4.823   3.733  15.199  0.1259  2.8991  1.3862
14189TIP3   OH263981   1.056   1.199   5.307 -0.3922  0.5895  0.4166
14189TIP3    H163982   0.999   1.259   5.260  0.5506  1.4170  0.2917
14189TIP3    H263983   1.002   1.121   5.322 -1.9174  1.7764  1.3520
14190TIP3   OH263984   5.096   2.890   5.118 -1.1967 -0.4767 -0.0612
14190TIP3    H163985   5.085   2.917   5.209  0.7785 -1.1135  0.4024
14190TIP3    H263986   5.159   2.818   5.121  0.4950  0.7945 -2.0826
14191TIP3   OH263987   4.369   4.907   3.676 -0.4827  0.0689 -0.3616
14191TIP3    H163988   4.308   4.963   3.725  1.1619  2.3994 -0.8238
14191TIP3    H263989   4.436   4.883   3.740  0.3065  0.9943 -0.8184
14192TIP3   OH263990   3.839   4.565  15.454 -0.7137  1.3150  0.1235
14192TIP3    H163991   3.775   4.616  15.405 -1.3245 -0.2277 -0.7556
14192TIP3    H263992   3.923   4.606  15.435 -1.2814  2.5624  0.2261
14193TIP3   OH263993   4.780   1.289  11.690  0.1075 -0.1914 -0.2547
14193TIP3    H163994   4.738   1.229  11.752 -0.7964  0.5113 -0.1732
14193TIP3    H263995   4.797   1.235  11.613 -1.0189 -0.4859 -0.3125
14194TIP3   OH263996   5.146   3.148   4.352 -0.4607 -0.1517 -0.1978
14194TIP3    H163997   5.236   3.178   4.362 -0.6594  0.5158 -0.3192
14194TIP3    H263998   5.096   3.228   4.336 -0.6403 -0.7667 -3.4584
14195TIP3   OH263999   0.885   6.556  16.740  0.1258 -0.0383  0.1239
14195TIP3    H164000   0.889   6.631  16.800  2.1723 -0.2016  0.2616
14195TIP3    H264001   0.791   6.536  16.733 -0.3583  1.6515  1.1681
14196TIP3   OH264002   0.577   1.549  16.350 -0.2025  0.2372  0.3327
14196TIP3    H164003   0.487   1.547  16.316  0.6192  0.7253 -2.1173
14196TIP3    H264004   0.588   1.638  16.383 -0.6520  0.1272  0.7911
14197TIP3   OH264005   2.612   2.273   3.174 -0.1913 -0.1774 -0.6703
14197TIP3    H164006   2.572   2.186   3.165  0.7627 -0.8084  0.7506
14197TIP3    H264007   2.697   2.264   3.131 -0.4020  0.2877 -1.1841
14198TIP3   OH264008   3.352   5.017   1.022  0.5682  0.1181 -0.1795
14198TIP3    H164009   3.390   5.094   1.062  0.1637  0.3441 -0.2263
14198TIP3    H264010   3.279   4.993   1.079  1.1991 -0.7307  0.3027
14199TIP3   OH264011   3.909   6.512  12.602  0.2014  0.1098  0.2211
14199TIP3    H164012   3.830   6.502  12.549  0.0503  4.4262 -0.7876
14199TIP3    H264013   3.965   6.439  12.577 -1.9363 -0.9391 -1.9208
14200TIP3   OH264014   1.729   3.214  11.968  0.4169  0.3410 -0.0089
14200TIP3    H164015   1.732   3.308  11.984 -1.0192  0.8425 -2.2139
14200TIP3    H264016   1.768   3.203  11.882 -0.5330 -0.9223 -0.3052
14201TIP3   OH264017   0.860   6.657  17.017  0.1430 -0.0835 -0.0300
14201TIP3    H164018   0.888   6.694  17.100 -0.3699 -0.0363  0.1257
14201TIP3    H264019   0.901   6.571  17.013 -0.1791 -0.2590  0.4665
14202TIP3   OH264020   3.611   5.520   2.275 -0.0598 -0.3129 -0.0394
14202TIP3    H164021   3.533   5.481   2.235 -0.0366 -0.8667  0.4373
14202TIP3    H264022   3.671   5.447   2.289  1.7054  0.4333 -2.8487
14203TIP3   OH264023   5.891   5.330  16.166 -0.0910  0.2931 -0.4264
14203TIP3    H164024   5.894   5.419  16.132 -0.7563  0.4205 -0.1649
14203TIP3    H264025   5.866   5.339  16.258 -1.0409 -0.2130 -0.6263
14204TIP3   OH264026   2.134   3.607   2.586 -0.2906 -0.2797 -0.0183
14204TIP3    H164027   2.186   3.562   2.519  0.4731  0.1303  0.2859
14204TIP3    H264028   2.198   3.660   2.634 -0.7766 -0.7886  1.2183
14205TIP3   OH264029   3.955   1.657   2.587  0.3587 -0.0763 -0.2065
14205TIP3    H164030   3.983   1.748   2.586 -0.8155  0.5029  3.5535
14205TIP3    H264031   4.035   1.607   2.570  1.2054  1.6180 -1.4467
14206TIP3   OH264032   0.716   0.815   3.586 -0.3300  0.1014  0.6010
14206TIP3    H164033   0.640   0.762   3.565 -0.1712 -0.3605  1.1559
14206TIP3    H264034   0.688   0.905   3.571 -0.4082 -0.1612 -0.9591
14207TIP3   OH264035   5.128   1.921   2.486 -0.1632 -0.2960  0.2406
14207TIP3    H164036   5.214   1.944   2.452  0.2265  1.1888  2.0570
14207TIP3    H264037   5.139   1.832   2.521  0.9339  0.2215  1.2965
14208TIP3   OH264038   4.941   1.278  15.386 -0.4781 -0.0043  0.3170
14208TIP3    H164039   4.966   1.325  15.307 -3.7684 -0.6787 -1.2857
14208TIP3    H264040   5.006   1.208  15.395  0.4982  0.6695 -1.1982
14209TIP3   OH264041   1.832   3.032  14.816  0.0396  0.8096  0.1119
14209TIP3    H164042   1.923   3.005  14.806 -0.4754 -1.0992  0.1436
14209TIP3    H264043   1.790   3.005  14.735 -0.7572  0.4293  0.6311
14210TIP3   OH264044   0.080   6.408  16.406  0.1742 -0.2856  0.6327
14210TIP3    H164045   0.166   6.404  16.447  0.4034  0.3561  0.2222
14210TIP3    H264046   0.092   6.463  16.329  0.1000 -2.7145 -1.1960
14211TIP3   OH264047   1.148   1.929   2.675  0.0472  1.3729 -0.2552
14211TIP3    H164048   1.128   1.861   2.741  0.1337  0.8579 -0.7553
14211TIP3    H264049   1.149   2.010   2.725  1.1989  0.8650  0.5844
14212TIP3   OH264050   2.496   2.268  14.923  0.0438  0.4382 -0.5425
14212TIP3    H164051   2.571   2.219  14.957 -0.4454  0.1529  0.1534
14212TIP3    H264052   2.528   2.308  14.843  0.9770  0.4215 -0.1885
14213TIP3   OH264053   3.367   2.811  15.936  0.3561 -0.1231  0.7108
14213TIP3    H164054   3.351   2.875  16.006  0.5235 -0.5080  1.1063
14213TIP3    H264055   3.462   2.801  15.936  0.3517 -0.1545  0.4521
14214TIP3   OH264056   4.298   3.702  14.525 -0.1654  0.6077 -0.2312
14214TIP3    H164057   4.287   3.677  14.617 -0.9975  1.9394  0.0484
14214TIP3    H264058   4.219   3.670  14.482 -0.1087  0.6226 -0.3469
14215TIP3   OH264059   1.253   3.630   2.758 -0.1409 -0.1783  0.2197
14215TIP3    H164060   1.224   3.552   2.710 -0.2522  0.5876 -0.9967
14215TIP3    H264061   1.346   3.637   2.739 -0.0327 -0.2749  0.7094
14216TIP3   OH264062   5.671   0.122  16.049 -0.1398  0.2931 -0.0350
14216TIP3    H164063   5.666   0.128  16.144 -1.0719 -0.6240 -0.0112
14216TIP3    H264064   5.580   0.124  16.019  0.1656  2.6994 -1.0872
14217TIP3   OH264065   2.372   4.988   1.974 -0.0790  0.4148 -0.1531
14217TIP3    H164066   2.414   4.948   2.051 -0.1264  1.2822  0.3419
14217TIP3    H264067   2.278   4.979   1.991 -0.0917 -0.2180 -0.5559
14218TIP3   OH264068   4.634   4.255   2.635 -0.2364  0.3429 -0.0164
14218TIP3    H164069   4.555   4.217   2.597 -0.7570  2.1319 -0.8825
14218TIP3    H264070   4.685   4.284   2.559  0.3346  0.9217  0.5679
14219TIP3   OH264071   6.292   1.953  14.928  0.7957 -0.7864  0.4834
14219TIP3    H164072   6.333   2.014  14.989 -0.2973 -0.8296  1.3027
14219TIP3    H264073   6.200   1.952  14.954  0.3094 -0.8616 -1.1433
14220TIP3   OH264074   5.113   3.863   1.003  0.4419 -0.2280  0.6389
14220TIP3    H164075   5.049   3.854   0.932  1.0269  2.6191 -0.3983
14220TIP3    H264076   5.185   3.805   0.977 -0.4916 -1.2802  0.3289
14221TIP3   OH264077   1.935   4.647  12.545 -0.3518 -0.1175  0.1007
14221TIP3    H164078   1.893   4.692  12.472 -0.1043 -0.6688 -0.3890
14221TIP3    H264079   1.918   4.703  12.621  0.2863  1.0171 -0.5576
14222TIP3   OH264080   0.745   0.629   5.734 -0.1828  0.6224  0.4882
14222TIP3    H164081   0.740   0.608   5.828  2.1738  0.2092  0.5925
14222TIP3    H264082   0.823   0.583   5.704  1.2983  3.7416 -0.8315
14223TIP3   OH264083   3.569   0.349   1.926  0.4339  0.4997  0.3412
14223TIP3    H164084   3.662   0.339   1.904  0.0081 -2.7513 -0.4909
14223TIP3    H264085   3.524   0.352   1.842 -0.4599 -2.1989  0.6317
14224TIP3   OH264086   2.033   1.664   0.188 -0.3425 -0.2054  0.1217
14224TIP3    H164087   2.019   1.711   0.106 -0.4598 -1.2064 -0.4344
14224TIP3    H264088   2.089   1.723   0.239 -0.1480  0.3657 -0.7285
14225TIP3   OH264089   2.614   6.437   1.768 -0.0003  0.1687  0.0353
14225TIP3    H164090   2.673   6.362   1.754  2.1153  1.5100  1.1508
14225TIP3    H264091   2.557   6.409   1.840 -0.0646 -0.7997 -0.3698
14226TIP3   OH264092   4.380   5.107  13.409  0.5393 -0.3613  0.0613
14226TIP3    H164093   4.330   5.184  13.435 -1.3915 -1.0204 -1.4920
14226TIP3    H264094   4.468   5.141  13.392  0.0618  1.2618  0.6257
14227TIP3   OH264095   1.453   6.037   2.673 -0.1599  0.1774  0.7284
14227TIP3    H164096   1.493   5.974   2.612  1.3513  0.5782  1.2765
14227TIP3    H264097   1.415   5.983   2.741 -2.5987 -0.3350 -0.9117
14228TIP3   OH264098   1.038   3.263  11.739 -0.4485  0.3109  0.1861
14228TIP3    H164099   1.131   3.243  11.725 -0.9382 -1.6405 -0.5466
14228TIP3    H264100   1.002   3.184  11.778 -1.5031  1.6392  2.1179
14229TIP3   OH264101   3.240   3.981   4.528  0.0969 -0.6235  0.0574
14229TIP3    H164102   3.282   4.051   4.478 -1.1268 -0.2053 -0.4081
14229TIP3    H264103   3.279   3.900   4.495 -0.2476 -0.3111 -1.1524
14230TIP3   OH264104   0.390   2.122  11.785  0.2753 -0.1796  0.2304
14230TIP3    H164105   0.439   2.203  11.796  0.8063 -0.3316 -0.8425
14230TIP3    H264106   0.324   2.143  11.719 -1.0753 -0.0054  1.5872
14231TIP3   OH264107   6.621   5.900   5.763  0.2368  0.2877  0.2160
14231TIP3    H164108   6.621   5.829   5.698 -0.6061 -0.7177  1.2822
14231TIP3    H264109   6.566   5.868   5.834  1.1860  1.3381  1.4798
14232TIP3   OH264110   5.197   5.318   4.384  0.3457 -0.6439 -0.7829
14232TIP3    H164111   5.105   5.298   4.397  0.6124 -2.4431 -1.4268
14232TIP3    H264112   5.203   5.346   4.292  0.1659  1.3914 -0.2124
14233TIP3   OH264113   3.648   6.339   3.970  0.7861  0.6025 -0.3663
14233TIP3    H164114   3.617   6.250   3.951 -0.0831  0.9323 -0.5175
14233TIP3    H264115   3.580   6.396   3.935  0.6009  1.2966  1.0618
14234TIP3   OH264116   4.582   3.303  13.976 -0.0625 -0.4718  0.5480
14234TIP3    H164117   4.563   3.290  13.883 -1.2801  0.7814  0.5872
14234TIP3    H264118   4.636   3.228  14.000 -0.9858 -1.6311 -0.8078
14235TIP3   OH264119   1.167   4.371  14.185 -0.3226  0.6253  0.0855
14235TIP3    H164120   1.204   4.376  14.097  0.2089 -1.4650  0.1218
14235TIP3    H264121   1.199   4.449  14.231  1.8816  0.2183 -0.6839
14236TIP3   OH264122   3.663   2.721  14.014 -0.0316 -0.1964 -0.7404
14236TIP3    H164123   3.648   2.657  13.945  0.6071  0.0207 -1.0908
14236TIP3    H264124   3.576   2.755  14.036 -0.3902 -1.2593 -0.4692
14237TIP3   OH264125   6.517   5.496   5.406 -0.0901 -0.1809 -0.4226
14237TIP3    H164126   6.502   5.572   5.462 -1.0832  0.4594 -1.5001
14237TIP3    H264127   6.546   5.427   5.465 -0.0932  0.7698  0.7150
14238TIP3   OH264128   5.735   2.233  16.473 -0.9125 -0.3017 -0.7700
14238TIP3    H164129   5.760   2.307  16.416  1.0713 -1.0590 -0.9651
14238TIP3    H264130   5.762   2.156  16.424  2.4082 -0.9495  1.7861
14239TIP3   OH264131   3.031   3.960  12.145  0.0615  0.2632  0.5860
14239TIP3    H164132   3.107   4.000  12.105  0.3344 -1.0038 -0.1876
14239TIP3    H264133   2.957   4.012  12.114  0.3740 -0.0471 -0.7295
14240TIP3   OH264134   2.029   1.290   0.846  0.3861 -0.1455 -0.3361
14240TIP3    H164135   1.940   1.270   0.816 -0.0513 -0.1820  0.9506
14240TIP3    H264136   2.018   1.362   0.907  1.2089 -0.3474  0.0554
14241TIP3   OH264137   5.957   4.332  12.653  0.6527 -0.0467  0.2059
14241TIP3    H164138   5.961   4.427  12.664 -2.9672  0.3773 -0.6578
14241TIP3    H264139   5.928   4.299  12.738 -1.0038  0.0431 -0.2889
14242TIP3   OH264140   2.196   1.175   6.348  0.4827  0.1330  0.1041
14242TIP3    H164141   2.108   1.211   6.337 -0.5124 -2.3509 -0.8306
14242TIP3    H264142   2.240   1.195   6.265  0.7046  1.0654  0.4349
14243TIP3   OH264143   2.368   6.426  15.985 -0.5832 -0.0444 -0.6040
14243TIP3    H164144   2.370   6.330  15.978 -0.9410 -0.3693  2.5436
14243TIP3    H264145   2.282   6.450  15.951 -2.3778 -1.3776  2.6138
14244TIP3   OH264146   0.898   6.152   5.865 -0.3449 -0.6052 -0.0331
14244TIP3    H164147   0.994   6.155   5.874 -0.2538 -1.1604 -0.6811
14244TIP3    H264148   0.865   6.166   5.954  0.3519 -0.9218  0.2838
14245TIP3   OH264149   6.187   2.236   3.884 -0.0496  0.5853  0.0352
14245TIP3    H164150   6.243   2.288   3.942 -0.6542  1.0199  0.2516
14245TIP3    H264151   6.099   2.246   3.922 -0.1697 -0.6604  0.1199
14246TIP3   OH264152   6.498   3.499   2.772  0.6294 -0.5053 -0.2993
14246TIP3    H164153   6.471   3.417   2.731 -2.2181 -0.6606  1.6302
14246TIP3    H264154   6.481   3.486   2.865  1.3453  1.8470  0.2285
14247TIP3   OH264155   4.273   3.484   4.288  0.3005 -0.3616  0.1725
14247TIP3    H164156   4.293   3.409   4.344 -2.1718 -1.9989 -0.9752
14247TIP3    H264157   4.178   3.490   4.288  0.3468  1.6099 -1.3330
14248TIP3   OH264158   0.984   3.312  16.637 -0.3938 -0.5564 -0.3786
14248TIP3    H164159   0.952   3.376  16.701  1.1182 -0.2367  0.0791
14248TIP3    H264160   0.907   3.258  16.618 -1.2592  0.2992  0.5428
14249TIP3   OH264161   0.389   4.813   1.589 -0.2512 -0.4227  0.2270
14249TIP3    H164162   0.396   4.722   1.561 -0.7051 -0.3743 -0.0530
14249TIP3    H264163   0.425   4.864   1.517  0.0811 -0.3867  0.4198
14250TIP3   OH264164   5.642   5.711   0.567 -0.7185 -0.2296 -0.9257
14250TIP3    H164165   5.569   5.768   0.589 -0.1416  0.5538 -0.9886
14250TIP3    H264166   5.702   5.767   0.518  1.2351 -0.0610  1.4665
14251TIP3   OH264167   0.285   4.020  15.345  0.2398  0.2658 -0.2028
14251TIP3    H164168   0.223   3.960  15.305  0.0152  1.1534 -1.2069
14251TIP3    H264169   0.370   3.994  15.310  0.1326  0.5729 -0.6973
14252TIP3   OH264170   4.038   3.895  15.292  0.0378  0.5023 -0.0547
14252TIP3    H164171   3.961   3.851  15.328 -0.4504  1.1872 -0.2513
14252TIP3    H264172   4.072   3.947  15.364  0.4926 -0.0224  0.1166
14253TIP3   OH264173   3.442   6.757  13.654  0.1646 -0.1030  0.0566
14253TIP3    H164174   3.502   6.689  13.622  0.1090 -0.4722  0.7213
14253TIP3    H264175   3.399   6.790  13.575 -0.3934 -1.4073 -0.2145
14254TIP3   OH264176   0.829   6.211  16.417  0.4252  0.0914  0.6907
14254TIP3    H164177   0.893   6.222  16.487  1.4921 -0.2316 -0.2084
14254TIP3    H264178   0.841   6.121  16.387 -1.2542 -0.3506  1.2675
14255TIP3   OH264179   4.898   1.088  13.138 -0.1617  0.0126  0.3910
14255TIP3    H164180   4.858   1.083  13.225  0.2116  0.8338  0.6206
14255TIP3    H264181   4.955   1.165  13.142 -1.3146  0.9796 -1.0661
14256TIP3   OH264182   1.220   4.123  12.215  0.7742 -0.0042 -0.1029
14256TIP3    H164183   1.161   4.188  12.178  0.2174 -0.6216 -0.3021
14256TIP3    H264184   1.204   4.043  12.165  0.5860 -0.6357  0.9181
14257TIP3   OH264185   5.971   5.125  11.002  0.1332 -0.4432  0.2870
14257TIP3    H164186   5.989   5.078  10.921  0.6536 -1.1995  0.8282
14257TIP3    H264187   5.987   5.217  10.980  0.8212 -0.6966 -0.3156
14258TIP3   OH264188   6.306   6.439   4.693  0.1310  0.2693  0.0585
14258TIP3    H164189   6.334   6.528   4.713  0.1558  0.0148  1.2385
14258TIP3    H264190   6.235   6.421   4.755  0.0381 -0.4872 -0.2514
14259TIP3   OH264191   5.438   6.819   6.030 -0.2234 -0.1983 -0.2909
14259TIP3    H164192   5.408   6.897   6.076  0.4223  0.7433 -1.4050
14259TIP3    H264193   5.359   6.767   6.017 -1.2183  1.6324 -2.0540
14260TIP3   OH264194   6.060   2.276  16.981  0.1765  0.4358 -0.2523
14260TIP3    H164195   5.977   2.300  16.939  0.6307 -0.1632 -1.5520
14260TIP3    H264196   6.063   2.181  16.977  0.0473  0.3180  1.5836
14261TIP3   OH264197   3.086   2.607   1.320 -0.7817 -0.5059 -0.0805
14261TIP3    H164198   3.084   2.543   1.392 -2.1327  0.3832  0.7103
14261TIP3    H264199   3.010   2.586   1.267 -0.9062  0.0973 -0.1373
14262TIP3   OH264200   4.991   4.504   2.817  0.6280 -0.0886  0.0589
14262TIP3    H164201   4.961   4.509   2.908 -0.2078 -3.8033  0.1258
14262TIP3    H264202   4.911   4.516   2.765  0.9668  1.1625 -0.2137
14263TIP3   OH264203   6.635   2.036   0.290  0.1117 -0.1462 -0.2406
14263TIP3    H164204   6.589   2.114   0.257  0.6606  0.2842  0.0043
14263TIP3    H264205   6.727   2.061   0.290  0.4877 -1.4287 -1.8954
14264TIP3   OH264206   6.760   3.386   1.112  0.0159  0.5634 -0.1188
14264TIP3    H164207   6.701   3.372   1.037 -1.1601  1.6052  0.5649
14264TIP3    H264208   6.753   3.306   1.164  2.5021 -1.1140 -2.1243
14265TIP3   OH264209   0.912   1.248  15.263  0.3230  0.7260  0.1900
14265TIP3    H164210   0.908   1.201  15.346  0.1559  0.7343  0.1885
14265TIP3    H264211   0.835   1.217  15.215  0.9235  0.0290 -0.3303
14266TIP3   OH264212   2.495   0.839  15.637 -0.1267  0.2256  0.2743
14266TIP3    H164213   2.443   0.884  15.570 -0.6927  1.1740  1.3132
14266TIP3    H264214   2.511   0.906  15.703 -1.7126 -1.2654  2.2861
14267TIP3   OH264215   5.877   4.948   1.430 -0.3106  0.3363 -0.8050
14267TIP3    H164216   5.958   4.898   1.432  0.1326  1.0403 -0.6974
14267TIP3    H264217   5.866   4.974   1.339  0.3997  1.5173 -0.5729
14268TIP3   OH264218   2.317   0.687  14.574 -0.1109  0.1066  0.2351
14268TIP3    H164219   2.300   0.776  14.604 -0.8974  0.2755 -0.6637
14268TIP3    H264220   2.283   0.684  14.485  0.4119 -0.9374  0.0437
14269TIP3   OH264221   5.420   0.918  13.868 -0.1790  0.8359 -0.4462
14269TIP3    H164222   5.456   0.866  13.940  2.4650  1.4487 -1.1958
14269TIP3    H264223   5.365   0.857  13.818 -0.5848 -0.0593  1.0510
14270TIP3   OH264224   6.793   1.190  14.219 -0.2323 -0.1571  0.5637
14270TIP3    H164225   6.788   1.097  14.239 -0.4402  0.1433  2.0353
14270TIP3    H264226   6.714   1.227  14.258  0.3642  0.7942  0.9100
14271TIP3   OH264227   4.367   0.642   2.263 -0.1327 -0.5340 -0.4476
14271TIP3    H164228   4.347   0.644   2.169  1.3924 -0.4482 -0.8003
14271TIP3    H264229   4.312   0.572   2.297 -1.0311 -0.2810 -1.3229
14272TIP3   OH264230   0.009   1.097   6.424 -0.4975 -0.1912  0.0059
14272TIP3    H164231   0.062   1.172   6.396 -1.7000  1.0125  0.7926
14272TIP3    H264232  -0.061   1.092   6.359 -0.3970 -0.6867 -0.0706
14273TIP3   OH264233   2.396   2.869   6.215 -0.3805 -0.5803 -0.2105
14273TIP3    H164234   2.487   2.886   6.192 -0.0798 -0.2759  1.0876
14273TIP3    H264235   2.400   2.835   6.305 -1.5945  0.3007  0.2151
14274TIP3   OH264236   4.100   0.568   0.393 -0.1039 -0.2453  0.2803
14274TIP3    H164237   4.073   0.487   0.351 -2.9209  0.8918 -0.3324
14274TIP3    H264238   4.085   0.636   0.327  0.5387  1.0000  1.3403
14275TIP3   OH264239   0.826   1.117  11.887 -0.4949  0.2235 -0.6441
14275TIP3    H164240   0.904   1.062  11.874 -1.0035 -0.6694 -0.0120
14275TIP3    H264241   0.755   1.068  11.846 -1.1549 -0.1468  0.8530
14276TIP3   OH264242   5.976   2.763   5.542 -0.8264  0.1815  0.4418
14276TIP3    H164243   6.051   2.715   5.578 -1.5029  0.3107  2.1522
14276TIP3    H264244   5.951   2.714   5.464 -0.6015 -1.4294  1.3267
14277TIP3   OH264245   5.936   6.253   4.522 -0.5269  0.3194  0.5181
14277TIP3    H164246   6.026   6.228   4.502 -0.4576  1.3207 -0.4919
14277TIP3    H264247   5.938   6.280   4.613 -0.1619 -1.2075  1.0038
14278TIP3   OH264248   1.759   6.593  13.058 -0.0952 -0.1480 -0.0934
14278TIP3    H164249   1.721   6.675  13.088 -1.9479 -1.0981  0.3395
14278TIP3    H264250   1.758   6.600  12.963  3.0883  1.6941 -0.1282
14279TIP3   OH264251   1.805   3.618   4.517  0.6353 -0.2206  0.5514
14279TIP3    H164252   1.769   3.561   4.585  1.7135  0.2145  1.5235
14279TIP3    H264253   1.779   3.706   4.544 -2.0770 -0.2230 -1.5753
14280TIP3   OH264254   5.276   1.238   5.735  0.0918 -0.2161  0.2331
14280TIP3    H164255   5.262   1.192   5.818  1.1844 -0.7984  0.1193
14280TIP3    H264256   5.357   1.287   5.748 -0.3486  0.6118 -0.1086
14281TIP3   OH264257   6.348   6.589  10.561  0.4499  0.4051 -0.3840
14281TIP3    H164258   6.299   6.638  10.627 -1.5993  0.4890 -1.8890
14281TIP3    H264259   6.316   6.500  10.569 -0.0811  0.4884 -1.4891
14282TIP3   OH264260   1.802   1.985   0.148  0.0020 -0.7175 -0.3910
14282TIP3    H164261   1.863   2.051   0.117 -1.4770  2.3737  2.6087
14282TIP3    H264262   1.748   1.964   0.071  1.3166  0.6059 -1.7366
14283TIP3   OH264263   1.104   1.735  15.122  0.1967  0.0915 -0.2448
14283TIP3    H164264   1.185   1.691  15.147  1.2074  1.4954 -0.9351
14283TIP3    H264265   1.035   1.671  15.142  1.6103 -1.9977 -1.6313
14284TIP3   OH264266   6.219   5.341   5.433 -0.2380  0.5050 -0.2795
14284TIP3    H164267   6.283   5.289   5.385  0.2454  1.1427 -0.3475
14284TIP3    H264268   6.260   5.428   5.440 -0.6092  0.6090  0.6618
14285TIP3   OH264269   1.608   0.814   2.937  0.3447 -0.6465 -0.0246
14285TIP3    H164270   1.642   0.729   2.910 -0.9016 -0.8666 -1.0428
14285TIP3    H264271   1.526   0.794   2.982 -0.5745  0.0380 -1.3181
14286TIP3   OH264272   6.791   6.353  16.911 -0.1998 -0.1658 -0.8532
14286TIP3    H164273   6.805   6.329  17.003 -0.5856  1.9219 -0.1886
14286TIP3    H264274   6.723   6.293  16.880 -0.8353 -0.2033  0.5552
14287TIP3   OH264275   2.886   4.996  14.810  0.1708 -0.0589 -0.0708
14287TIP3    H164276   2.832   4.918  14.823  1.2457 -0.8104  0.0453
14287TIP3    H264277   2.826   5.069  14.822 -1.3220 -0.8525 -2.1629
14288TIP3   OH264278   1.429   0.615  16.522 -0.3028 -0.1759 -0.5152
14288TIP3    H164279   1.441   0.650  16.610 -2.7312 -0.4299  0.0015
14288TIP3    H264280   1.490   0.541  16.516  0.8379  0.6610  0.4345
14289TIP3   OH264281   1.791   4.941   0.571 -0.2241  0.5058  0.0323
14289TIP3    H164282   1.800   4.851   0.538 -1.9796  0.7729 -1.3645
14289TIP3    H264283   1.709   4.972   0.533  0.6489  2.9477 -0.0541
14290TIP3   OH264284   5.206   4.330  13.397 -0.4120 -0.5940  0.3241
14290TIP3    H164285   5.258   4.255  13.369  2.2656  1.3636 -0.3169
14290TIP3    H264286   5.161   4.299  13.476 -0.2339 -3.1374 -0.4757
14291TIP3   OH264287   6.197   5.172  14.760  0.2065 -0.1420  0.1935
14291TIP3    H164288   6.157   5.092  14.727 -0.8544 -0.1710  1.4433
14291TIP3    H264289   6.144   5.195  14.836  1.0058  1.2926  0.3478
14292TIP3   OH264290   4.531   0.848   2.754  0.8232 -0.3069 -0.5679
14292TIP3    H164291   4.624   0.825   2.749  0.9412  0.2520 -1.0718
14292TIP3    H264292   4.530   0.938   2.787  0.4332 -0.4981 -0.0441
14293TIP3   OH264293   3.643   2.815   2.142 -0.0505  0.2009 -0.0429
14293TIP3    H164294   3.653   2.905   2.114  0.0321 -0.0341 -0.7764
14293TIP3    H264295   3.552   2.793   2.124 -0.4257  0.5323  1.3305
14294TIP3   OH264296   6.165   6.127  13.358  0.1168 -0.0773  0.1474
14294TIP3    H164297   6.085   6.136  13.410 -1.6626 -1.2158 -2.1459
14294TIP3    H264298   6.195   6.038  13.377 -0.2296 -0.2990 -0.3002
14295TIP3   OH264299   6.345   2.035   4.180  0.2669 -0.3065 -0.1721
14295TIP3    H164300   6.350   1.950   4.224  0.8567 -0.0726  0.2307
14295TIP3    H264301   6.331   2.098   4.251 -1.1215 -0.1447 -0.5503
14296TIP3   OH264302   0.738   3.239   4.272  0.4963 -0.2360 -0.6210
14296TIP3    H164303   0.643   3.224   4.270  0.1100  1.8605 -0.6816
14296TIP3    H264304   0.754   3.276   4.359  1.0708  0.3927 -0.9852
14297TIP3   OH264305   6.642   0.316  13.341  0.4283  0.9470  0.6867
14297TIP3    H164306   6.574   0.252  13.320  0.8441  0.5048  0.6693
14297TIP3    H264307   6.604   0.369  13.412  0.3593  0.2128  1.2085
14298TIP3   OH264308   1.929   1.471  11.587  0.1023 -0.4818  0.3076
14298TIP3    H164309   1.949   1.561  11.613  1.4184 -0.4098 -0.8154
14298TIP3    H264310   1.872   1.480  11.511  3.2486 -0.3597 -2.3029
14299TIP3   OH264311   3.939   0.482   6.281 -0.0455 -0.2140  0.1206
14299TIP3    H164312   3.896   0.430   6.212  0.0615 -0.2404  0.0741
14299TIP3    H264313   3.907   0.444   6.363  1.8628 -1.9343  0.1485
14300TIP3   OH264314   6.176   2.725   3.541  0.4851 -0.2734 -0.0451
14300TIP3    H164315   6.254   2.715   3.596  1.4620 -0.0940 -1.3548
14300TIP3    H264316   6.103   2.728   3.603  1.5945  0.4813  1.2833
14301TIP3   OH264317   4.300   3.734  16.234 -0.1394 -0.0165  0.5405
14301TIP3    H164318   4.381   3.703  16.194  0.0367 -0.1328  0.9829
14301TIP3    H264319   4.265   3.658  16.280 -1.5340 -0.5340 -1.2688
14302TIP3   OH264320   2.851   4.867  12.783 -0.0100  0.0517 -0.1388
14302TIP3    H164321   2.897   4.786  12.805 -1.3596 -1.0589 -1.2365
14302TIP3    H264322   2.777   4.871  12.843 -0.6199 -0.1616 -0.8596
14303TIP3   OH264323   4.452   5.399   4.706 -0.6028  0.2598 -0.4706
14303TIP3    H164324   4.515   5.466   4.679 -1.1787  0.5601 -1.0971
14303TIP3    H264325   4.467   5.327   4.645  0.6955 -0.6159  0.8126
14304TIP3   OH264326   3.939   4.161   5.921  0.1520 -0.4434 -0.3085
14304TIP3    H164327   3.882   4.145   5.996 -0.3689  0.2496 -0.5404
14304TIP3    H264328   3.879   4.183   5.849  0.6958  0.0980 -0.6087
14305TIP3   OH264329   1.699   3.481   5.207 -0.1842 -0.3404 -0.3227
14305TIP3    H164330   1.761   3.417   5.243 -0.1756 -0.1005  0.0904
14305TIP3    H264331   1.749   3.528   5.140 -0.1604 -0.6936 -0.5538
14306TIP3   OH264332   2.313   0.172   6.292 -0.1738  0.0551 -0.2116
14306TIP3    H164333   2.276   0.195   6.206  0.9327 -1.7760 -1.2420
14306TIP3    H264334   2.274   0.087   6.313  0.3808 -0.0099  0.5980
14307TIP3   OH264335   4.051   3.457  12.467 -0.1320  0.5475 -0.0880
14307TIP3    H164336   4.117   3.501  12.521  1.9398 -0.6783 -1.5084
14307TIP3    H264337   4.019   3.526  12.408  1.1451  0.7947 -0.5187
14308TIP3   OH264338   0.584   6.717  12.337 -0.0791 -0.0747 -0.2642
14308TIP3    H164339   0.592   6.626  12.309 -0.6879 -0.9712  2.2546
14308TIP3    H264340   0.584   6.767  12.255  1.2025 -2.2217 -1.6917
14309TIP3   OH264341   3.329   6.017  13.666  0.0893  0.2561  0.2141
14309TIP3    H164342   3.330   5.933  13.713  1.4190  0.4887  0.6369
14309TIP3    H264343   3.375   5.999  13.584 -0.7781  0.2577 -0.2769
14310TIP3   OH264344   3.546   0.868   0.023 -0.1645 -0.8341  0.4452
14310TIP3    H164345   3.584   0.845  -0.063 -1.8534  0.7672 -0.8064
14310TIP3    H264346   3.462   0.822   0.024 -0.0419 -1.0480  1.3971
14311TIP3   OH264347   6.495   1.699   5.797  0.0531  0.5607  0.0188
14311TIP3    H164348   6.408   1.669   5.822  1.2269 -1.1582  2.4722
14311TIP3    H264349   6.530   1.741   5.875  2.3399 -1.1297  0.0181
14312TIP3   OH264350   5.765   3.792  14.587 -0.2461  0.3757  0.4487
14312TIP3    H164351   5.776   3.866  14.527  1.4624 -0.4986 -0.4088
14312TIP3    H264352   5.671   3.775  14.587 -0.4500  1.2908 -0.9069
14313TIP3   OH264353   1.585   5.184   0.782 -0.1399 -0.1585 -0.0963
14313TIP3    H164354   1.531   5.119   0.737 -0.8978 -0.5984  1.3857
14313TIP3    H264355   1.539   5.267   0.768  0.2137 -0.1019 -1.0154
14314TIP3   OH264356   3.600   0.019  13.878 -0.7168 -0.3489 -0.1223
14314TIP3    H164357   3.547   0.096  13.899  0.1875  0.1420  0.4046
14314TIP3    H264358   3.558  -0.019  13.801 -1.6968  0.1557  0.1464
14315TIP3   OH264359   2.878   2.084  14.713 -0.0357  0.3020  0.3292
14315TIP3    H164360   2.871   2.086  14.618 -1.5207  1.4209  0.4305
14315TIP3    H264361   2.921   2.000  14.732 -0.3879 -0.2753 -1.2806
14316TIP3   OH264362   1.637   2.491  14.614  0.3763  0.1515 -0.3563
14316TIP3    H164363   1.634   2.546  14.536 -0.4750 -0.3100 -0.6671
14316TIP3    H264364   1.553   2.505  14.657 -0.2806 -1.5968 -0.9587
14317TIP3   OH264365   2.367   2.823  14.374  0.5384  0.5644  0.2664
14317TIP3    H164366   2.315   2.742  14.374 -0.4712  1.0876 -2.4218
14317TIP3    H264367   2.302   2.893  14.363  1.5217  1.5952  0.8584
14318TIP3   OH264368   6.296   3.850  11.909  0.4314  0.4263  0.3947
14318TIP3    H164369   6.345   3.899  11.842  1.1209  1.4130  1.5930
14318TIP3    H264370   6.285   3.763  11.871 -0.7054  1.4244 -1.7398
14319TIP3   OH264371   2.453   5.694  16.426  0.7641 -0.0617  0.0409
14319TIP3    H164372   2.397   5.716  16.500  0.2224  0.3144 -0.4692
14319TIP3    H264373   2.541   5.718  16.454  0.4293  1.0103  0.1944
14320TIP3   OH264374   0.144   0.910   4.061 -0.1729  0.1359 -0.5660
14320TIP3    H164375   0.151   0.837   3.999  0.0735  0.9478 -1.5009
14320TIP3    H264376   0.125   0.867   4.145  2.2426 -1.2128 -0.6138
14321TIP3   OH264377   0.962   6.503  13.024  0.3779 -0.3196 -0.1517
14321TIP3    H164378   0.893   6.468  13.080 -0.0650 -1.2260 -1.2085
14321TIP3    H264379   1.007   6.567  13.078 -1.9036  1.0451  0.2893
14322TIP3   OH264380   6.354   5.208   5.651 -0.8417  0.1259 -0.7961
14322TIP3    H164381   6.319   5.244   5.733 -0.5296 -2.1100  0.3874
14322TIP3    H264382   6.277   5.199   5.595 -1.5154 -0.7178  0.2195
14323TIP3   OH264383   3.591   6.171  11.303 -0.3220 -0.2731 -0.5093
14323TIP3    H164384   3.673   6.137  11.340 -1.1203 -0.4087  1.2504
14323TIP3    H264385   3.617   6.250  11.255  0.6813  0.6400  1.4211
14324TIP3   OH264386   3.691   5.382  14.550 -0.4130  0.1786  1.1382
14324TIP3    H164387   3.679   5.290  14.525 -0.0578  1.0391 -3.1295
14324TIP3    H264388   3.619   5.402  14.608 -1.4118 -2.4163  0.9047
14325TIP3   OH264389   1.051   4.874   0.669  0.1160  0.2580 -0.5019
14325TIP3    H164390   1.016   4.827   0.594 -0.7677  0.1161 -0.0149
14325TIP3    H264391   1.136   4.833   0.686 -0.7927 -1.4674  0.1517
14326TIP3   OH264392   3.970   0.654  12.078  0.0065  0.1737  0.5614
14326TIP3    H164393   3.945   0.707  12.002  2.2272 -0.1329 -0.4636
14326TIP3    H264394   3.887   0.631  12.120 -1.1673  2.2920 -0.4248
14327TIP3   OH264395   3.830   2.432   1.700 -0.2976  0.0345 -0.3153
14327TIP3    H164396   3.750   2.404   1.655 -0.0183 -1.6148  0.1264
14327TIP3    H264397   3.900   2.417   1.637 -0.3973  2.4163 -1.0591
14328TIP3   OH264398   6.403   4.604  11.842 -0.1584 -0.8715 -0.7364
14328TIP3    H164399   6.493   4.611  11.810  0.4882  1.3011  1.2032
14328TIP3    H264400   6.406   4.536  11.909  0.1837 -0.4927 -0.3586
14329TIP3   OH264401   1.044   4.971  11.439 -0.2902  0.1435 -0.0117
14329TIP3    H164402   0.958   4.969  11.480 -1.6346 -2.4124 -2.5622
14329TIP3    H264403   1.082   4.885  11.457  1.3715  0.8830  0.2535
14330TIP3   OH264404   1.323   2.005  15.887  0.3289  0.1662 -0.1594
14330TIP3    H164405   1.381   2.026  15.960 -0.6678 -0.7283  0.9334
14330TIP3    H264406   1.258   1.945  15.924 -1.4493  1.3066 -1.2672
14331TIP3   OH264407   2.589   0.662  16.019  0.6395  0.9426  0.5560
14331TIP3    H164408   2.604   0.615  16.101  2.6257  0.1302 -0.1987
14331TIP3    H264409   2.672   0.655  15.972 -0.3461  1.6303 -1.4040
14332TIP3   OH264410   3.574   1.731   4.942 -0.2564  0.5965 -0.5011
14332TIP3    H164411   3.526   1.652   4.967  1.2381  0.6604  3.0102
14332TIP3    H264412   3.645   1.700   4.887 -0.5292 -0.2933 -0.3585
14333TIP3   OH264413   3.445   4.753   3.009  0.3040 -0.5076  0.5087
14333TIP3    H164414   3.512   4.815   3.038  0.8746 -0.6762 -0.3933
14333TIP3    H264415   3.374   4.807   2.975  0.5142 -0.3393  0.3368
14334TIP3   OH264416   3.412   2.595  15.051  1.0530  0.0448 -0.0108
14334TIP3    H164417   3.393   2.520  14.995  0.0180  0.9048 -0.8669
14334TIP3    H264418   3.331   2.610  15.099  0.9795  1.0624 -0.4179
14335TIP3   OH264419   5.622   0.956   1.181 -0.4225  0.2218 -0.0189
14335TIP3    H164420   5.615   0.866   1.147  3.4202 -0.6491  1.0907
14335TIP3    H264421   5.548   0.963   1.242 -0.2990 -2.5649  0.6089
14336TIP3   OH264422   3.951   0.872   0.742 -0.4465  0.5388  0.1068
14336TIP3    H164423   3.892   0.848   0.813 -0.4246 -0.3089 -0.1488
14336TIP3    H264424   4.031   0.902   0.786 -0.9085  1.3106  0.4460
14337TIP3   OH264425   3.000   5.229   2.283 -0.3095  0.2464 -0.0889
14337TIP3    H164426   2.941   5.258   2.213 -1.5469 -0.5513  0.5783
14337TIP3    H264427   2.963   5.266   2.363 -0.0551 -0.4680  0.3700
14338TIP3   OH264428   2.974   4.713   0.845  0.0115  0.0443 -0.0507
14338TIP3    H164429   2.929   4.789   0.808  0.6180 -0.4095 -1.8137
14338TIP3    H264430   2.973   4.728   0.939 -1.9257  1.0892 -0.1814
14339TIP3   OH264431   2.515   3.958  16.776  0.4462 -0.0794  0.0141
14339TIP3    H164432   2.603   3.966  16.739  0.9841 -0.4361  1.1699
14339TIP3    H264433   2.500   4.041  16.820  0.7232 -0.4611  0.8604
14340TIP3   OH264434   4.061   3.976   4.975 -0.4428  0.1073 -0.3628
14340TIP3    H164435   4.146   4.010   5.004 -0.4041 -0.5229  0.2829
14340TIP3    H264436   4.070   3.881   4.983 -0.2275 -0.1695 -2.9890
14341TIP3   OH264437   4.875   0.397  11.819 -0.4459  0.0973 -0.9004
14341TIP3    H164438   4.784   0.412  11.794 -1.1720  1.2599  1.9900
14341TIP3    H264439   4.916   0.484  11.814 -0.1562  0.0292  0.0675
14342TIP3   OH264440   2.781   6.544  12.933  0.0043 -0.3749 -0.0138
14342TIP3    H164441   2.747   6.466  12.976  1.0275 -0.5818  0.4556
14342TIP3    H264442   2.778   6.612  13.000 -1.2358  0.1085 -0.5309
14343TIP3   OH264443   2.145   0.785   0.094  0.5425 -0.0975  0.2338
14343TIP3    H164444   2.186   0.776   0.179  1.8793  0.5757 -0.3152
14343TIP3    H264445   2.144   0.879   0.077  1.3326 -0.2831 -0.9739
14344TIP3   OH264446   3.466   0.111   6.479 -0.2889  0.6049 -0.2367
14344TIP3    H164447   3.503   0.140   6.396  0.4020  0.9034  0.1608
14344TIP3    H264448   3.528   0.143   6.545  0.3862 -1.5123  0.2449
14345TIP3   OH264449   6.389   1.705  13.445  0.3790  0.3764  0.4182
14345TIP3    H164450   6.366   1.764  13.374  2.0469  1.2287  0.5411
14345TIP3    H264451   6.460   1.749  13.491  1.7757 -1.7394  0.4495
14346TIP3   OH264452   3.849   2.638   2.120 -0.3175  0.7656 -0.7372
14346TIP3    H164453   3.918   2.689   2.162 -1.2511  1.4625 -0.0064
14346TIP3    H264454   3.773   2.696   2.120 -1.0527 -0.1737 -1.0390
14347TIP3   OH264455   2.911   5.177  16.575  0.2018  0.0274  0.0952
14347TIP3    H164456   2.981   5.136  16.626 -0.2164  0.0530  0.6941
14347TIP3    H264457   2.928   5.149  16.485  2.1747  1.6499 -0.1226
14348TIP3   OH264458   5.308   5.920  12.113 -0.3378 -0.6868  0.1101
14348TIP3    H164459   5.388   5.869  12.104 -0.3289 -0.5739 -0.4572
14348TIP3    H264460   5.307   5.977  12.037 -1.1727 -0.9868 -0.1108
14349TIP3   OH264461   0.852   6.421  14.644  0.4064  0.2774 -0.3755
14349TIP3    H164462   0.853   6.373  14.562  0.3036  0.3605 -0.4261
14349TIP3    H264463   0.795   6.496  14.627  0.3332  0.2595 -0.2090
14350TIP3   OH264464   0.946   2.761  12.609  0.1119  1.1686 -0.0373
14350TIP3    H164465   1.031   2.763  12.565 -0.3841  1.7372 -0.9984
14350TIP3    H264466   0.882   2.771  12.539 -0.6966  2.6064  0.8554
14351TIP3   OH264467   5.573   5.882  16.605 -0.2489  0.5455 -0.3440
14351TIP3    H164468   5.624   5.904  16.527 -0.8533  1.0648 -0.6007
14351TIP3    H264469   5.573   5.786  16.607  0.7217  0.5299 -0.3391
14352TIP3   OH264470   6.583   6.145   5.688 -0.0232 -0.2158 -0.0030
14352TIP3    H164471   6.502   6.166   5.735 -0.5241 -1.2361 -0.3908
14352TIP3    H264472   6.606   6.057   5.718  1.0260  0.1194  0.2026
14353TIP3   OH264473   3.275   5.504  13.455  0.3652  0.6464  0.1426
14353TIP3    H164474   3.325   5.427  13.484  3.1147  2.7334  1.4150
14353TIP3    H264475   3.268   5.492  13.360 -0.4101 -1.7391  0.4311
14354TIP3   OH264476   2.060   1.045  11.522  0.3909  0.6720 -0.3771
14354TIP3    H164477   1.977   1.009  11.491 -0.1013 -0.8447  2.3051
14354TIP3    H264478   2.118   0.969  11.529  2.3340  1.8007 -2.8555
14355TIP3   OH264479   3.456   0.450  13.543  0.7467 -0.1669 -0.8291
14355TIP3    H164480   3.389   0.511  13.576  2.7764  1.6182  0.2709
14355TIP3    H264481   3.416   0.364  13.553 -1.7323  0.8406 -1.1180
14356TIP3   OH264482   3.244   1.661  11.894  0.2432  0.4193  0.5026
14356TIP3    H164483   3.280   1.663  11.983  1.7689  0.2391 -0.0770
14356TIP3    H264484   3.156   1.625  11.904 -0.5646  2.6371  2.2251
14357TIP3   OH264485   5.162   1.524  12.480 -0.1357 -0.4444  0.0341
14357TIP3    H164486   5.238   1.485  12.437  0.0299  0.2608 -0.3291
14357TIP3    H264487   5.192   1.609  12.511  0.3883 -1.7876  3.5906
14358TIP3   OH264488   0.168   0.643  10.420 -0.1014 -0.0850  0.1399
14358TIP3    H164489   0.263   0.628  10.412 -0.1317  0.6410 -2.4904
14358TIP3    H264490   0.130   0.555  10.418  0.4515 -0.3412  0.4369
14359TIP3   OH264491   5.191   5.456  16.328 -0.4080 -0.3213  0.4448
14359TIP3    H164492   5.127   5.473  16.397  0.2562 -1.0006  1.2400
14359TIP3    H264493   5.242   5.382  16.360  1.0397  0.4536 -0.0054
14360TIP3   OH264494   5.835   5.081   0.426  0.3152  0.2066 -0.4821
14360TIP3    H164495   5.895   5.055   0.356  0.6268  0.0220 -0.1516
14360TIP3    H264496   5.826   5.003   0.480  0.5729  0.5222  0.0293
14361TIP3   OH264497   6.309   4.127   1.159  0.2784  0.2075  0.0796
14361TIP3    H164498   6.382   4.142   1.219 -0.0889  1.5545  0.2197
14361TIP3    H264499   6.330   4.179   1.082  0.4655 -1.0563 -0.7514
14362TIP3   OH264500   3.725   0.395  12.971  0.1159  0.0670 -0.3845
14362TIP3    H164501   3.661   0.376  12.903 -0.7206  1.9596 -0.1752
14362TIP3    H264502   3.809   0.397  12.925 -0.2325 -0.2189 -1.0555
14363TIP3   OH264503   1.826   1.010   2.890 -0.2605  0.0017  0.3682
14363TIP3    H164504   1.909   0.972   2.917 -0.3981 -0.7242 -0.1865
14363TIP3    H264505   1.760   0.947   2.918 -0.3275 -1.5385 -2.7658
14364TIP3   OH264506   0.751   0.558   1.907 -0.4148  0.0597  0.2696
14364TIP3    H164507   0.691   0.540   1.980  1.6547  0.3013  2.1403
14364TIP3    H264508   0.804   0.479   1.900  0.8361  0.8460  0.5264
14365TIP3   OH264509   2.929   2.917   5.039 -0.2929  0.1529 -0.2942
14365TIP3    H164510   2.939   2.947   4.948  0.8898  0.7927  0.0291
14365TIP3    H264511   3.017   2.917   5.074 -0.3665 -2.6463  0.1059
14366TIP3   OH264512   2.541   2.763  15.762 -0.1009  0.0107  0.3015
14366TIP3    H164513   2.591   2.693  15.804 -0.5988 -0.3827  0.2417
14366TIP3    H264514   2.603   2.836  15.756  0.5799 -0.5858 -0.0977
14367TIP3   OH264515   1.973   3.690  16.633 -0.2952 -0.2830  0.1446
14367TIP3    H164516   1.997   3.711  16.723  1.2291  4.5140 -1.0744
14367TIP3    H264517   1.879   3.672  16.636 -0.0741 -1.3560  2.7649
14368TIP3   OH264518   5.611   3.690  11.088 -0.1950 -0.2007 -0.0125
14368TIP3    H164519   5.540   3.725  11.034  0.8715  2.7546  0.3385
14368TIP3    H264520   5.593   3.722  11.176  0.1461 -1.7454  0.6470
14369TIP3   OH264521   1.087   1.855  10.430  0.7022 -0.1820 -0.6534
14369TIP3    H164522   1.060   1.947  10.425 -0.6042 -0.3359  1.9491
14369TIP3    H264523   1.034   1.812  10.362 -1.1894  0.5169  0.2946
14370TIP3   OH264524   5.313   1.963   5.640 -0.8571  0.3200  0.3357
14370TIP3    H164525   5.279   2.032   5.582  0.4195 -0.4292 -1.4082
14370TIP3    H264526   5.268   1.977   5.723 -2.3277  1.8375 -0.6488
14371TIP3   OH264527   3.829   6.550  13.446  0.8093 -0.6380 -0.3070
14371TIP3    H164528   3.821   6.499  13.365 -0.2611 -1.5547  0.3460
14371TIP3    H264529   3.920   6.578  13.447  0.1824  2.2268 -3.4784
14372TIP3   OH264530   3.615   2.655  11.688 -0.4452 -0.2875 -0.6049
14372TIP3    H164531   3.670   2.606  11.627 -1.2648 -0.8968 -0.8803
14372TIP3    H264532   3.609   2.598  11.766 -0.5178 -0.1404 -0.5024
14373TIP3   OH264533   2.609   5.842   3.594 -0.2890  0.6475 -0.7041
14373TIP3    H164534   2.632   5.753   3.568  0.4081  0.1694  1.3485
14373TIP3    H264535   2.515   5.840   3.609 -0.1034 -0.1058  0.4997
14374TIP3   OH264536   6.285   2.578  10.589 -0.0371 -0.8210  0.1440
14374TIP3    H164537   6.345   2.592  10.662 -0.7360  0.4696  0.4981
14374TIP3    H264538   6.244   2.663  10.575 -1.7314 -1.6431 -0.1374
14375TIP3   OH264539   3.963   1.077  15.234 -0.4767  0.9546  0.4488
14375TIP3    H164540   4.049   1.035  15.230 -1.3235 -0.7756 -0.7467
14375TIP3    H264541   3.929   1.073  15.145 -2.8769 -0.8472  1.3246
14376TIP3   OH264542   6.140   3.930   3.049 -0.0662 -0.4138  0.3193
14376TIP3    H164543   6.046   3.927   3.064 -0.1085  0.7327  0.3314
14376TIP3    H264544   6.169   4.010   3.092  0.6340  0.1701 -1.1935
14377TIP3   OH264545   3.588   1.460  13.653 -0.3255 -0.4362 -0.4408
14377TIP3    H164546   3.656   1.526  13.664  0.5296 -1.2143 -0.8949
14377TIP3    H264547   3.574   1.456  13.558 -0.4689 -0.7943 -0.4057
14378TIP3   OH264548   2.860   2.237  12.289 -0.2246  0.2362  0.1436
14378TIP3    H164549   2.846   2.257  12.382 -2.3100 -0.3587  0.0183
14378TIP3    H264550   2.951   2.208  12.283  0.4546  1.9028  1.6919
14379TIP3   OH264551   2.958   0.670  11.744 -0.2883  0.5494  0.2142
14379TIP3    H164552   2.877   0.717  11.764 -0.5538  0.1084  0.1779
14379TIP3    H264553   3.018   0.697  11.814 -1.0550 -0.5884  1.3685
14380TIP3   OH264554   1.648   3.779  14.996 -0.0316 -0.1887  0.2799
14380TIP3    H164555   1.739   3.782  14.967 -0.1305 -0.8312 -0.1123
14380TIP3    H264556   1.634   3.863  15.041  1.7081 -1.3432  3.2526
14381TIP3   OH264557   6.419   3.773  14.888 -0.1172 -0.6994 -0.1465
14381TIP3    H164558   6.450   3.819  14.811 -0.2028  0.8379  0.6964
14381TIP3    H264559   6.329   3.748  14.867 -0.0568 -0.5158 -0.6268
14382TIP3   OH264560   4.273   1.757  14.995 -0.5152 -0.3495 -0.0358
14382TIP3    H164561   4.318   1.700  15.058  0.9566  0.8404  0.0473
14382TIP3    H264562   4.189   1.777  15.036 -0.0328 -0.4762  1.0472
14383TIP3   OH264563   4.649   6.099  11.547 -0.1566 -0.3152  0.1058
14383TIP3    H164564   4.579   6.153  11.510 -1.7830 -2.1649  0.3683
14383TIP3    H264565   4.694   6.063  11.470 -0.2443 -0.0870 -0.0552
14384TIP3   OH264566   1.843   3.956  13.786 -0.5251  0.0513  0.0669
14384TIP3    H164567   1.890   4.009  13.722  0.1588 -1.1313 -0.4523
14384TIP3    H264568   1.794   3.892  13.734 -0.4167 -0.5580  0.6906
14385TIP3   OH264569   5.806   4.002  11.947 -0.3741  0.2370 -0.1128
14385TIP3    H164570   5.863   4.024  11.873 -1.1371 -2.7032 -1.7040
14385TIP3    H264571   5.723   4.044  11.927 -0.0889  0.8918  0.0176
14386TIP3   OH264572   5.414   6.008   4.188  0.0927  0.5733  0.4504
14386TIP3    H164573   5.458   5.958   4.119 -1.6480  0.6020 -0.7511
14386TIP3    H264574   5.472   6.082   4.205  1.2791 -0.2513  0.0984
14387TIP3   OH264575   0.144   4.970  13.748  0.1519 -0.3223 -0.4485
14387TIP3    H164576   0.228   4.930  13.729  0.1106 -0.9966  0.7133
14387TIP3    H264577   0.132   5.035  13.678  1.7686  0.0037 -0.4580
14388TIP3   OH264578   4.713   4.545   2.044  0.1017 -0.1648 -0.4750
14388TIP3    H164579   4.794   4.500   2.069  0.2345 -0.2107 -0.9816
14388TIP3    H264580   4.683   4.499   1.966 -0.5789 -0.3380 -0.1171
14389TIP3   OH264581   5.154   0.957   6.605 -0.2194  0.1015  0.7874
14389TIP3    H164582   5.226   0.932   6.547 -0.8158 -2.0299  0.8954
14389TIP3    H264583   5.178   1.044   6.637  1.4224  0.1868 -0.5603
14390TIP3   OH264584   2.040   3.269  15.544 -0.0834  0.0414  0.3505
14390TIP3    H164585   2.129   3.263  15.580 -0.1074 -2.2645  0.1724
14390TIP3    H264586   2.050   3.320  15.464  1.2304 -0.7986 -0.0476
14391TIP3   OH264587   5.417   3.729  12.743  0.1827 -0.1184  0.6423
14391TIP3    H164588   5.405   3.804  12.802  3.9013  1.2439 -0.0747
14391TIP3    H264589   5.420   3.768  12.656 -0.7843 -1.5641 -0.0831
14392TIP3   OH264590   1.212   3.266  12.050 -0.6111 -0.0080 -0.2719
14392TIP3    H164591   1.157   3.310  12.114 -1.8100 -0.3349 -1.0593
14392TIP3    H264592   1.266   3.336  12.012  2.1074 -0.1256  2.9043
14393TIP3   OH264593   2.492   1.313  12.966 -0.0276 -0.3776  0.4331
14393TIP3    H164594   2.404   1.280  12.946  0.7210 -1.9836 -0.3901
14393TIP3    H264595   2.491   1.404  12.937 -1.4080 -0.3652  0.4469
14394TIP3   OH264596   0.664   0.012  16.995  0.1592 -0.1359 -0.4267
14394TIP3    H164597   0.708   0.086  17.036  0.4947  0.3926 -1.6854
14394TIP3    H264598   0.723  -0.062  17.010 -0.1865 -0.1598  0.8485
14395TIP3   OH264599   2.731   0.964   3.407  0.0933 -0.2280 -0.1534
14395TIP3    H164600   2.724   0.896   3.474 -2.3521 -0.4969 -0.5710
14395TIP3    H264601   2.733   1.046   3.455  0.5602 -0.4983  0.2912
14396TIP3   OH264602   6.470   6.126   1.391 -0.0927 -0.1328  0.0503
14396TIP3    H164603   6.502   6.038   1.374 -1.7424 -0.9442  0.9517
14396TIP3    H264604   6.539   6.168   1.443  0.2659 -1.2047  0.4478
14397TIP3   OH264605   6.773   6.343   2.765 -0.5398 -0.4752  0.9646
14397TIP3    H164606   6.850   6.316   2.814 -0.3603 -2.5263 -0.3610
14397TIP3    H264607   6.807   6.403   2.698  0.0363 -1.8620 -0.0177
14398TIP3   OH264608   3.033   1.576   5.702 -0.2972  0.0746 -0.2245
14398TIP3    H164609   3.042   1.526   5.620 -0.2947  0.8729 -0.7253
14398TIP3    H264610   2.946   1.551   5.735 -0.1968 -0.4409 -0.3368
14399TIP3   OH264611   3.025   1.902  16.892 -0.7904  0.3440 -0.1255
14399TIP3    H164612   3.111   1.942  16.901 -1.2660  1.7006 -1.2615
14399TIP3    H264613   2.963   1.975  16.891 -2.0202 -0.6182  1.0192
14400TIP3   OH264614   4.159   4.954  14.011 -0.1313 -0.1956 -0.0172
14400TIP3    H164615   4.096   5.015  13.973  1.9398  1.1912 -1.4800
14400TIP3    H264616   4.219   5.010  14.061 -0.9639 -1.6528  2.8077
14401TIP3   OH264617   3.082   5.876   0.073  0.3065  0.0331 -0.2918
14401TIP3    H164618   3.104   5.947   0.133 -0.5164  0.8244 -0.9108
14401TIP3    H264619   3.091   5.797   0.126 -0.4197  0.7082  0.8793
14402TIP3   OH264620   0.765   6.605   2.736 -0.1796 -0.0860 -0.2340
14402TIP3    H164621   0.671   6.587   2.728 -0.2669 -0.4491  1.3764
14402TIP3    H264622   0.803   6.564   2.658 -1.1493 -1.5478  0.0117
14403TIP3   OH264623   2.452   5.049   6.076 -0.5930  0.2008  0.1029
14403TIP3    H164624   2.450   5.112   6.148 -2.0426 -0.6032  0.8268
14403TIP3    H264625   2.364   5.055   6.038 -0.4263 -0.6731 -0.4366
14404TIP3   OH264626   3.951   3.184   3.269  0.1732  0.3860 -0.0015
14404TIP3    H164627   3.947   3.219   3.358  0.6149 -0.1574  0.2406
14404TIP3    H264628   3.954   3.262   3.213 -1.4191  0.7437  0.3662
14405TIP3   OH264629   3.939   3.025  15.083  0.6107  0.6877 -0.0719
14405TIP3    H164630   4.030   3.053  15.084  0.3993  1.3950  0.2894
14405TIP3    H264631   3.919   3.010  14.991  2.2942 -3.6525  0.0352
14406TIP3   OH264632   3.266   2.261  13.528 -0.6881 -0.0225  0.3609
14406TIP3    H164633   3.182   2.265  13.573 -0.6164  1.8956  0.4147
14406TIP3    H264634   3.254   2.313  13.449  0.1033 -0.7308 -0.2433
14407TIP3   OH264635   0.361   0.276   4.677  0.0304 -0.2368 -0.4962
14407TIP3    H164636   0.441   0.259   4.627 -0.5677 -0.0065 -1.5565
14407TIP3    H264637   0.318   0.190   4.684  0.7169 -0.5067  0.7326
14408TIP3   OH264638   5.278   6.366  10.304  0.0463  0.0367  0.3322
14408TIP3    H164639   5.256   6.321  10.222  1.0758  0.7340 -0.3500
14408TIP3    H264640   5.358   6.325  10.334 -0.9764 -1.0651  1.6926
14409TIP3   OH264641   5.781   2.627   3.769 -0.4316  0.5868  0.4806
14409TIP3    H164642   5.819   2.628   3.681  1.2158  0.4482  1.1657
14409TIP3    H264643   5.829   2.559   3.815  0.7290  2.5580  2.3204
14410TIP3   OH264644   2.298   1.236  14.150 -0.2567 -0.2162 -0.1939
14410TIP3    H164645   2.316   1.299  14.220  1.2516 -0.4170 -0.3770
14410TIP3    H264646   2.240   1.284  14.090 -1.1804  0.1248  0.9103
14411TIP3   OH264647   6.463   2.814  13.448 -0.0636  0.5664  0.4705
14411TIP3    H164648   6.523   2.872  13.400  1.2381 -0.1309  1.1994
14411TIP3    H264649   6.437   2.865  13.525  0.3492  0.5220  0.6405
14412TIP3   OH264650   3.610   6.262  15.553 -0.2933  0.3190 -0.3936
14412TIP3    H164651   3.567   6.317  15.619  0.1732  0.7190 -0.4208
14412TIP3    H264652   3.549   6.189  15.540  0.0463 -0.3004  1.2157
14413TIP3   OH264653   0.253   4.804  15.578 -0.3211 -0.1034  0.1211
14413TIP3    H164654   0.301   4.772  15.501 -1.5807  0.4776 -0.9507
14413TIP3    H264655   0.303   4.881  15.606 -0.1120 -0.0393 -0.4082
14414TIP3   OH264656   5.243   6.462   5.520  0.6709  0.2974  0.1568
14414TIP3    H164657   5.253   6.530   5.587  0.6237  0.8955 -0.4365
14414TIP3    H264658   5.202   6.507   5.446  0.5644 -0.3981 -0.2116
14415TIP3   OH264659   6.803   0.326   0.996  0.3316 -0.1126  0.0736
14415TIP3    H164660   6.819   0.417   1.019  2.2056 -0.1347 -0.9327
14415TIP3    H264661   6.848   0.314   0.913  1.2451 -2.2667  0.8022
14416TIP3   OH264662   2.462   1.645   6.625 -0.7808 -0.3377  0.0151
14416TIP3    H164663   2.513   1.671   6.548 -0.6059  0.5817  0.4248
14416TIP3    H264664   2.520   1.586   6.674 -0.2433  0.3994  0.2821
14417TIP3   OH264665   0.909   1.853   0.741  0.4395  0.4499  0.1151
14417TIP3    H164666   0.832   1.812   0.780  0.8377 -0.1579  0.2742
14417TIP3    H264667   0.962   1.781   0.709  0.7273  0.8871 -0.4186
14418TIP3   OH264668   0.328   1.692   1.752 -0.2670 -0.0594 -0.1861
14418TIP3    H164669   0.402   1.688   1.813  0.6764  0.6052 -1.2393
14418TIP3    H264670   0.298   1.782   1.757 -0.4269 -0.0991 -0.4260
14419TIP3   OH264671   5.500   0.766  14.331 -0.2975 -0.1352 -0.2102
14419TIP3    H164672   5.535   0.830  14.392 -0.3886 -1.0726  0.8583
14419TIP3    H264673   5.542   0.787  14.247  0.4640  0.6548  0.3517
14420TIP3   OH264674   3.085   3.991   0.549  0.1541  0.1947  0.0791
14420TIP3    H164675   3.168   3.951   0.525  1.3032  1.4024  1.8270
14420TIP3    H264676   3.100   4.086   0.541 -1.8514  0.4451 -1.9439
14421TIP3   OH264677   2.300   0.454   4.041 -0.2133 -0.2046  0.2057
14421TIP3    H164678   2.243   0.438   4.116 -0.5079 -1.5701 -0.2934
14421TIP3    H264679   2.348   0.534   4.065 -1.2207  0.1112  1.2810
14422TIP3   OH264680   1.540   6.809  16.759  0.2127 -0.6088 -0.3637
14422TIP3    H164681   1.552   6.714  16.758 -0.7156 -0.7362 -0.1628
14422TIP3    H264682   1.468   6.824  16.697  1.4195  0.1319 -1.6469
14423TIP3   OH264683   3.618   0.103  16.200 -0.3842 -0.4607  0.3244
14423TIP3    H164684   3.572   0.187  16.196  0.2225 -0.1319  0.2480
14423TIP3    H264685   3.558   0.046  16.249 -1.4340 -0.4060 -0.8362
14424TIP3   OH264686   2.999   2.397   2.198  0.4417 -0.3393  0.1763
14424TIP3    H164687   2.998   2.391   2.103  0.0091 -0.8580  0.2077
14424TIP3    H264688   3.028   2.311   2.228  0.2456 -0.2899  0.5180
14425TIP3   OH264689   5.861   4.003  16.388 -0.1843 -0.0273 -0.2729
14425TIP3    H164690   5.773   3.990  16.425 -0.2435  0.5548 -0.2099
14425TIP3    H264691   5.903   4.064  16.449  1.0064 -1.9073  0.8984
14426TIP3   OH264692   5.746   3.832   5.605 -0.4622 -0.1613  0.5364
14426TIP3    H164693   5.686   3.906   5.606 -1.1742 -0.7351  1.0720
14426TIP3    H264694   5.784   3.834   5.516  0.1663  1.3142  0.7998
14427TIP3   OH264695   4.743   4.429   0.640 -0.1075 -0.0868 -0.7186
14427TIP3    H164696   4.713   4.442   0.550 -0.4721  0.3622 -0.5370
14427TIP3    H264697   4.727   4.513   0.682  0.3893 -0.1872 -0.3272
14428TIP3   OH264698   2.578   2.094   2.077  0.0999 -0.8942 -0.0520
14428TIP3    H164699   2.591   2.076   1.984 -0.7934  0.2403 -0.4184
14428TIP3    H264700   2.576   2.008   2.118  3.1472 -1.3791 -0.6649
14429TIP3   OH264701   5.364   3.525  16.242  0.1751  0.2217 -0.2153
14429TIP3    H164702   5.385   3.592  16.176  1.3952  0.6067  0.5324
14429TIP3    H264703   5.332   3.451  16.191  0.7814  0.6282 -1.2342
14430TIP3   OH264704   4.764   5.009  11.148  0.0015  0.0006  0.6107
14430TIP3    H164705   4.741   5.060  11.226  1.2630 -0.0831  1.0615
14430TIP3    H264706   4.691   5.023  11.088 -0.9879  0.0967  1.7845
14431TIP3   OH264707   6.255   5.817  14.728  0.0349 -0.4685  0.7233
14431TIP3    H164708   6.204   5.773  14.796  0.2921  1.5194  2.2869
14431TIP3    H264709   6.345   5.816  14.761  0.4009 -0.6284 -0.2310
14432TIP3   OH264710   0.521   0.532  14.868  0.4524  0.1278  0.5595
14432TIP3    H164711   0.545   0.541  14.960 -0.1659 -0.4889  0.7951
14432TIP3    H264712   0.572   0.457  14.837  0.5933  0.2798  0.4234
14433TIP3   OH264713   2.849   3.872  12.355  0.0697  0.4548 -0.7554
14433TIP3    H164714   2.789   3.921  12.299  0.3400  1.4199 -0.2146
14433TIP3    H264715   2.898   3.816  12.294 -1.7104 -0.7577 -1.1647
14434TIP3   OH264716   4.960   5.184   1.254  0.2723 -0.3036 -0.4008
14434TIP3    H164717   4.993   5.192   1.343  0.9681 -1.3436 -0.5417
14434TIP3    H264718   4.892   5.116   1.259  1.2973 -1.3928 -0.8932
14435TIP3   OH264719   6.577   6.164   3.102 -0.0301  0.4112 -0.4202
14435TIP3    H164720   6.548   6.247   3.139 -2.9222 -0.4549 -0.5552
14435TIP3    H264721   6.576   6.103   3.176 -0.7512 -0.1506 -0.8834
14436TIP3   OH264722   1.667   2.309  11.404 -0.0086  0.6831 -0.3830
14436TIP3    H164723   1.639   2.334  11.316  0.5033 -0.9285 -1.0416
14436TIP3    H264724   1.746   2.361  11.419  1.6653 -1.1632 -2.1668
14437TIP3   OH264725   2.994   3.513   1.907  0.2216 -0.2864  0.1547
14437TIP3    H164726   3.035   3.507   1.993 -0.6353 -0.7471  0.5497
14437TIP3    H264727   2.919   3.571   1.920  0.7655  0.6020 -0.5705
14438TIP3   OH264728   0.997   6.249  15.608  1.0881  0.1648  0.1139
14438TIP3    H164729   0.918   6.200  15.630  0.0721  1.5077 -0.3926
14438TIP3    H264730   0.966   6.325  15.559  2.9518 -0.9312 -3.0497
14439TIP3   OH264731   5.176   6.575   1.824 -0.6990 -0.0431  0.3725
14439TIP3    H164732   5.204   6.557   1.734 -0.6566  1.6840  0.0118
14439TIP3    H264733   5.238   6.526   1.878 -0.0472 -0.2294 -0.5131
14440TIP3   OH264734   2.141   5.637  13.067 -0.1542  0.4778 -0.2743
14440TIP3    H164735   2.129   5.543  13.056 -0.0463  0.6846 -2.5768
14440TIP3    H264736   2.235   5.647  13.086  0.2918  0.2401 -2.2076
14441TIP3   OH264737   3.292   5.491  16.998  0.2637 -0.3453 -0.2593
14441TIP3    H164738   3.351   5.545  17.051  1.0393  0.6134 -2.0013
14441TIP3    H264739   3.348   5.424  16.960  0.0899  0.0483 -1.2463
14442TIP3   OH264740   1.003   5.884  11.963  0.3132  0.1492 -0.1056
14442TIP3    H164741   1.008   5.977  11.940 -1.6371  0.1967 -0.5274
14442TIP3    H264742   1.021   5.838  11.881  1.2499  0.1186  0.0976
14443TIP3   OH264743   1.220   3.573  13.977  0.4429  0.3472 -0.2397
14443TIP3    H164744   1.137   3.529  13.961  0.7387 -0.4137  0.2589
14443TIP3    H264745   1.216   3.652  13.923 -0.6491  0.3840 -0.1270
14444TIP3   OH264746   3.981   3.906  10.644  0.3108 -0.4185  0.1953
14444TIP3    H164747   4.058   3.873  10.598  0.0260 -1.7712  0.6498
14444TIP3    H264748   4.015   3.977  10.699  1.0231 -0.2429 -0.4469
14445TIP3   OH264749   4.432   5.415   0.754 -0.2809 -0.5422 -0.1090
14445TIP3    H164750   4.421   5.510   0.745  2.7672  0.1717  2.0713
14445TIP3    H264751   4.360   5.388   0.810 -0.9178  0.5648 -0.3550
14446TIP3   OH264752   6.249   3.587  11.408 -0.0937 -0.0247  0.3130
14446TIP3    H164753   6.317   3.648  11.381 -0.0756  0.0194  0.4568
14446TIP3    H264754   6.287   3.538  11.482  0.2854 -0.9565 -0.4775
14447TIP3   OH264755   6.683   1.463  13.874  0.3113  0.3705 -0.1279
14447TIP3    H164756   6.590   1.483  13.875  0.0545 -0.3545 -2.5431
14447TIP3    H264757   6.725   1.541  13.910 -1.1631  1.1033  0.0703
14448TIP3   OH264758   0.566   4.671  13.686  0.8886 -0.1765 -0.0345
14448TIP3    H164759   0.628   4.646  13.618  0.4122 -0.0282 -0.5326
14448TIP3    H264760   0.567   4.598  13.748  0.3281 -0.9406 -0.9013
14449TIP3   OH264761   4.979   1.991   0.052 -0.0437 -0.0765 -0.2613
14449TIP3    H164762   4.951   1.976   0.142  1.7776  0.3688  0.4357
14449TIP3    H264763   5.059   1.939   0.042 -0.1925 -0.0968 -1.6167
14450TIP3   OH264764   4.413   5.266  15.369 -0.6603  0.0689  0.5295
14450TIP3    H164765   4.451   5.333  15.427  1.0798 -0.9254  0.5862
14450TIP3    H264766   4.488   5.221  15.332 -1.7942 -1.4940  0.0426
14451TIP3   OH264767   3.310   0.682  12.209 -0.0767  0.1397  0.1645
14451TIP3    H164768   3.286   0.744  12.278 -0.1209 -0.8583  1.0709
14451TIP3    H264769   3.396   0.650  12.234 -0.7927 -1.4733  0.6857
14452TIP3   OH264770   1.997   0.398   3.360 -0.8522  0.1080  0.1785
14452TIP3    H164771   1.966   0.379   3.271 -0.9814 -1.0199  0.4577
14452TIP3    H264772   2.044   0.320   3.387 -1.3459  0.1964  1.3396
14453TIP3   OH264773   4.651   0.624   0.930 -0.0292 -0.3073 -0.0394
14453TIP3    H164774   4.736   0.645   0.891  0.8341 -1.9367  0.8499
14453TIP3    H264775   4.665   0.542   0.976 -1.6751  0.2143  1.5396
14454TIP3   OH264776   4.254   3.392  14.598 -0.0371 -0.2685 -0.2902
14454TIP3    H164777   4.297   3.444  14.665 -2.3548  2.3845 -0.6503
14454TIP3    H264778   4.240   3.307  14.638 -0.4776  0.9260  2.2705
14455TIP3   OH264779   6.746   4.531  16.129 -0.0654 -0.3449 -0.5922
14455TIP3    H164780   6.748   4.611  16.076  0.1147  0.0708  0.0271
14455TIP3    H264781   6.702   4.557  16.209 -2.0751 -1.4522 -1.2807
14456TIP3   OH264782   4.923   0.898  14.351  0.0173  0.4738  0.0532
14456TIP3    H164783   4.987   0.956  14.309 -0.6321  0.5974 -0.7956
14456TIP3    H264784   4.838   0.939  14.333 -0.2856  0.7511  1.8591
14457TIP3   OH264785   4.341   0.905   3.956  0.1579  0.1041  0.0263
14457TIP3    H164786   4.315   0.833   3.899  1.4927 -0.8178  0.5506
14457TIP3    H264787   4.306   0.882   4.042  1.8863 -0.7336  0.5491
14458TIP3   OH264788   2.013   1.491  11.306 -0.3291 -0.3081  1.0811
14458TIP3    H164789   1.972   1.491  11.220 -0.0639 -0.7187  0.9547
14458TIP3    H264790   2.047   1.580  11.316  1.2287 -0.7392 -0.0062
14459TIP3   OH264791   4.924   5.627   3.492 -0.0063 -0.9736  0.4390
14459TIP3    H164792   4.901   5.703   3.546 -0.7907 -0.6669 -0.3038
14459TIP3    H264793   5.005   5.593   3.531 -0.6464 -0.8746  1.9167
14460TIP3   OH264794   5.757   1.645  15.043 -0.0280  0.1272  0.5200
14460TIP3    H164795   5.719   1.564  15.010 -0.8754 -0.6348  3.1263
14460TIP3    H264796   5.687   1.710  15.034 -0.7964 -0.4408  2.1024
14461TIP3   OH264797   6.334   4.910  11.103 -0.3076  0.1231 -0.2879
14461TIP3    H164798   6.413   4.858  11.088 -2.3182 -2.9136 -1.4396
14461TIP3    H264799   6.286   4.906  11.021 -2.5234  0.2043  0.9073
14462TIP3   OH264800   0.215   5.082  14.946 -0.2963  0.1027 -0.5365
14462TIP3    H164801   0.213   5.104  15.039 -0.1067 -2.4062  0.1470
14462TIP3    H264802   0.150   5.140  14.906 -3.0728 -1.1192  1.7778
14463TIP3   OH264803   4.587   6.673   0.896 -0.3419 -0.2263  0.3531
14463TIP3    H164804   4.520   6.635   0.840 -0.3206  0.7299 -0.3501
14463TIP3    H264805   4.564   6.766   0.901  0.9449  0.1265  0.0643
14464TIP3   OH264806   0.776   0.393   1.559  0.3864  0.3316 -0.9416
14464TIP3    H164807   0.718   0.438   1.621  1.6286  1.4216 -0.5156
14464TIP3    H264808   0.748   0.425   1.474 -0.3059  0.0407 -0.8342
14465TIP3   OH264809   0.073   1.710   0.821  0.2613 -0.5870 -0.5046
14465TIP3    H164810   0.055   1.804   0.824  2.1683 -0.1370 -1.5106
14465TIP3    H264811   0.065   1.687   0.729 -1.5384 -1.7408 -0.0941
14466TIP3   OH264812   2.295   3.294  16.439 -0.6941  0.4589 -0.1464
14466TIP3    H164813   2.310   3.341  16.357  0.5970  0.5392  0.1102
14466TIP3    H264814   2.299   3.361  16.507  0.3202  0.1380  0.1450
14467TIP3   OH264815   4.835   5.567  14.581  0.3003  0.1221  0.0412
14467TIP3    H164816   4.900   5.536  14.643  0.5613 -0.1147 -0.3408
14467TIP3    H264817   4.865   5.655  14.556  0.7218 -0.1512 -0.4571
14468TIP3   OH264818   4.676   1.631  14.686 -0.5352 -0.5267  0.2677
14468TIP3    H164819   4.748   1.604  14.744 -1.0103 -1.0112  0.6519
14468TIP3    H264820   4.611   1.562  14.697 -0.7969 -0.4197 -0.5601
14469TIP3   OH264821   4.262   4.467   1.254  0.1371  0.1591  0.2424
14469TIP3    H164822   4.283   4.430   1.168  0.5636 -0.7257  0.7124
14469TIP3    H264823   4.324   4.539   1.265 -0.9582  1.3186 -0.8518
14470TIP3   OH264824   1.767   1.467  11.849 -0.1344 -0.1313 -0.4625
14470TIP3    H164825   1.724   1.415  11.781  2.5038 -0.1782 -2.2442
14470TIP3    H264826   1.841   1.414  11.877  1.0253  1.4773 -0.3137
14471TIP3   OH264827   1.608   0.554   2.828  0.3889 -0.0994 -1.0849
14471TIP3    H164828   1.534   0.496   2.848  0.8770 -0.0738  1.1090
14471TIP3    H264829   1.680   0.494   2.811  1.1049 -0.2994  2.0021
14472TIP3   OH264830   3.780   2.656   3.600  0.0233 -0.0098  0.0645
14472TIP3    H164831   3.856   2.695   3.644  0.2912 -0.8868  0.3845
14472TIP3    H264832   3.714   2.647   3.669 -0.0390 -0.1365 -0.0106
14473TIP3   OH264833   2.629   1.081   0.112  0.1430  0.6565 -0.2316
14473TIP3    H164834   2.545   1.121   0.134  0.0882  0.9804 -1.0005
14473TIP3    H264835   2.608   1.016   0.046  0.5778  1.2037 -0.9228
14474TIP3   OH264836   1.115   5.824   4.767 -0.1500 -0.1277  0.6724
14474TIP3    H164837   1.158   5.862   4.691 -0.5281  0.2034  0.6209
14474TIP3    H264838   1.187   5.793   4.822  0.1116 -2.9466 -1.0720
14475TIP3   OH264839   1.574   1.518  12.661 -0.0090 -0.4735 -0.1618
14475TIP3    H164840   1.507   1.575  12.698  0.5039  0.0789 -0.0828
14475TIP3    H264841   1.637   1.505  12.732  0.1775 -0.6655 -0.3617
14476TIP3   OH264842   2.819   4.210   1.367 -0.5085 -1.1803 -0.0387
14476TIP3    H164843   2.886   4.195   1.433  0.8598  0.0163 -1.0953
14476TIP3    H264844   2.794   4.302   1.378 -0.5382 -1.0723 -0.9147
14477TIP3   OH264845   5.262   4.385   5.251 -0.2984 -0.3260  0.2979
14477TIP3    H164846   5.175   4.406   5.283 -0.1130  0.5407  0.2733
14477TIP3    H264847   5.302   4.470   5.233 -0.3909 -0.7198 -2.2358
14478TIP3   OH264848   5.126   0.743   4.373  0.2279 -0.5754  0.0001
14478TIP3    H164849   5.211   0.783   4.389 -0.6391  0.7925  1.4467
14478TIP3    H264850   5.106   0.765   4.282 -0.6385  3.3557  0.9472
14479TIP3   OH264851   0.829   1.344  10.409  0.7834 -0.0310  0.0075
14479TIP3    H164852   0.781   1.292  10.474  1.0722 -1.1535 -0.6548
14479TIP3    H264853   0.763   1.366  10.343  0.3483  1.6244  0.9415
14480TIP3   OH264854   2.702   2.918   5.198 -0.3185 -0.2623 -0.0199
14480TIP3    H164855   2.748   2.902   5.281 -1.9407 -1.9393  0.6319
14480TIP3    H264856   2.772   2.934   5.135  0.9917  0.4919  1.5409
14481TIP3   OH264857   4.197   5.373   3.827  0.0079 -0.4301 -0.3410
14481TIP3    H164858   4.243   5.437   3.773 -0.9371  0.6645  0.1138
14481TIP3    H264859   4.248   5.367   3.908  0.6663 -1.0495 -0.7868
14482TIP3   OH264860   6.288   2.899   1.111 -0.0173 -0.6032  0.3136
14482TIP3    H164861   6.269   2.889   1.204  0.2169  2.5165  0.8289
14482TIP3    H264862   6.378   2.868   1.101  0.8002  1.1046  1.7054
14483TIP3   OH264863   1.986   5.338  16.087 -0.2502  0.4236 -0.0377
14483TIP3    H164864   2.005   5.315  15.996  2.6796  0.1744  0.5246
14483TIP3    H264865   1.958   5.429  16.083 -0.2434  0.3956 -1.2178
14484TIP3   OH264866   0.938   3.610  12.184  0.1348  0.1158  0.3873
14484TIP3    H164867   0.959   3.576  12.097  1.3944 -1.8885  1.3977
14484TIP3    H264868   0.988   3.692  12.191  0.4025  0.0468 -0.5843
14485TIP3   OH264869   4.211   0.980   0.888 -0.3133 -0.0936  0.2406
14485TIP3    H164870   4.176   1.053   0.838 -2.2788 -0.6906  0.6464
14485TIP3    H264871   4.184   0.998   0.978  1.3021 -0.1119  0.7548
14486TIP3   OH264872   0.040   5.308  10.537 -0.0796 -0.0662 -0.0589
14486TIP3    H164873   0.104   5.379  10.528 -0.1459  0.0225  0.1561
14486TIP3    H264874   0.004   5.297  10.449  1.1933 -1.0392 -0.4923
14487TIP3   OH264875   0.053   0.873   3.227  0.5997  0.1498  0.5556
14487TIP3    H164876  -0.027   0.904   3.270  0.5048  1.3502 -0.4271
14487TIP3    H264877   0.033   0.783   3.201 -0.9022  0.8050 -0.7078
14488TIP3   OH264878   2.175   4.079  12.080 -0.0333 -0.0785 -0.4024
14488TIP3    H164879   2.134   4.001  12.117 -1.2675  0.8400  0.2325
14488TIP3    H264880   2.179   4.142  12.152  1.0676  0.4112 -0.8667
14489TIP3   OH264881   3.941   2.450   3.876 -0.3744 -0.3075  0.1398
14489TIP3    H164882   3.979   2.537   3.861 -0.7837 -0.3225 -1.2035
14489TIP3    H264883   3.849   2.467   3.895 -1.0086 -0.4713 -2.3296
14490TIP3   OH264884   6.523   0.512   3.582 -0.1022 -0.0301  0.1321
14490TIP3    H164885   6.486   0.551   3.503 -0.0161  1.3123  0.7292
14490TIP3    H264886   6.545   0.422   3.556  0.5584  0.5780 -1.5604
14491TIP3   OH264887   3.431   2.310  12.136  0.4202 -0.2101  0.4717
14491TIP3    H164888   3.387   2.362  12.069  1.2358 -2.0369 -1.6381
14491TIP3    H264889   3.470   2.374  12.195 -1.1752  1.4786 -0.2008
14492TIP3   OH264890   1.155   5.389   3.435 -0.1970  0.1487  0.7006
14492TIP3    H164891   1.127   5.310   3.480 -0.4185  0.7484  1.6389
14492TIP3    H264892   1.098   5.395   3.358  0.4055 -1.0589  0.1345
14493TIP3   OH264893   0.037   0.391   1.373  0.6320 -0.1806 -0.2798
14493TIP3    H164894   0.076   0.475   1.399  1.4904  0.5847 -3.5366
14493TIP3    H264895  -0.056   0.411   1.362  0.7863  0.2937 -0.7765
14494TIP3   OH264896   3.573   4.621  14.011 -0.3517 -0.2395 -0.2180
14494TIP3    H164897   3.543   4.712  14.014 -0.4870 -0.2868 -0.0799
14494TIP3    H264898   3.575   4.599  13.918  0.1900  0.0689 -0.2767
14495TIP3   OH264899   5.978   6.126  11.228  0.8837  0.0717  1.0095
14495TIP3    H164900   6.055   6.140  11.282  1.8473  0.3523 -0.3967
14495TIP3    H264901   6.012   6.092  11.146 -0.4358  0.8082  0.1242
14496TIP3   OH264902   0.812   2.036  13.109  0.0646  0.2367  0.2159
14496TIP3    H164903   0.803   1.948  13.146 -0.6097  0.0984 -0.2415
14496TIP3    H264904   0.724   2.057  13.078  0.4946  0.5397 -0.8479
14497TIP3   OH264905   2.611   5.761   5.063 -0.0203  0.4740 -0.5348
14497TIP3    H164906   2.608   5.676   5.021  0.3819 -0.1502  0.6675
14497TIP3    H264907   2.585   5.745   5.154  0.5414  1.5432 -0.1597
14498TIP3   OH264908   6.661   0.992  11.363  0.1266  0.0061 -0.2082
14498TIP3    H164909   6.658   0.954  11.451 -3.9159 -0.7763 -0.5145
14498TIP3    H264910   6.677   1.085  11.377  0.8228 -0.3005  1.2287
14499TIP3   OH264911   1.639   5.062   4.511  0.0257 -0.3992 -0.0561
14499TIP3    H164912   1.671   4.995   4.451  0.9680 -0.9400  1.0169
14499TIP3    H264913   1.651   5.145   4.463  1.0351 -0.7876 -0.5097
14500TIP3   OH264914   3.479   0.681   1.632 -0.0895  0.5360 -0.8568
14500TIP3    H164915   3.428   0.600   1.626  0.8970 -0.0624 -1.5140
14500TIP3    H264916   3.462   0.713   1.721 -2.1112  0.7249 -1.2547
14501TIP3   OH264917   2.856   3.392  16.874  0.6234  0.0308 -0.6096
14501TIP3    H164918   2.904   3.473  16.860  0.4923  0.3087  0.4359
14501TIP3    H264919   2.908   3.324  16.830  1.7923  0.3698  0.2152
14502TIP3   OH264920   2.386   1.100   3.623 -0.2715  0.5540 -0.0073
14502TIP3    H164921   2.399   1.067   3.712 -1.6262 -1.1259 -0.3825
14502TIP3    H264922   2.474   1.123   3.592  0.3397  0.1556  1.3762
14503TIP3   OH264923   3.565   5.402   3.729  0.4922 -0.1215  0.6404
14503TIP3    H164924   3.597   5.415   3.818  2.4204  1.2519 -0.1970
14503TIP3    H264925   3.611   5.468   3.677  0.8522 -2.0952 -1.6974
14504TIP3   OH264926   4.171   2.308   3.488  0.2671 -0.1697 -0.2295
14504TIP3    H164927   4.236   2.370   3.455  0.1946 -0.2022 -0.4295
14504TIP3    H264928   4.089   2.357   3.488  0.4350  0.1404  0.8077
14505TIP3   OH264929   5.335   0.167   0.803  0.1034 -0.3978  0.4506
14505TIP3    H164930   5.402   0.222   0.761 -0.5929  0.4103  0.3624
14505TIP3    H264931   5.378   0.132   0.881  1.2254 -1.4310 -0.5865
14506TIP3   OH264932   2.750   1.102  16.675 -0.1606 -0.7587  0.0403
14506TIP3    H164933   2.692   1.142  16.740 -0.0821 -2.9972  1.5799
14506TIP3    H264934   2.806   1.174  16.647 -1.2995  0.6618  1.1823
14507TIP3   OH264935   6.210   3.166  13.649  0.1539 -0.1217 -0.2287
14507TIP3    H164936   6.265   3.161  13.571  1.7147 -0.6134  0.8596
14507TIP3    H264937   6.175   3.256  13.649 -2.3997 -0.9334 -3.0666
14508TIP3   OH264938   0.829   5.271  12.908  0.0146 -0.0553 -0.2368
14508TIP3    H164939   0.771   5.312  12.844  1.0564 -1.1447 -1.9518
14508TIP3    H264940   0.824   5.328  12.985 -2.9406  0.1379 -0.4603
14509TIP3   OH264941   2.282   4.803  12.627  0.1927  0.1991  0.2277
14509TIP3    H164942   2.320   4.825  12.542 -1.3155  0.3346 -0.4493
14509TIP3    H264943   2.284   4.708  12.631 -0.3472  0.1634 -0.2654
14510TIP3   OH264944   3.802   3.273  13.146  0.1441  0.4767 -0.1244
14510TIP3    H164945   3.775   3.273  13.054 -0.0954  0.0837 -0.0552
14510TIP3    H264946   3.897   3.268  13.143  0.2500  2.0887 -0.3776
14511TIP3   OH264947   0.220   3.802  13.909  0.0760 -0.0898  0.1534
14511TIP3    H164948   0.271   3.843  13.980  0.7344  1.5774 -1.1955
14511TIP3    H264949   0.248   3.711  13.909  2.0891  0.4595  0.3689
14512TIP3   OH264950   3.735   3.858  13.542 -0.5444 -0.0664  0.2513
14512TIP3    H164951   3.672   3.799  13.501 -2.0781  0.9539  1.0258
14512TIP3    H264952   3.695   3.880  13.627 -0.6025  2.8809 -0.4121
14513TIP3   OH264953   2.802   2.031  11.138 -0.1467  0.0797 -0.7893
14513TIP3    H164954   2.872   1.969  11.157 -1.5773 -1.4591 -0.3362
14513TIP3    H264955   2.759   1.996  11.060 -1.5621 -0.0599  0.0213
14514TIP3   OH264956   3.047   1.542  14.690 -0.3748 -0.5315 -0.3882
14514TIP3    H164957   3.054   1.617  14.748 -1.1626 -1.1912  0.5818
14514TIP3    H264958   3.038   1.466  14.748  2.7978 -1.7381 -1.2322
14515TIP3   OH264959   2.057   5.420   2.637  0.1947  0.5094 -0.0413
14515TIP3    H164960   2.008   5.484   2.688 -0.7321 -1.6540  1.9661
14515TIP3    H264961   1.992   5.353   2.614  1.0163  0.4533 -2.4771
14516TIP3   OH264962   0.931   0.763  16.116 -0.5936 -0.0092 -0.0562
14516TIP3    H164963   0.983   0.813  16.052  0.0272 -0.2318  0.2657
14516TIP3    H264964   0.909   0.827  16.184 -0.4030 -0.0077  0.0047
14517TIP3   OH264965   4.826   1.854   0.687  0.8585  0.0071 -0.4886
14517TIP3    H164966   4.855   1.772   0.645 -0.2790 -0.0236 -1.2817
14517TIP3    H264967   4.732   1.843   0.697  0.9709  0.4173  1.2725
14518TIP3   OH264968   6.303   2.365  10.852 -0.4657  0.1812 -0.0522
14518TIP3    H164969   6.298   2.295  10.787  2.2526 -0.8567  0.6943
14518TIP3    H264970   6.358   2.432  10.811  0.2568  0.0611  0.6898
14519TIP3   OH264971   1.101   6.782  11.757  0.0611 -0.0178 -0.4317
14519TIP3    H164972   1.181   6.733  11.776 -0.9465 -1.1436  1.0675
14519TIP3    H264973   1.085   6.833  11.836 -0.8259  0.0258 -0.6373
14520TIP3   OH264974   1.205   1.220   2.015  0.0747 -0.4447  0.6867
14520TIP3    H164975   1.258   1.264   1.949  0.3057 -3.6339 -1.4509
14520TIP3    H264976   1.266   1.162   2.060 -0.9430 -1.5776  0.6316
14521TIP3   OH264977   5.347   2.347   2.801  0.0692  0.1984  0.1033
14521TIP3    H164978   5.410   2.285   2.838  0.2131 -0.1663 -0.7266
14521TIP3    H264979   5.393   2.431   2.801 -0.4838  0.5447  2.1736
14522TIP3   OH264980   6.008   3.399  13.547 -0.1577  0.4846  0.5178
14522TIP3    H164981   5.933   3.390  13.607 -0.9994 -0.0904 -0.5844
14522TIP3    H264982   5.977   3.360  13.465  1.3278  0.3360  0.0089
14523TIP3   OH264983   0.224   0.366  11.488  0.6793  0.4424 -0.8447
14523TIP3    H164984   0.242   0.454  11.457 -1.2752  0.7103 -1.3137
14523TIP3    H264985   0.208   0.376  11.582 -1.3613  0.9164 -1.2087
14524TIP3   OH264986   2.046   1.217  14.492  0.3955  0.2297 -0.1907
14524TIP3    H164987   1.995   1.217  14.573  1.7599  2.7049  0.7754
14524TIP3    H264988   2.137   1.212  14.521  0.8639 -0.5581 -1.6909
14525TIP3   OH264989   3.708   3.977   0.440  0.4961  0.4828  0.2173
14525TIP3    H164990   3.688   3.981   0.533  0.6776  0.0273  0.2787
14525TIP3    H264991   3.773   4.047   0.426 -1.4156  2.3022 -0.0807
14526TIP3   OH264992   1.828   6.819  14.343 -0.2062  0.2500  0.2856
14526TIP3    H164993   1.799   6.735  14.378  2.0221 -1.4087 -1.5824
14526TIP3    H264994   1.799   6.819  14.252 -1.4643  2.2103  0.6406
14527TIP3   OH264995   4.219   3.293  13.641 -0.0645  0.3092  0.1364
14527TIP3    H164996   4.216   3.302  13.736  0.5905  0.1892  0.1733
14527TIP3    H264997   4.134   3.254  13.617  0.0194 -0.2437  0.7319
14528TIP3   OH264998   0.760   3.678  11.209 -0.7345  0.0707 -0.1474
14528TIP3    H164999   0.704   3.604  11.231 -0.1036  0.1753  2.0007
14528TIP3    H265000   0.702   3.740  11.165 -1.8840 -0.5780  0.4196
14529TIP3   OH265001   5.579   6.477  10.528  0.1765 -0.2708  0.9238
14529TIP3    H165002   5.502   6.531  10.545 -0.4988 -1.4174  1.7073
14529TIP3    H265003   5.544   6.394  10.496  1.0551 -0.8822  1.4660
14530TIP3   OH265004   0.459   4.356  16.617  0.1600  0.0330 -0.0949
14530TIP3    H165005   0.388   4.414  16.643  0.9258  1.1575 -0.3985
14530TIP3    H265006   0.456   4.355  16.521  0.5282  0.0854 -0.1127
14531TIP3   OH265007   0.548   5.929   3.279  0.0432  0.1371 -0.1594
14531TIP3    H165008   0.509   6.015   3.262  0.9005  0.4588 -0.5324
14531TIP3    H265009   0.519   5.906   3.367 -0.7836  0.4749 -0.3333
14532TIP3   OH265010   3.224   1.025  15.751 -0.4839 -0.3479  0.1231
14532TIP3    H165011   3.219   1.088  15.679 -0.9384  0.5807  0.9396
14532TIP3    H265012   3.275   1.070  15.819  0.9315 -1.6486 -0.0275
14533TIP3   OH265013   5.094   2.465  15.331  0.6151 -0.1658 -0.0125
14533TIP3    H165014   5.177   2.439  15.291 -0.0539 -1.0578 -0.8522
14533TIP3    H265015   5.077   2.553  15.297  1.3329  0.1387  0.3765
14534TIP3   OH265016   1.666   4.561   3.848  0.6951  0.3069 -0.4887
14534TIP3    H165017   1.694   4.530   3.762 -2.6102 -0.2699 -1.5024
14534TIP3    H265018   1.605   4.493   3.879 -0.2218  1.7597  1.0926
14535TIP3   OH265019   4.097   0.963   0.066  0.1645  0.1406  0.8372
14535TIP3    H165020   4.077   0.956  -0.028 -1.3519  0.6703  1.0978
14535TIP3    H265021   4.153   1.041   0.072  0.4435 -0.0116  0.3614
14536TIP3   OH265022   4.707   3.880   0.280 -0.5259 -0.1943  0.3183
14536TIP3    H165023   4.657   3.884   0.198  0.3084 -0.1688 -0.2094
14536TIP3    H265024   4.793   3.849   0.253  0.2896  1.4108  0.9220
14537TIP3   OH265025   5.449   5.926   2.349  0.1382  0.4783 -0.1724
14537TIP3    H165026   5.448   5.967   2.436 -2.8223 -0.7423  0.4759
14537TIP3    H265027   5.494   5.843   2.362  2.4553  1.5863 -0.5822
14538TIP3   OH265028   1.706   5.351   1.155 -0.9328  0.0285  0.2240
14538TIP3    H165029   1.618   5.372   1.187 -1.5400 -1.0751 -0.6442
14538TIP3    H265030   1.748   5.437   1.145 -2.8833  0.8452 -2.0107
14539TIP3   OH265031   1.109   6.603   1.885 -0.6531 -0.0996 -0.1606
14539TIP3    H165032   1.039   6.640   1.831  0.9851  4.1233  0.2053
14539TIP3    H265033   1.163   6.554   1.823 -1.4858  0.4213 -1.3341
14540TIP3   OH265034   0.049   2.801  13.262  0.1966 -0.6840  0.2355
14540TIP3    H165035   0.124   2.819  13.319 -0.1489  2.5981 -0.1346
14540TIP3    H265036   0.080   2.734  13.201  3.4804  1.5771 -0.8937
14541TIP3   OH265037   1.276   1.104   0.342  0.0463  0.5792 -0.2147
14541TIP3    H165038   1.370   1.090   0.334  0.2417  0.2576  1.9433
14541TIP3    H265039   1.250   1.050   0.417 -2.0949 -0.2622 -1.4486
14542TIP3   OH265040   2.266   6.094  12.474  0.0371 -0.0417  0.4641
14542TIP3    H165041   2.335   6.157  12.495 -0.0637 -0.7928  3.4251
14542TIP3    H265042   2.191   6.122  12.527 -0.3157 -2.0911  1.1106
14543TIP3   OH265043   2.487   4.612   5.352  0.0170 -0.5337  0.1019
14543TIP3    H165044   2.401   4.570   5.360 -0.8535  1.0512 -0.4845
14543TIP3    H265045   2.506   4.644   5.440 -0.5594  0.1291 -0.0052
14544TIP3   OH265046   6.430   2.887   1.623 -0.5502 -0.4449 -0.4504
14544TIP3    H165047   6.504   2.903   1.564 -0.1744 -0.7644 -0.0717
14544TIP3    H265048   6.387   2.972   1.632 -0.1646 -0.2367 -0.5837
14545TIP3   OH265049   5.116   2.469   3.347 -0.0025  0.4421 -0.4578
14545TIP3    H165050   5.066   2.537   3.394  0.1981  0.4558 -0.2604
14545TIP3    H265051   5.202   2.470   3.390 -0.5949 -1.3106  0.8980
14546TIP3   OH265052   2.261   4.073   3.447 -0.1391  0.1193 -0.1285
14546TIP3    H165053   2.327   4.108   3.388 -0.6333  0.7781 -0.2926
14546TIP3    H265054   2.219   4.150   3.486 -3.1336 -0.1036 -2.5520
14547TIP3   OH265055   4.512   4.990  12.332  0.3656 -0.2241  0.2249
14547TIP3    H165056   4.470   5.069  12.366 -0.7990 -0.6004 -0.2783
14547TIP3    H265057   4.495   4.924  12.399 -0.3906 -0.5234 -0.2446
14548TIP3   OH265058   4.508   5.026   4.383  0.0929  0.0970  0.2253
14548TIP3    H165059   4.527   5.109   4.340  0.8009 -0.4097 -0.4705
14548TIP3    H265060   4.428   5.043   4.434 -0.5098  0.8421 -0.9258
14549TIP3   OH265061   0.124   0.650   4.801 -0.0919  0.1645  0.6343
14549TIP3    H165062   0.145   0.557   4.807  0.3443  0.2342  0.3177
14549TIP3    H265063   0.058   0.665   4.868  0.7660 -0.1176  1.5679
14550TIP3   OH265064   5.829   2.742  16.268 -0.2114  0.0901 -0.8784
14550TIP3    H165065   5.861   2.776  16.351  0.1253  0.9241 -1.3387
14550TIP3    H265066   5.895   2.679  16.241 -0.3933 -0.2882 -0.4496
14551TIP3   OH265067   4.406   0.476  15.268  0.0247  0.1371  0.1661
14551TIP3    H165068   4.317   0.442  15.273  0.1859 -0.4569 -0.7915
14551TIP3    H265069   4.405   0.554  15.324 -0.7398 -0.6003  1.2169
14552TIP3   OH265070   0.958   2.511  11.860  0.4548 -0.2939  0.1560
14552TIP3    H165071   0.969   2.534  11.953  1.6423  0.8651 -0.2268
14552TIP3    H265072   1.048   2.504  11.827  0.0683 -1.9785 -0.6400
14553TIP3   OH265073   3.812   0.032   4.909  0.3315  0.2973 -0.1895
14553TIP3    H165074   3.870  -0.043   4.900 -0.0272 -0.0382  0.2965
14553TIP3    H265075   3.724  -0.002   4.890  0.2092  0.6673 -0.3119
14554TIP3   OH265076   5.364   0.475  11.880  0.0078  0.4373  0.0521
14554TIP3    H165077   5.420   0.448  11.953  1.6100 -0.0341 -1.2854
14554TIP3    H265078   5.283   0.426  11.892  0.3515  0.1468  1.3338
14555TIP3   OH265079   1.317   0.713  15.246 -0.2781  0.3280 -0.3648
14555TIP3    H165080   1.323   0.700  15.341 -0.6309 -1.4346 -0.5600
14555TIP3    H265081   1.235   0.670  15.221  0.5700 -0.5750 -1.6853
14556TIP3   OH265082   4.510   6.005   4.439  0.5310 -0.4972  0.2528
14556TIP3    H165083   4.423   6.005   4.398 -0.7048 -0.7545  2.6568
14556TIP3    H265084   4.551   6.086   4.408 -0.0990 -0.8822 -1.7652
14557TIP3   OH265085   6.345   5.803   1.614 -0.3230  0.4783  0.2162
14557TIP3    H165086   6.439   5.822   1.610  0.1275 -0.5880  3.1140
14557TIP3    H265087   6.330   5.742   1.541  1.7636 -1.0401  0.9415
14558TIP3   OH265088   6.259   4.325   1.828 -0.3077 -0.2646  0.4704
14558TIP3    H165089   6.266   4.414   1.794 -2.4327 -0.1521  0.1760
14558TIP3    H265090   6.185   4.287   1.780 -0.0890 -1.8425  1.3182
14559TIP3   OH265091   6.377   6.448  15.476 -0.0292 -0.4097 -0.7214
14559TIP3    H165092   6.393   6.378  15.539 -1.7723  1.0176  1.4316
14559TIP3    H265093   6.462   6.489  15.464  0.3339 -0.6489  0.8157
14560TIP3   OH265094   5.713   4.404   0.920  0.7362 -0.1211  0.4004
14560TIP3    H165095   5.778   4.429   0.854  1.8880 -0.3699  1.4173
14560TIP3    H265096   5.723   4.469   0.989 -0.7137  0.3487  0.2072
14561TIP3   OH265097   5.604   1.976  14.086  0.2725 -0.0233 -0.1606
14561TIP3    H165098   5.631   1.904  14.142  0.2071  0.4131  0.4398
14561TIP3    H265099   5.592   2.050  14.146  0.4609  0.5158 -0.7781
14562TIP3   OH265100   4.450   4.823  13.425 -0.2222  0.1101  0.2876
14562TIP3    H165101   4.411   4.910  13.424 -0.8380 -0.1586 -0.8283
14562TIP3    H265102   4.516   4.826  13.355  1.2308  0.2956  1.5925
14563TIP3   OH265103   5.083   1.846   3.823  0.5215 -0.8114  0.2969
14563TIP3    H165104   5.136   1.882   3.894  0.5560  0.0611 -0.1655
14563TIP3    H265105   5.042   1.922   3.782  0.5834 -1.2896 -0.6787
14564TIP3   OH265106   1.447   2.696   4.734 -0.0651 -0.7533 -0.8021
14564TIP3    H165107   1.416   2.644   4.660  1.3273 -1.5907 -0.8414
14564TIP3    H265108   1.437   2.637   4.810  1.3642 -1.0735 -0.8205
14565TIP3   OH265109   5.228   0.992   1.982  0.6860  0.3030  0.0178
14565TIP3    H165110   5.197   1.018   1.895  0.5648 -0.4195 -0.1595
14565TIP3    H265111   5.310   0.945   1.966  0.2938 -0.4679  0.2219
14566TIP3   OH265112   6.787   5.515   5.079 -0.8974  0.0570  0.2580
14566TIP3    H165113   6.743   5.471   5.152 -2.4948 -0.2725 -0.8660
14566TIP3    H265114   6.761   5.607   5.087 -1.2736 -0.0222 -0.0264
14567TIP3   OH265115   2.782   3.458   5.014  0.5867 -0.5283  0.7190
14567TIP3    H165116   2.858   3.509   5.041  0.4956 -0.6497  1.2172
14567TIP3    H265117   2.777   3.387   5.079 -0.8223  0.3213  1.5638
14568TIP3   OH265118   0.245   5.210  14.230 -0.3997  0.0162  0.0095
14568TIP3    H165119   0.153   5.230  14.249 -0.7543 -1.1335 -0.4157
14568TIP3    H265120   0.288   5.211  14.315 -0.8979  0.1006  0.2610
14569TIP3   OH265121   6.007   2.252   4.536  0.2479  0.4778 -0.5966
14569TIP3    H165122   5.984   2.282   4.624 -0.1609 -0.2540 -0.4437
14569TIP3    H265123   6.037   2.331   4.491 -1.5185  1.2841 -0.4432
14570TIP3   OH265124   0.240   2.538   4.594 -0.1414  0.1623 -0.3427
14570TIP3    H165125   0.236   2.616   4.649 -2.0573  0.7891 -1.2947
14570TIP3    H265126   0.185   2.474   4.639  1.6625 -0.8145  0.5946
14571TIP3   OH265127   3.355   1.246   1.281 -0.2727  0.1186 -0.0593
14571TIP3    H165128   3.319   1.310   1.342 -0.6426  0.2287 -0.3953
14571TIP3    H265129   3.279   1.200   1.246 -0.1730  0.9536 -1.4420
14572TIP3   OH265130   5.405   1.352  14.574  0.1052  0.0901 -0.0603
14572TIP3    H165131   5.500   1.351  14.556 -0.1207  0.5217 -1.4212
14572TIP3    H265132   5.396   1.308  14.659  1.7830  2.5808  1.5270
14573TIP3   OH265133   3.802   4.533  16.305  0.0618  0.0530  0.0604
14573TIP3    H165134   3.762   4.543  16.391 -1.1312 -3.2447  0.0270
14573TIP3    H265135   3.732   4.549  16.243  0.5442  0.9151 -0.2835
14574TIP3   OH265136   3.634   1.115   2.402  0.2193  0.6354 -0.0874
14574TIP3    H165137   3.719   1.072   2.400 -1.4526 -2.9916 -0.4863
14574TIP3    H265138   3.613   1.121   2.496  0.5559  0.7794 -0.0200
14575TIP3   OH265139   0.135   6.016  11.072 -0.1618 -0.0154  0.6287
14575TIP3    H165140   0.092   5.985  10.993 -0.7351  0.3621  0.7845
14575TIP3    H265141   0.218   5.969  11.075 -1.3810 -2.2636  1.3407
14576TIP3   OH265142   1.615   6.361   0.249 -0.6436  0.0645 -0.8468
14576TIP3    H165143   1.610   6.456   0.255 -0.1299  0.2678 -2.9883
14576TIP3    H265144   1.682   6.336   0.313 -0.9643  1.0891 -0.0903
14577TIP3   OH265145   2.007   3.711   5.251 -1.0278  0.4480 -0.1009
14577TIP3    H165146   1.933   3.684   5.197 -0.4027  1.0658 -1.3104
14577TIP3    H265147   2.027   3.800   5.222 -0.3232  0.5929  0.7756
14578TIP3   OH265148   4.017   0.113   0.136 -0.1260 -0.6210  0.1507
14578TIP3    H165149   4.017   0.034   0.190 -0.7369 -1.3997 -0.9569
14578TIP3    H265150   4.019   0.080   0.046  1.5360  0.6493 -0.3247
14579TIP3   OH265151   4.660   0.234   6.433  0.1978 -0.6213  0.1075
14579TIP3    H165152   4.724   0.256   6.500  1.6208 -2.4315 -0.5600
14579TIP3    H265153   4.703   0.258   6.350 -0.6357 -0.4251 -0.2796
14580TIP3   OH265154   0.925   0.753   4.071  0.4919 -0.2623 -0.1903
14580TIP3    H165155   0.853   0.813   4.089  0.7415 -0.0661  0.1551
14580TIP3    H265156   0.934   0.754   3.976 -0.9324 -1.4240 -0.3753
14581TIP3   OH265157   4.583   0.885   2.347  0.6050 -0.3051  0.0824
14581TIP3    H165158   4.562   0.974   2.377  1.5199  0.0596 -0.3172
14581TIP3    H265159   4.558   0.829   2.421 -1.5218  0.0896 -0.2781
14582TIP3   OH265160   1.115   6.029   1.478  0.0874 -0.4772  0.5943
14582TIP3    H165161   1.189   6.016   1.418 -0.6217  1.1702 -0.7318
14582TIP3    H265162   1.097   6.123   1.473 -2.4122 -0.8891  0.4576
14583TIP3   OH265163   5.635   1.284  10.279  0.0478  0.4823 -0.1809
14583TIP3    H165164   5.703   1.323  10.335 -0.8742  2.6819 -0.4937
14583TIP3    H265165   5.665   1.301  10.190 -0.5133  0.7285 -0.3234
14584TIP3   OH265166   2.581   1.580  10.879 -0.1815  0.3233 -0.1175
14584TIP3    H165167   2.596   1.625  10.795 -0.3025  1.2649  0.3452
14584TIP3    H265168   2.522   1.508  10.858 -0.6945  0.9127 -0.7552
14585TIP3   OH265169   1.094   0.662  14.052  0.1963 -0.1381  0.3486
14585TIP3    H165170   1.019   0.647  13.995 -0.0400 -0.7992  0.8141
14585TIP3    H265171   1.076   0.745  14.095  0.0841  0.0619 -0.0802
14586TIP3   OH265172   2.286   1.806   3.545 -0.5596  0.4117 -0.2257
14586TIP3    H165173   2.341   1.776   3.473 -0.6163  1.5063 -0.7449
14586TIP3    H265174   2.234   1.877   3.508 -0.1501  1.4110  1.0213
14587TIP3   OH265175   0.320   0.860  15.576 -0.2598 -0.1962  0.0233
14587TIP3    H165176   0.248   0.912  15.613  0.3627 -0.6703  1.9914
14587TIP3    H265177   0.381   0.848  15.649  1.4703 -0.4425 -1.4144
14588TIP3   OH265178   4.010   1.969   3.371  0.3842  0.0565 -0.1772
14588TIP3    H165179   4.083   1.996   3.316 -0.6597 -1.9585 -2.8190
14588TIP3    H265180   4.049   1.949   3.456  2.5354  0.9547 -0.8949
14589TIP3   OH265181   3.412   0.353   2.188 -0.0917 -0.1141  0.0633
14589TIP3    H165182   3.425   0.330   2.096  2.1718 -0.1511  0.3188
14589TIP3    H265183   3.330   0.402   2.190 -0.8860 -1.2907 -1.7367
14590TIP3   OH265184   2.234   2.137  16.756 -0.4475  0.4074  0.7791
14590TIP3    H165185   2.260   2.163  16.844 -0.2494 -0.0771  0.8681
14590TIP3    H265186   2.139   2.144  16.756 -0.4286  0.6817  0.9413
14591TIP3   OH265187   4.143   5.833   2.197 -0.2913  0.0610  0.3381
14591TIP3    H165188   4.228   5.804   2.229 -0.1598  0.4171  0.3123
14591TIP3    H265189   4.152   5.833   2.102 -0.6349 -0.8521  0.2931
14592TIP3   OH265190   2.232   6.052  16.357 -0.1370  0.0814  0.2880
14592TIP3    H165191   2.266   6.003  16.283 -1.3174 -1.1027  0.4819
14592TIP3    H265192   2.184   6.126  16.318 -0.6077 -0.4374 -0.1236
14593TIP3   OH265193   2.121   5.237   5.053  0.1839  0.3477 -0.0325
14593TIP3    H165194   2.070   5.226   5.134  0.3860 -0.9249 -0.0579
14593TIP3    H265195   2.104   5.158   5.003  1.2213  0.4572 -0.5898
14594TIP3   OH265196   2.969   1.433   1.491 -0.2381 -0.3539 -0.3926
14594TIP3    H165197   3.065   1.428   1.490 -0.2634 -0.9182 -0.8029
14594TIP3    H265198   2.943   1.411   1.401 -0.8160 -1.7610  0.0954
14595TIP3   OH265199   0.804   3.564  10.665 -0.0360  0.3878 -0.1695
14595TIP3    H165200   0.776   3.609  10.586  2.2018  1.0207 -0.6846
14595TIP3    H265201   0.852   3.487  10.633  0.4292  0.3586  0.5630
14596TIP3   OH265202   0.145   2.939   4.394  0.5680 -0.1466  0.2179
14596TIP3    H165203   0.225   2.911   4.351  0.2446  0.7753 -1.0357
14596TIP3    H265204   0.145   3.034   4.387 -2.2418 -0.1719 -2.9677
14597TIP3   OH265205   5.515   0.561  10.606 -0.0234 -0.1105 -0.0856
14597TIP3    H165206   5.526   0.620  10.531  2.2283  0.6730  0.7605
14597TIP3    H265207   5.434   0.513  10.587 -1.3136  2.3725 -1.4006
14598TIP3   OH265208   5.040   1.438   0.134  0.3296 -0.0351 -0.2335
14598TIP3    H165209   5.110   1.456   0.197  0.8293 -0.8116 -0.5567
14598TIP3    H265210   5.045   1.509   0.071 -0.6917  1.2121  1.0091
14599TIP3   OH265211   6.484   3.704   2.252 -0.2558 -0.2381 -0.6998
14599TIP3    H165212   6.497   3.649   2.329  2.1214 -0.8252 -1.4221
14599TIP3    H265213   6.496   3.793   2.283  1.3103 -0.5077 -0.4313
14600TIP3   OH265214   4.146   2.577   2.431  0.5124  0.2270 -0.0555
14600TIP3    H165215   4.236   2.607   2.439  0.2236  1.1834 -0.3478
14600TIP3    H265216   4.096   2.655   2.407 -0.5226 -0.1013  0.9057
14601TIP3   OH265217   1.187   0.646  12.544  0.3761  0.2485  0.2113
14601TIP3    H165218   1.135   0.574  12.580  0.4924 -0.1068 -0.3206
14601TIP3    H265219   1.142   0.670  12.463  1.5938 -0.7675 -0.8177
14602TIP3   OH265220   5.140   3.410   4.160  0.1385 -0.0682 -0.1526
14602TIP3    H165221   5.137   3.326   4.114  2.9693 -1.5415  2.0004
14602TIP3    H265222   5.204   3.462   4.111 -0.4335  0.2283 -0.5883
14603TIP3   OH265223   1.606   3.955  14.561  0.3639 -0.3066 -0.5271
14603TIP3    H165224   1.701   3.968  14.556  0.4576  0.2300  1.6818
14603TIP3    H265225   1.569   4.028  14.512  1.0909  0.0738 -0.5210
14604TIP3   OH265226   1.542   5.773  14.771  0.5946  0.1172 -0.4162
14604TIP3    H165227   1.571   5.730  14.691  2.6668  1.8451 -0.6791
14604TIP3    H265228   1.619   5.822  14.801 -0.7659  1.2182  1.4568
14605TIP3   OH265229   5.857   3.556   0.009  0.0501  0.2002  0.0130
14605TIP3    H165230   5.820   3.590  -0.073  1.0151 -1.0386 -0.9799
14605TIP3    H265231   5.947   3.589   0.010  0.5525 -1.0968 -0.2563
14606TIP3   OH265232   5.044   2.683   5.996 -0.1586 -0.0580 -0.0822
14606TIP3    H165233   4.958   2.687   6.038 -1.3214  0.6461 -2.3707
14606TIP3    H265234   5.051   2.593   5.965 -0.9835  0.3755 -1.6061
14607TIP3   OH265235   4.418   5.115  14.156  0.8869  0.0184 -0.1973
14607TIP3    H165236   4.467   5.186  14.196 -0.4629  1.4574 -0.9854
14607TIP3    H265237   4.404   5.143  14.065  1.1478 -1.7020 -0.8168
14608TIP3   OH265238   0.887   1.613   5.091 -0.3874  0.8454 -0.6798
14608TIP3    H165239   0.890   1.692   5.146  1.5332  1.0013 -0.9447
14608TIP3    H265240   0.828   1.635   5.019 -3.5849  0.3941  1.5703
14609TIP3   OH265241   6.724   3.828   1.401 -0.4122 -0.0122  0.6820
14609TIP3    H165242   6.748   3.834   1.494 -0.3587  1.3724  0.6088
14609TIP3    H265243   6.791   3.772   1.362  1.0181  1.3738  1.0468
14610TIP3   OH265244   0.284   6.194  12.419  0.2296 -0.7779 -0.0595
14610TIP3    H165245   0.288   6.104  12.451 -1.5225 -0.4584  1.2473
14610TIP3    H265246   0.370   6.231  12.439  1.2448 -2.3459 -1.3354
14611TIP3   OH265247   0.478   1.406  11.105 -0.3174 -0.1119 -0.1242
14611TIP3    H165248   0.455   1.466  11.175  1.4851  0.8282 -0.2639
14611TIP3    H265249   0.460   1.318  11.140 -2.0180  0.4330  0.4549
14612TIP3   OH265250   1.403   0.691   3.543  0.0060 -0.5624 -0.8236
14612TIP3    H165251   1.469   0.622   3.543  0.0040 -0.5977  0.4175
14612TIP3    H265252   1.328   0.651   3.587 -0.4831 -0.1966 -1.3177
14613TIP3   OH265253   6.523   3.831  10.850 -0.6852  0.4579  0.5484
14613TIP3    H165254   6.526   3.743  10.887 -1.1381 -0.1083 -0.6914
14613TIP3    H265255   6.596   3.877  10.891  0.2792 -0.8381  0.3710
14614TIP3   OH265256   2.890   5.544  15.425  0.1914  0.0359 -0.9271
14614TIP3    H165257   2.986   5.549  15.430  0.2600 -0.9393 -1.1171
14614TIP3    H265258   2.870   5.452  15.437 -0.7735  0.3075 -0.3001
14615TIP3   OH265259   2.075   5.757  16.066 -0.4657  0.6712  0.1303
14615TIP3    H165260   2.105   5.727  15.980 -0.5335  1.4646 -0.1740
14615TIP3    H265261   2.154   5.786  16.111 -0.3163 -0.4893  0.6520
14616TIP3   OH265262   5.645   3.295   5.663 -0.4822 -0.1541 -0.0961
14616TIP3    H165263   5.590   3.329   5.733 -0.5291 -0.4791  0.0265
14616TIP3    H265264   5.733   3.329   5.682 -0.3495 -0.8093  0.5204
14617TIP3   OH265265   3.280   4.984   3.054 -0.1497 -0.1066 -0.3348
14617TIP3    H165266   3.275   5.043   2.978 -0.9909 -0.9376 -0.9468
14617TIP3    H265267   3.263   5.040   3.129 -3.0293  0.1606 -1.0505
14618TIP3   OH265268   3.434   5.797  12.116  0.0045 -0.1728 -0.2236
14618TIP3    H165269   3.446   5.745  12.196 -1.6377 -1.4888 -0.7697
14618TIP3    H265270   3.376   5.869  12.143  0.2862 -0.0260 -0.0060
14619TIP3   OH265271   4.540   3.370   5.171  0.1972  0.7848 -0.3123
14619TIP3    H165272   4.633   3.358   5.189 -0.3627 -1.1443  1.8298
14619TIP3    H265273   4.499   3.371   5.257 -1.7541  2.1492 -1.1739
14620TIP3   OH265274   1.697   2.445  14.236  0.1601 -0.6036  0.2500
14620TIP3    H165275   1.745   2.502  14.297 -0.0512  1.4132 -1.3889
14620TIP3    H265276   1.617   2.423  14.283  0.8286 -0.6459  1.4253
14621TIP3   OH265277   0.514   2.610  14.926 -0.4283  0.0314  0.6251
14621TIP3    H165278   0.419   2.599  14.926 -0.3947 -0.4336 -0.4412
14621TIP3    H265279   0.544   2.566  15.005 -1.0967  0.1604  0.9554
14622TIP3   OH265280   3.905   6.648  16.250 -0.1096 -0.3242  0.1844
14622TIP3    H165281   3.928   6.616  16.337 -0.6614 -0.2085  0.3805
14622TIP3    H265282   3.987   6.645  16.201  0.6473  1.4058  1.2560
14623TIP3   OH265283   5.664   6.239  12.954  0.0048  0.4806  0.4674
14623TIP3    H165284   5.746   6.218  13.000  0.1304  0.4941  0.2488
14623TIP3    H265285   5.684   6.318  12.904 -0.1769  0.5524  0.5072
14624TIP3   OH265286   2.767   5.428  15.853 -0.1254 -0.0675  0.2634
14624TIP3    H165287   2.828   5.446  15.925  1.2993  0.4107 -0.9950
14624TIP3    H265288   2.783   5.336  15.831  0.5560  0.2027 -0.4113
14625TIP3   OH265289   1.731   3.283   1.042 -0.7254  0.3317  0.4208
14625TIP3    H165290   1.775   3.318   0.965 -1.1031 -0.5457 -0.2127
14625TIP3    H265291   1.771   3.197   1.056 -0.8429  0.3703  1.0430
14626TIP3   OH265292   1.696   4.237  14.585 -0.2865 -0.4996  0.1176
14626TIP3    H165293   1.656   4.225  14.499 -0.1981 -0.7128  0.1080
14626TIP3    H265294   1.742   4.321  14.578 -2.3901  0.7962  0.7447
14627TIP3   OH265295   6.152   0.181  11.195 -0.2252 -0.4671 -0.4335
14627TIP3    H165296   6.069   0.133  11.202 -0.9186  0.4775 -1.8102
14627TIP3    H265297   6.128   0.272  11.207  0.9913 -0.3468  1.4950
14628TIP3   OH265298   1.994   1.538   0.567  0.0983 -0.0364 -0.1301
14628TIP3    H165299   1.996   1.563   0.659  0.3501 -1.2943  0.2231
14628TIP3    H265300   1.905   1.558   0.539  0.1947  0.9211  0.2100
14629TIP3   OH265301   6.227   6.702  14.455  0.5913  0.4622 -0.3980
14629TIP3    H165302   6.206   6.796  14.459  0.3107  0.4252 -1.0039
14629TIP3    H265303   6.147   6.658  14.482  1.2107  0.4211  1.5119
14630TIP3   OH265304   2.661   1.792   5.342 -0.2573  0.0072  0.1584
14630TIP3    H165305   2.594   1.856   5.365  1.4085  2.1108 -0.4801
14630TIP3    H265306   2.615   1.727   5.290 -2.0334  0.6934  0.7968
14631TIP3   OH265307   4.315   1.579  16.961  0.0580 -0.1896 -0.1928
14631TIP3    H165308   4.321   1.564  16.867 -0.7358 -0.0352 -0.2726
14631TIP3    H265309   4.273   1.665  16.969  0.9902  0.2285  0.2965
14632TIP3   OH265310   5.016   0.189  12.813  0.3721 -0.4106  0.6617
14632TIP3    H165311   5.079   0.133  12.767 -0.3654  0.8046 -2.0017
14632TIP3    H265312   4.994   0.141  12.892  0.3587 -3.5321 -1.1083
14633TIP3   OH265313   0.033   0.817  11.689 -0.4977  0.0113 -0.3453
14633TIP3    H165314  -0.056   0.819  11.653 -0.9974 -1.2879  0.7529
14633TIP3    H265315   0.042   0.900  11.735 -1.1383  0.1578 -0.4771
14634TIP3   OH265316   6.483   0.355   4.462 -0.6503  0.0257 -0.0726
14634TIP3    H165317   6.424   0.311   4.523 -0.8063 -0.0590 -0.2839
14634TIP3    H265318   6.449   0.445   4.457 -0.3539  0.1600  0.3297
14635TIP3   OH265319   5.628   1.829  13.242 -0.6484 -0.1116 -0.6696
14635TIP3    H165320   5.671   1.913  13.225 -2.5367  1.0690 -0.0225
14635TIP3    H265321   5.640   1.779  13.162  0.3283  0.8759 -1.1617
14636TIP3   OH265322   6.592   6.269  10.359 -0.4848 -0.5344  0.0434
14636TIP3    H165323   6.547   6.201  10.408 -0.8636  0.6821  1.4602
14636TIP3    H265324   6.683   6.265  10.389 -0.0592 -1.6540 -1.3114
14637TIP3   OH265325   3.996   6.028  15.411  0.1531  0.1893  0.4208
14637TIP3    H165326   4.022   6.033  15.502  0.7204 -1.7611  0.4198
14637TIP3    H265327   4.041   6.101  15.368 -0.3334  1.2773  1.7284
14638TIP3   OH265328   1.466   5.684   3.663 -0.1086  0.0999  0.4027
14638TIP3    H165329   1.372   5.688   3.646 -0.0838 -1.3970 -0.2785
14638TIP3    H265330   1.506   5.689   3.576  0.4324  0.3938  0.6636
14639TIP3   OH265331   1.215   0.474  14.216 -0.1106 -0.4316 -0.5762
14639TIP3    H165332   1.277   0.537  14.253 -0.2349  0.7317 -2.2187
14639TIP3    H265333   1.166   0.525  14.151 -1.0906 -1.9358 -1.0612
14640TIP3   OH265334   4.575   1.153  12.036  0.5153  0.4845  0.4788
14640TIP3    H165335   4.630   1.153  11.958 -1.2151  1.5473 -0.8145
14640TIP3    H265336   4.499   1.100  12.013 -0.4606  1.5689  1.0818
14641TIP3   OH265337   2.609   1.212  15.020 -0.3280  0.2285 -0.1485
14641TIP3    H165338   2.685   1.164  15.054 -0.0117  0.8105 -0.0136
14641TIP3    H265339   2.557   1.146  14.974  0.0777 -0.2461  0.0668
14642TIP3   OH265340   5.894   0.497  12.158 -0.0646  0.0723  0.0489
14642TIP3    H165341   5.967   0.448  12.123  0.0932  1.0321 -1.0406
14642TIP3    H265342   5.882   0.464  12.247  2.5722  0.8084  0.7671
14643TIP3   OH265343   5.417   5.202  15.698 -0.3512 -0.0530  0.3310
14643TIP3    H165344   5.416   5.196  15.603  1.7060  1.3805  0.1561
14643TIP3    H265345   5.360   5.131  15.727 -0.5061 -0.9369 -1.9280
14644TIP3   OH265346   0.453   5.422   2.347  0.3398  0.0106 -0.2018
14644TIP3    H165347   0.375   5.477   2.340  0.4682  0.6475  2.2855
14644TIP3    H265348   0.526   5.483   2.339  0.5449 -0.2811 -0.5718
14645TIP3   OH265349   5.388   2.888  12.079  0.1296 -0.2917  0.4593
14645TIP3    H165350   5.321   2.915  12.016  0.9309 -0.0522 -0.3053
14645TIP3    H265351   5.360   2.802  12.109 -0.6878 -0.0552  0.3898
14646TIP3   OH265352   1.176   0.577   4.099 -0.5934 -0.1239  0.3509
14646TIP3    H165353   1.259   0.573   4.147 -0.6590  0.2231  0.4978
14646TIP3    H265354   1.128   0.649   4.141 -0.9817 -0.3436  0.2889
14647TIP3   OH265355   4.081   2.940  13.623 -0.2739  0.1827  0.3529
14647TIP3    H165356   4.156   2.997  13.641  0.6527 -1.1705  0.9248
14647TIP3    H265357   4.018   2.959  13.692  0.6628 -0.5383  1.4315
14648TIP3   OH265358   0.616   6.253  11.512 -0.4315 -0.3881  0.0334
14648TIP3    H165359   0.682   6.320  11.497  0.1413 -1.3107 -1.8298
14648TIP3    H265360   0.578   6.276  11.597  1.3484  0.9311  0.5400
14649TIP3   OH265361   4.980   4.979  13.133 -0.0956  0.3017 -0.0512
14649TIP3    H165362   5.011   5.066  13.159  0.2228  0.0902  0.2852
14649TIP3    H265363   5.016   4.966  13.046  0.5506  0.1721  0.2257
14650TIP3   OH265364   5.151   4.055  11.735 -0.7932  0.3533 -0.3236
14650TIP3    H165365   5.119   4.130  11.685 -0.2946  0.9415  0.2204
14650TIP3    H265366   5.200   4.093  11.808 -0.3107 -0.5075 -0.1752
14651TIP3   OH265367   0.364   5.153  14.504  0.6866  0.3601  0.6262
14651TIP3    H165368   0.420   5.091  14.457 -0.5905 -0.3125 -0.0676
14651TIP3    H265369   0.317   5.098  14.567 -0.9591  0.4598 -0.4538
14652TIP3   OH265370   4.901   1.592  16.898 -0.1115  0.6878  0.8440
14652TIP3    H165371   4.847   1.655  16.947 -1.0515  0.4085  0.1932
14652TIP3    H265372   4.860   1.507  16.914 -0.9160  0.6733 -0.9987
14653TIP3   OH265373   6.567   1.317  12.971 -0.1791 -0.3293 -0.8878
14653TIP3    H165374   6.496   1.361  13.017 -0.3590 -0.8590 -0.6395
14653TIP3    H265375   6.646   1.340  13.020 -0.5217 -1.9093  0.4903
14654TIP3   OH265376   0.139   2.224   1.668  0.2815 -0.1635  0.0462
14654TIP3    H165377   0.140   2.206   1.762  2.2599 -0.6186 -0.0086
14654TIP3    H265378   0.075   2.163   1.632  0.6506 -1.1114  0.9318
14655TIP3   OH265379   1.857   0.365  15.413 -0.2378 -0.0767  0.2014
14655TIP3    H165380   1.835   0.437  15.473 -0.0211  1.5944 -1.6088
14655TIP3    H265381   1.806   0.291  15.445 -0.4516  0.8360  2.1733
14656TIP3   OH265382   6.224   1.960   1.453  0.4275 -0.3017  0.7904
14656TIP3    H165383   6.151   2.022   1.445 -0.4430 -1.5006 -1.3770
14656TIP3    H265384   6.294   1.999   1.400 -0.9705 -2.1715 -2.7735
14657TIP3   OH265385   3.633   3.386   6.578 -1.2151  0.1408  0.5586
14657TIP3    H165386   3.646   3.314   6.516 -0.4085 -0.0821  0.9724
14657TIP3    H265387   3.701   3.449   6.556 -0.5711 -0.1839  1.5514
14658TIP3   OH265388   4.936   2.019  14.847  0.0406 -0.3353  0.2804
14658TIP3    H165389   4.884   2.012  14.927 -0.2192 -2.2820 -0.0250
14658TIP3    H265390   5.026   2.032  14.879 -0.5391  4.0953  0.8185
14659TIP3   OH265391   5.733   0.968  16.052  0.1252 -0.5669  0.2282
14659TIP3    H165392   5.826   0.984  16.067 -0.0294 -0.3125  0.9643
14659TIP3    H265393   5.690   1.005  16.128 -0.6475  0.0275 -0.4786
14660TIP3   OH265394   2.223   0.289   6.070 -0.3271 -0.1815 -0.0672
14660TIP3    H165395   2.135   0.256   6.086 -0.6160  0.4483 -0.3240
14660TIP3    H265396   2.210   0.382   6.049  0.3916 -0.0959 -0.1434
14661TIP3   OH265397   6.038   5.906  15.096 -0.0900  0.3344  0.1574
14661TIP3    H165398   6.010   5.997  15.107 -0.4173  0.2245  0.2585
14661TIP3    H265399   5.975   5.856  15.148 -1.6776 -0.2081 -2.1463
14662TIP3   OH265400   0.429   4.929   1.850 -0.6831  0.1161  0.0729
14662TIP3    H165401   0.445   5.021   1.826 -1.4429  0.1471 -0.3648
14662TIP3    H265402   0.420   4.884   1.766  0.8455 -0.5923  0.2635
14663TIP3   OH265403   0.054   4.170   0.177  0.1582  0.3618  0.0074
14663TIP3    H165404  -0.010   4.228   0.135  0.4735  1.1449  0.5900
14663TIP3    H265405   0.008   4.135   0.253  0.8202  1.9736  1.1993
14664TIP3   OH265406   3.891   6.395  12.198 -0.1185 -0.5822  0.2759
14664TIP3    H165407   3.957   6.334  12.165 -0.7529 -0.7757 -0.6539
14664TIP3    H265408   3.808   6.349  12.190 -0.4559 -0.0940  0.8187
14665TIP3   OH265409   1.921   1.507   4.722 -0.2400 -0.0632 -0.1755
14665TIP3    H165410   1.834   1.473   4.698 -1.4336  3.3571 -1.2942
14665TIP3    H265411   1.907   1.601   4.736  3.1374  0.4534  0.6062
14666TIP3   OH265412   6.303   3.933  14.525 -0.4453 -0.5283  0.1521
14666TIP3    H165413   6.329   3.873  14.455  1.8988  0.1141  0.3942
14666TIP3    H265414   6.241   3.993  14.483 -0.3454 -1.1422 -0.9288
14667TIP3   OH265415   4.921   0.081   5.208 -0.2459 -0.2285  0.2593
14667TIP3    H165416   4.833   0.047   5.193 -1.2483  2.0793  0.4872
14667TIP3    H265417   4.907   0.170   5.243  2.1669  0.0552  0.6817
14668TIP3   OH265418   1.065   6.045  12.591 -0.0291  0.5631  0.3211
14668TIP3    H165419   1.111   5.961  12.588  0.3162  0.7705 -0.5017
14668TIP3    H265420   0.976   6.024  12.563 -1.0555 -0.1890  3.7462
14669TIP3   OH265421   0.668   4.822   3.376  0.1833  0.2271  0.5750
14669TIP3    H165422   0.577   4.798   3.360 -0.1579  1.2093  0.9868
14669TIP3    H265423   0.717   4.778   3.307 -0.5593 -0.5886  0.5518
14670TIP3   OH265424   1.429   3.409  15.289 -0.1750 -0.3550  0.2257
14670TIP3    H165425   1.516   3.397  15.327 -0.4776 -1.0656  0.7060
14670TIP3    H265426   1.439   3.483  15.229  1.4880 -2.1925 -1.9252
14671TIP3   OH265427   0.359   1.883  13.724  0.4355  0.4243  0.0063
14671TIP3    H165428   0.285   1.859  13.780  0.6683 -1.1990 -0.3436
14671TIP3    H265429   0.435   1.843  13.767  0.8470  0.5033 -0.6407
14672TIP3   OH265430   2.700   1.378   3.147  0.6974  0.0862  0.3594
14672TIP3    H165431   2.719   1.287   3.173  1.8191  0.6672  1.7753
14672TIP3    H265432   2.608   1.390   3.168  1.0680 -0.1005  2.3675
14673TIP3   OH265433   1.590   5.219  14.122  0.4187  0.1849  0.2687
14673TIP3    H165434   1.596   5.212  14.217 -2.3619 -1.5650  0.4312
14673TIP3    H265435   1.510   5.269  14.106  1.1711  0.9951 -1.1836
14674TIP3   OH265436   6.647   4.819   3.364  0.0678 -0.3757  0.0090
14674TIP3    H165437   6.594   4.785   3.292  0.3498 -2.2346  0.6305
14674TIP3    H265438   6.584   4.831   3.435 -0.1112  0.9140 -0.3446
14675TIP3   OH265439   1.483   3.960  14.809 -0.0061 -0.1242 -0.1564
14675TIP3    H165440   1.470   3.867  14.832  0.7876 -0.1225  0.3378
14675TIP3    H265441   1.532   3.958  14.727  1.3542 -0.1624  0.6364
14676TIP3   OH265442   4.741   5.112  16.620 -0.1167  0.2337  0.5281
14676TIP3    H165443   4.814   5.137  16.677  1.3479 -2.6576  0.1040
14676TIP3    H265444   4.734   5.184  16.557  1.6174  1.1281  1.2862
14677TIP3   OH265445   2.944   4.144  11.818 -0.1901  0.1372 -0.2489
14677TIP3    H165446   2.855   4.112  11.831 -0.7249  1.5739 -0.2443
14677TIP3    H265447   2.972   4.174  11.905 -0.7430  2.2184 -0.7470
14678TIP3   OH265448   3.189   0.560   0.655  0.0369  0.2548  0.2651
14678TIP3    H165449   3.226   0.476   0.683 -0.1798  0.6057  1.7150
14678TIP3    H265450   3.264   0.619   0.647 -0.0582  0.8211  2.6735
14679TIP3   OH265451   4.659   5.136  15.300 -0.0095  0.1879  0.4853
14679TIP3    H165452   4.751   5.162  15.293  0.0755 -0.1613  0.3121
14679TIP3    H265453   4.661   5.042  15.319 -0.3415  0.0874  0.0327
14680TIP3   OH265454   0.442   5.292  13.483 -0.5366 -0.2309 -0.3120
14680TIP3    H165455   0.456   5.382  13.454 -1.7921 -0.1930 -0.8549
14680TIP3    H265456   0.429   5.300  13.578  0.8626 -0.0422 -0.1067
14681TIP3   OH265457   1.497   5.908  12.298 -0.1015  0.2927 -0.0519
14681TIP3    H165458   1.586   5.874  12.312 -0.8069 -1.3344  0.6322
14681TIP3    H265459   1.506   6.003  12.311  1.1360 -0.0713  2.2511
14682TIP3   OH265460   4.172   0.466   6.156  0.4235 -0.0237  0.2977
14682TIP3    H165461   4.201   0.556   6.170  1.4028 -0.2893  0.0276
14682TIP3    H265462   4.081   0.466   6.186 -1.7660  2.5788 -4.9434
14683TIP3   OH265463   2.804   0.862   6.167  0.6223  0.4165  0.1878
14683TIP3    H165464   2.724   0.832   6.211  1.1927 -0.3835  0.7104
14683TIP3    H265465   2.871   0.799   6.194  0.9207 -0.3678 -2.1108
14684TIP3   OH265466   5.829   6.307   0.974 -0.3644 -0.0981 -0.1038
14684TIP3    H165467   5.844   6.243   1.043 -0.3123  0.6256  0.5693
14684TIP3    H265468   5.737   6.333   0.985  0.0707  1.2065  0.7511
14685TIP3   OH265469   0.429   3.228   4.866 -0.0376  0.2659  0.6327
14685TIP3    H165470   0.453   3.217   4.774  1.7885  1.7846  0.8540
14685TIP3    H265471   0.342   3.267   4.864 -1.1152 -2.0180 -0.3435
14686TIP3   OH265472   0.339   3.001   6.168 -0.0133 -0.1009 -0.6356
14686TIP3    H165473   0.376   2.957   6.244  0.5737 -0.2037 -0.9766
14686TIP3    H265474   0.390   2.969   6.094 -2.2633 -2.0722 -1.4751
14687TIP3   OH265475   3.276   0.499  11.305  0.2252 -0.0761 -0.2940
14687TIP3    H165476   3.294   0.544  11.223 -0.3343 -0.0298 -0.3994
14687TIP3    H265477   3.229   0.564  11.358 -0.8202 -0.5989 -0.5477
14688TIP3   OH265478   2.885   2.044  14.451  0.0938  0.7971  0.5336
14688TIP3    H165479   2.827   2.059  14.377  1.6314  0.7676 -0.7260
14688TIP3    H265480   2.939   1.970  14.425  1.4887  1.5596  1.1437
14689TIP3   OH265481   1.988   5.937  12.971 -0.0152 -0.1401  0.8218
14689TIP3    H165482   1.901   5.938  13.011 -0.8635  0.4527 -0.9049
14689TIP3    H265483   2.022   6.025  12.984 -1.1462  0.6943 -1.3868
14690TIP3   OH265484   5.956   5.418   1.304 -0.2454  0.0944 -0.1097
14690TIP3    H165485   5.865   5.409   1.275  0.3401 -1.4599 -1.5656
14690TIP3    H265486   6.002   5.344   1.265  1.6151  0.6820  0.8371
14691TIP3   OH265487   6.530   3.842  16.108 -1.0651 -0.0927 -0.5753
14691TIP3    H165488   6.579   3.924  16.111  1.9517 -1.7921 -0.5505
14691TIP3    H265489   6.521   3.817  16.200 -1.6226 -0.0252 -0.6068
14692TIP3   OH265490   2.462   1.714  11.353  0.6849  0.1788 -0.1767
14692TIP3    H165491   2.552   1.742  11.336  0.7642  1.2940  1.7326
14692TIP3    H265492   2.471   1.631  11.399  0.6561 -0.4078 -1.2011
14693TIP3   OH265493   2.230   2.560  13.566 -0.4114 -0.7878 -0.3775
14693TIP3    H165494   2.288   2.548  13.491  2.0544 -2.9473  1.7030
14693TIP3    H265495   2.239   2.653  13.589  2.2036 -1.0402 -0.1883
14694TIP3   OH265496   2.348   1.507  12.765 -0.6291 -0.5200  0.9463
14694TIP3    H165497   2.373   1.599  12.752  0.7194 -0.9712  0.1718
14694TIP3    H265498   2.274   1.511  12.825  0.4001  1.0072  2.2149
14695TIP3   OH265499   6.747   6.564   2.569  0.3503  0.5868  0.9492
14695TIP3    H165500   6.739   6.654   2.538  0.6444 -0.1224 -1.4770
14695TIP3    H265501   6.710   6.511   2.498 -0.0524 -1.2043  2.4115
14696TIP3   OH265502   6.543   4.855  12.841  0.2254  0.6429 -0.5588
14696TIP3    H165503   6.528   4.928  12.901  1.9806  0.0376  0.7053
14696TIP3    H265504   6.516   4.777  12.890  0.8414  0.2183 -0.8751
14697TIP3   OH265505   3.755   3.329  12.869 -0.6727 -0.3474  0.5074
14697TIP3    H165506   3.745   3.308  12.776 -0.9943  0.5176  0.3340
14697TIP3    H265507   3.775   3.423  12.870  0.2405 -0.5337  1.2643
14698TIP3   OH265508   6.011   4.649  15.351 -0.7387  0.3054 -0.0143
14698TIP3    H165509   5.926   4.637  15.395 -0.8800 -1.6276 -0.7445
14698TIP3    H265510   6.071   4.593  15.400 -0.3779 -0.0529 -0.8696
14699TIP3   OH265511   2.160   3.341   0.183 -0.1851  0.7147  0.1571
14699TIP3    H165512   2.254   3.338   0.164 -0.1844  3.2189 -0.5936
14699TIP3    H265513   2.155   3.341   0.279  0.5054 -0.2903  0.2108
14700TIP3   OH265514   6.449   1.542   0.387  0.7183  0.4942  1.1425
14700TIP3    H165515   6.506   1.604   0.342  0.3718 -0.4736 -0.7043
14700TIP3    H265516   6.474   1.457   0.352 -2.4740  0.0979 -0.5226
14701TIP3   OH265517   4.053   0.012  11.572 -0.4280  0.1407  0.2226
14701TIP3    H165518   4.109  -0.009  11.498 -1.1275 -0.4062 -0.1660
14701TIP3    H265519   3.965  -0.012  11.543 -0.7763  0.3835  1.0491
14702TIP3   OH265520   1.105   3.940  16.267  0.4657 -0.4364 -0.5214
14702TIP3    H165521   1.155   3.860  16.251  2.3074  0.7387 -0.9317
14702TIP3    H265522   1.061   3.958  16.183  0.5832 -0.6516 -0.6313
14703TIP3   OH265523   6.165   1.999  15.558  0.6845 -0.0027 -0.4866
14703TIP3    H165524   6.142   2.059  15.487  1.6837  1.1014  0.1036
14703TIP3    H265525   6.094   1.935  15.558 -0.5197  1.2760 -1.0206
14704TIP3   OH265526   4.432   5.510  14.918  0.6208 -0.0762  0.0969
14704TIP3    H165527   4.464   5.463  14.995 -0.7289 -0.0190  0.7234
14704TIP3    H265528   4.418   5.442  14.853  3.1569  0.0336 -0.6471
14705TIP3   OH265529   0.592   1.779   1.149 -0.4644 -0.0088  0.1540
14705TIP3    H165530   0.498   1.788   1.133 -0.3204  3.7902  0.5465
14705TIP3    H265531   0.632   1.781   1.062 -0.6109  2.8628  0.0653
14706TIP3   OH265532   6.302   2.768  15.180  0.6015  0.4383 -0.1580
14706TIP3    H165533   6.341   2.825  15.114  1.6525  0.6529  0.6298
14706TIP3    H265534   6.333   2.680  15.158  0.6560  0.4578 -0.1583
14707TIP3   OH265535   6.347   3.947  11.058  0.0732 -0.1373  0.4775
14707TIP3    H165536   6.266   3.903  11.034  0.0699  0.3353 -0.4648
14707TIP3    H265537   6.378   3.986  10.976  0.4008  1.0580  1.1338
14708TIP3   OH265538   2.802   4.710   6.106 -0.2477 -0.2100 -0.4039
14708TIP3    H165539   2.744   4.787   6.110 -0.0798 -0.1138  0.2661
14708TIP3    H265540   2.873   4.730   6.168 -0.3169 -1.0015 -0.0565
14709TIP3   OH265541   1.425   2.616   1.857  0.6667 -0.2824 -0.8852
14709TIP3    H165542   1.403   2.561   1.782  0.4257 -1.4925  0.0571
14709TIP3    H265543   1.512   2.587   1.883  0.4945 -0.2860 -0.3127
14710TIP3   OH265544   6.096   3.175  11.487  0.0890  0.1380 -0.0978
14710TIP3    H165545   6.161   3.166  11.418 -0.0896  1.3888 -0.4465
14710TIP3    H265546   6.147   3.189  11.567  0.2612  0.6592 -0.2972
14711TIP3   OH265547   1.966   5.587   3.341  0.1443  0.2220  0.7424
14711TIP3    H165548   1.885   5.597   3.291 -0.8750  2.1087  2.6276
14711TIP3    H265549   1.977   5.492   3.351 -2.3842 -0.0747  1.2796
14712TIP3   OH265550   6.356   4.431  16.363 -0.7311 -0.6100  0.4747
14712TIP3    H165551   6.434   4.484  16.353 -1.4208  1.2456  3.5549
14712TIP3    H265552   6.387   4.347  16.397  0.0669 -0.6874 -0.4359
14713TIP3   OH265553   3.479   5.972  13.450  0.3539 -0.3896 -0.1601
14713TIP3    H165554   3.415   5.921  13.400  1.2819 -0.5185 -1.2482
14713TIP3    H265555   3.563   5.931  13.430  0.6479 -1.4224  2.7243
14714TIP3   OH265556   4.563   5.349  14.144  0.3681  0.9248 -0.1460
14714TIP3    H165557   4.520   5.392  14.070  2.2067  2.5038 -0.3728
14714TIP3    H265558   4.635   5.407  14.167  1.4266 -0.8229  1.2276
14715TIP3   OH265559   5.022   4.585   1.504  0.1582  0.5103 -0.3655
14715TIP3    H165560   5.051   4.676   1.500  3.3936 -0.2135  2.0767
14715TIP3    H265561   5.069   4.542   1.432  1.7173  0.1665  0.8051
14716TIP3   OH265562   4.534   0.536  16.177  0.1748 -0.3173  0.7644
14716TIP3    H165563   4.446   0.507  16.154  0.4276 -0.6817  0.2286
14716TIP3    H265564   4.592   0.487  16.118  0.5304  2.6113 -1.5916
14717TIP3   OH265565   6.767   4.106   4.283  0.2685  0.6135  0.1049
14717TIP3    H165566   6.763   4.202   4.280  0.8714  0.6311 -0.5301
14717TIP3    H265567   6.821   4.083   4.207 -1.1691 -0.3118 -0.6884
14718TIP3   OH265568   2.653   4.866  13.010 -0.5446  0.0166  0.5736
14718TIP3    H165569   2.577   4.919  13.031 -0.1257  0.7127  0.3637
14718TIP3    H265570   2.619   4.791  12.961 -1.2470 -0.3687  1.6153
14719TIP3   OH265571   0.904   1.867   2.844  0.4294 -0.4858 -0.4213
14719TIP3    H165572   0.874   1.916   2.920  1.1166  0.4191 -0.7074
14719TIP3    H265573   0.863   1.910   2.769 -0.4449 -1.5289 -0.5588
14720TIP3   OH265574   2.502   0.958  14.960 -0.3097 -0.6951 -0.2171
14720TIP3    H165575   2.549   0.987  14.882 -0.6301  0.4421  0.0036
14720TIP3    H265576   2.417   1.002  14.955 -1.2701 -2.4730 -0.4522
14721TIP3   OH265577   3.827   2.535  12.867 -0.3981 -0.2741 -0.1203
14721TIP3    H165578   3.824   2.631  12.861 -0.3011 -0.3127 -0.8468
14721TIP3    H265579   3.908   2.511  12.822 -0.3376 -0.6927  0.2056
14722TIP3   OH265580   2.441   5.509  17.013  0.3233 -0.1651 -0.4142
14722TIP3    H165581   2.400   5.591  16.983 -1.8011 -1.1347 -0.3830
14722TIP3    H265582   2.441   5.452  16.935  0.8222 -0.4910 -0.1806
14723TIP3   OH265583   1.542   6.801  15.902 -0.5493 -0.2680  0.1155
14723TIP3    H165584   1.592   6.777  15.824 -1.0704  0.8794 -0.5977
14723TIP3    H265585   1.526   6.718  15.946 -0.0151 -0.9138 -0.8607
14724TIP3   OH265586   5.317   0.327   4.957  0.1637 -0.5112  0.1425
14724TIP3    H165587   5.248   0.320   4.891 -0.4627  1.9281  0.4316
14724TIP3    H265588   5.272   0.313   5.040  0.2908 -0.3184  0.2450
14725TIP3   OH265589   5.056   0.888  12.261 -0.2586  0.0117 -0.0962
14725TIP3    H165590   5.077   0.863  12.352 -1.5155 -1.3598 -0.1567
14725TIP3    H265591   5.132   0.859  12.211 -0.3869 -0.9685  0.2613
14726TIP3   OH265592   6.013   6.202  14.790 -0.4443  0.4731 -0.3966
14726TIP3    H165593   5.927   6.211  14.749 -0.8079 -2.3631 -0.4554
14726TIP3    H265594   5.994   6.166  14.877  0.6423  1.1607  0.1474
14727TIP3   OH265595   2.648   5.269   1.721 -0.2366  0.5275  0.2462
14727TIP3    H165596   2.657   5.361   1.744 -0.2811  0.5037  0.3586
14727TIP3    H265597   2.555   5.256   1.705 -0.1452  0.6552 -0.4289
14728TIP3   OH265598   0.969   5.676  16.258  0.2012 -0.2279  0.1310
14728TIP3    H165599   1.061   5.651  16.263  0.2893 -0.0638 -0.5680
14728TIP3    H265600   0.969   5.762  16.215 -0.1524  0.6827  1.8631
14729TIP3   OH265601   1.343   4.294  13.400  0.5682  0.1340  0.0173
14729TIP3    H165602   1.325   4.261  13.312  0.2219  0.7690 -0.1566
14729TIP3    H265603   1.324   4.387  13.395 -0.6296 -0.0308  1.0814
14730TIP3   OH265604   3.098   2.832   3.508  0.1747 -0.2221  0.1514
14730TIP3    H165605   3.072   2.740   3.514 -0.6799  0.0498  0.9916
14730TIP3    H265606   3.055   2.874   3.583  1.0100  0.7567  0.1116
14731TIP3   OH265607   1.090   3.689  16.786 -0.2661 -0.1556  0.3818
14731TIP3    H165608   1.124   3.686  16.875 -0.3114 -2.0705  0.3844
14731TIP3    H265609   0.995   3.681  16.797 -0.3121  0.1184  0.1820
14732TIP3   OH265610   5.840   0.218  16.990 -0.2665 -0.2052 -0.2720
14732TIP3    H165611   5.891   0.220  16.909 -0.3564  0.6104 -0.3112
14732TIP3    H265612   5.894   0.166  17.050  0.5999  0.6014 -0.3262
14733TIP3   OH265613   3.522   0.910  12.737 -0.1172 -0.0399 -0.1730
14733TIP3    H165614   3.517   0.979  12.670 -2.0478  0.3773  0.3430
14733TIP3    H265615   3.451   0.931  12.798  1.6195 -0.3570  2.0924
14734TIP3   OH265616   4.676   5.663  14.013  0.0033 -0.1597  0.1094
14734TIP3    H165617   4.669   5.688  13.921  1.8041  1.5201  0.3586
14734TIP3    H265618   4.628   5.731  14.060 -1.5257 -1.3977  0.4214
14735TIP3   OH265619   5.267   6.110   4.489  0.1287  0.3148 -0.1295
14735TIP3    H165620   5.250   6.192   4.536  0.8954  0.0125  0.7140
14735TIP3    H265621   5.272   6.044   4.558 -1.5587 -0.6569 -0.8701
14736TIP3   OH265622   5.331   6.054  16.159  0.4081  0.0036  0.1332
14736TIP3    H165623   5.317   5.973  16.207 -2.1132 -1.3372 -2.5510
14736TIP3    H265624   5.272   6.117  16.200  1.5401  0.2124  1.5043
14737TIP3   OH265625   3.594   3.364  15.629  0.2223  0.4105  0.0653
14737TIP3    H165626   3.655   3.291  15.642  0.2803  0.4446 -0.0143
14737TIP3    H265627   3.582   3.368  15.534  0.0412  0.3581  0.0858
14738TIP3   OH265628   1.478   1.047  12.454 -0.2326 -0.2024  0.4541
14738TIP3    H165629   1.401   1.102  12.448 -0.1639 -0.0214  1.1345
14738TIP3    H265630   1.457   0.983  12.522  0.7348  0.7323  1.6860
14739TIP3   OH265631   0.903   6.528   2.959  0.1053  0.2016 -0.0410
14739TIP3    H165632   0.849   6.577   2.898 -0.2065 -0.3897 -0.2443
14739TIP3    H265633   0.946   6.595   3.012 -0.3840  0.6884 -0.2532
14740TIP3   OH265634   2.675   2.348  15.763  0.2289  0.0255 -0.4130
14740TIP3    H165635   2.684   2.286  15.690 -1.3644  1.0485 -1.5474
14740TIP3    H265636   2.764   2.379  15.778  0.5225  0.4601 -2.5932
14741TIP3   OH265637   6.764   1.475  15.741  0.0143  0.1330 -0.1727
14741TIP3    H165638   6.765   1.412  15.669 -0.0589 -1.2516  0.9819
14741TIP3    H265639   6.697   1.440  15.801 -0.4065  1.6166  0.2521
14742TIP3   OH265640   2.544   1.801  12.080 -0.1654 -0.1640 -0.1645
14742TIP3    H165641   2.610   1.798  12.148  0.0275  0.8462 -0.2835
14742TIP3    H265642   2.480   1.735  12.105 -0.4050  0.5967  1.3244
14743TIP3   OH265643   1.537   3.279   3.909 -0.4255 -0.7218 -0.2752
14743TIP3    H165644   1.522   3.271   3.815 -1.0513  2.1533 -0.5298
14743TIP3    H265645   1.456   3.248   3.949 -0.0827 -2.1471 -0.6180
14744TIP3   OH265646   0.768   2.288   3.622 -0.0030  0.5122  0.1389
14744TIP3    H165647   0.698   2.338   3.581 -1.0034  0.0977  1.2848
14744TIP3    H265648   0.727   2.206   3.648  1.4191 -0.6005 -0.9730
14745TIP3   OH265649   1.423   6.264   3.576 -0.2855  0.9054 -0.2276
14745TIP3    H165650   1.403   6.170   3.569  1.0031  0.5449  0.6031
14745TIP3    H265651   1.338   6.306   3.589 -0.9533 -0.0718 -1.2146
14746TIP3   OH265652   4.854   2.517   5.193  0.2274  0.0457 -0.3926
14746TIP3    H165653   4.933   2.546   5.149  0.2455  2.4072  1.0387
14746TIP3    H265654   4.782   2.548   5.137  0.2919  0.5423 -0.2083
14747TIP3   OH265655   2.955   1.072  15.301  0.6156  0.5994  1.2182
14747TIP3    H165656   3.039   1.027  15.303  0.8688  1.0296  0.4158
14747TIP3    H265657   2.890   1.001  15.301  1.0154  0.1264 -1.4972
14748TIP3   OH265658   6.360   5.980   4.350  0.3590  0.8860  0.3599
14748TIP3    H165659   6.365   6.026   4.267 -0.8400  0.0464 -0.2061
14748TIP3    H265660   6.397   5.893   4.332  2.3591  1.4835  1.3467
14749TIP3   OH265661   4.536   6.304   4.085  0.0958  0.1617 -0.2234
14749TIP3    H165662   4.572   6.379   4.133 -1.7515  0.5220  0.6959
14749TIP3    H265663   4.444   6.326   4.072 -0.6361 -2.1677  0.5814
14750TIP3   OH265664   0.817   1.665   1.336  0.2669 -0.6321 -0.0930
14750TIP3    H165665   0.741   1.694   1.284  0.9341 -0.8244 -1.2197
14750TIP3    H265666   0.832   1.575   1.306  1.3708 -0.3503 -0.4145
14751TIP3   OH265667   4.274   4.464  14.161  0.4551 -0.5976 -0.4433
14751TIP3    H165668   4.252   4.557  14.168 -0.6269 -0.9216  0.7644
14751TIP3    H265669   4.300   4.438  14.250 -1.1074 -1.8750 -0.3120
14752TIP3   OH265670   0.137   3.795  10.992 -0.4549 -0.3286 -0.1261
14752TIP3    H165671   0.220   3.752  11.012 -0.8071 -0.6633  0.6762
14752TIP3    H265672   0.071   3.726  11.004 -0.9845  0.3048  0.7463
14753TIP3   OH265673   4.090   3.497   1.000  0.8617  0.3606 -0.3839
14753TIP3    H165674   4.099   3.425   1.061 -0.0860  1.4963  1.1736
14753TIP3    H265675   3.999   3.525   1.009  0.8950  1.0043 -1.8194
14754TIP3   OH265676   0.609   3.189  16.873  0.5770 -0.3817  0.1410
14754TIP3    H165677   0.654   3.270  16.900  1.3257 -0.3689 -1.0914
14754TIP3    H265678   0.660   3.156  16.800 -0.4744 -1.2926 -0.2109
14755TIP3   OH265679   2.243   5.233   0.614  0.3528 -0.1576  0.0496
14755TIP3    H165680   2.184   5.307   0.631  1.3391  0.4261  1.0532
14755TIP3    H265681   2.319   5.273   0.570  0.3759 -0.7662 -0.4729
14756TIP3   OH265682   4.096   4.544   3.938  0.3877  0.2017  0.4720
14756TIP3    H165683   4.002   4.536   3.951 -0.1411  2.3528 -1.3762
14756TIP3    H265684   4.114   4.637   3.951  2.0549  0.0146 -0.2661
14757TIP3   OH265685   1.799   5.638   1.153  0.7179  0.1560 -0.5251
14757TIP3    H165686   1.889   5.664   1.171  0.9189  0.6898 -2.1376
14757TIP3    H265687   1.745   5.713   1.179  0.8132  0.1460 -0.3019
14758TIP3   OH265688   0.046   3.071  12.236  0.5862  0.0437  0.3856
14758TIP3    H165689   0.095   3.040  12.160  0.0564 -0.2266  0.1497
14758TIP3    H265690  -0.023   3.005  12.249  0.4939  0.2369  0.9225
14759TIP3   OH265691   6.768   1.155  16.444  0.1029  0.2050 -0.1872
14759TIP3    H165692   6.680   1.176  16.411 -0.2276 -0.6380  0.1298
14759TIP3    H265693   6.820   1.139  16.365 -0.6455 -1.6457 -0.3529
14760TIP3   OH265694   3.117   2.159  12.228  0.1759 -0.4143 -0.1218
14760TIP3    H165695   3.191   2.130  12.282  0.3723 -1.7010 -1.0280
14760TIP3    H265696   3.156   2.213  12.160  0.4172 -1.6931 -1.0350
14761TIP3   OH265697   5.254   5.975  14.410  0.1790 -0.7631  0.7951
14761TIP3    H165698   5.230   5.986  14.318 -1.1491 -0.5548  1.1466
14761TIP3    H265699   5.171   5.968  14.456  0.7588  0.9031  2.1986
14762TIP3   OH265700   5.090   4.057   1.952  0.0434  0.3982 -0.2971
14762TIP3    H165701   5.122   4.094   1.870  0.1956  1.4336  0.2163
14762TIP3    H265702   4.996   4.069   1.949  0.0559  0.4984 -0.2885
14763TIP3   OH265703   4.030   1.086  14.452  0.4014  0.7209  0.9552
14763TIP3    H165704   3.972   1.010  14.445  1.7875 -0.2787 -0.0355
14763TIP3    H265705   4.116   1.049  14.470  0.9806  2.1100  1.1345
14764TIP3   OH265706   4.901   2.720  16.823 -0.5711 -0.0318 -0.0780
14764TIP3    H165707   4.903   2.791  16.887 -0.8168 -0.1035  0.0127
14764TIP3    H265708   4.925   2.642  16.873 -2.7014 -0.4427  0.4226
14765TIP3   OH265709   1.377   0.009  12.563  0.6843 -0.2584  0.7594
14765TIP3    H165710   1.331   0.001  12.646  0.9270 -0.1560  0.9050
14765TIP3    H265711   1.421  -0.075  12.551 -0.8018 -0.9439 -0.1481
14766TIP3   OH265712   6.746   3.602  16.285 -0.1566  0.1426 -0.0174
14766TIP3    H165713   6.840   3.620  16.286 -0.2389  0.6390  1.0539
14766TIP3    H265714   6.713   3.644  16.365 -1.2863 -0.0412 -0.3628
14767TIP3   OH265715   1.614   1.451  16.176 -0.1584  0.0894 -0.3889
14767TIP3    H165716   1.610   1.462  16.271 -0.2486 -0.2172 -0.3569
14767TIP3    H265717   1.651   1.364  16.163 -2.8409 -1.1246 -0.5865
14768TIP3   OH265718   0.022   2.783   4.982  0.4426  0.2317 -0.3268
14768TIP3    H165719  -0.068   2.774   4.949 -0.1425 -1.0326  1.4321
14768TIP3    H265720   0.040   2.699   5.025  1.8089  1.0843  0.8525
14769TIP3   OH265721   1.189   6.188  11.017 -0.2146 -0.1649  0.7085
14769TIP3    H165722   1.180   6.247  10.942 -0.8963  0.2069  1.0753
14769TIP3    H265723   1.207   6.246  11.091  1.9157 -0.6239  0.6206
14770TIP3   OH265724   4.220   6.231   2.031 -0.6179  0.6086  0.3142
14770TIP3    H165725   4.174   6.153   1.999  0.0735 -0.1546  1.1144
14770TIP3    H265726   4.209   6.296   1.961 -0.9084 -0.3221 -0.5295
14771TIP3   OH265727   4.504   0.514   4.482  0.1904  0.1296 -0.3466
14771TIP3    H165728   4.410   0.500   4.496  0.8192 -3.1727  1.7045
14771TIP3    H265729   4.540   0.523   4.570  1.8884  1.0108 -1.0862
14772TIP3   OH265730   0.424   0.009  10.435 -0.2771  0.3961  0.0857
14772TIP3    H165731   0.438   0.083  10.493 -1.8594 -0.1002  1.1756
14772TIP3    H265732   0.484  -0.059  10.468 -0.0055  0.6428  0.1059
14773TIP3   OH265733   1.204   3.941   0.508 -0.1844  0.0769  0.5646
14773TIP3    H165734   1.196   3.960   0.414 -0.2479 -1.9492  0.1066
14773TIP3    H265735   1.135   3.877   0.525  0.5160 -0.3891  1.7442
14774TIP3   OH265736   5.815   1.857  12.835 -0.2616  0.3555 -0.0127
14774TIP3    H165737   5.749   1.925  12.847  0.0960  0.7764 -0.3644
14774TIP3    H265738   5.898   1.903  12.848  0.0536  0.3175 -1.6490
14775TIP3   OH265739   3.966   3.979   5.234 -0.3802  0.3483  0.3178
14775TIP3    H165740   4.011   4.040   5.293  0.9440 -0.0952 -0.1883
14775TIP3    H265741   4.004   3.997   5.148 -0.5254 -0.6694  0.0340
14776TIP3   OH265742   3.636   3.202   5.158  0.0607  0.3555  0.1924
14776TIP3    H165743   3.579   3.183   5.233 -0.1132 -0.2925 -0.0866
14776TIP3    H265744   3.676   3.286   5.178 -1.2116  0.9670  0.2777
14777TIP3   OH265745   0.377   1.456   0.190 -0.1236 -0.2230  1.2232
14777TIP3    H165746   0.407   1.540   0.156 -1.2744 -1.6691 -4.5041
14777TIP3    H265747   0.457   1.411   0.218  1.1827  1.0641 -0.2726
14778TIP3   OH265748   2.891   1.104   0.114  0.5236  0.0376  0.9036
14778TIP3    H165749   2.802   1.115   0.146 -0.2285  1.4550 -1.3745
14778TIP3    H265750   2.885   1.035   0.048  1.3264 -0.5015  1.3683
14779TIP3   OH265751   3.193   3.501   3.507  0.1029 -0.2412 -0.3926
14779TIP3    H165752   3.238   3.467   3.430  2.7072  0.4855  0.7165
14779TIP3    H265753   3.206   3.434   3.574  1.4407  0.9135  0.5478
14780TIP3   OH265754   5.987   4.238  10.761  0.4775 -0.4838  0.2631
14780TIP3    H165755   6.026   4.170  10.816  2.3090 -0.5865 -1.0577
14780TIP3    H265756   5.894   4.220  10.761  0.5860 -1.2587  2.2404
14781TIP3   OH265757   4.523   1.572  13.814 -0.2088  0.1671  0.0091
14781TIP3    H165758   4.463   1.573  13.889 -1.3892  0.8722 -0.9240
14781TIP3    H265759   4.608   1.593  13.852 -0.5919 -0.5278  1.3121
14782TIP3   OH265760   3.486   4.156  12.957 -0.4114 -0.3110 -0.8802
14782TIP3    H165761   3.493   4.204  13.039 -0.9595 -1.2489 -0.2688
14782TIP3    H265762   3.479   4.224  12.890  0.0464  0.4629 -0.1591
14783TIP3   OH265763   0.196   4.341  15.662 -0.3416  0.5068  0.0729
14783TIP3    H165764   0.218   4.373  15.750  0.7744  0.2200 -0.0770
14783TIP3    H265765   0.222   4.249  15.663  0.8604  0.8069 -0.9206
14784TIP3   OH265766   5.839   6.632   5.358  0.6000 -0.1520 -0.4938
14784TIP3    H165767   5.915   6.682   5.328  1.8462 -0.3722  1.9861
14784TIP3    H265768   5.833   6.559   5.297  2.0900  0.1442 -1.0432
14785TIP3   OH265769   4.549   1.588  11.586  0.0835  0.0641 -0.1584
14785TIP3    H165770   4.519   1.579  11.676  0.1102 -1.0017 -0.2347
14785TIP3    H265771   4.644   1.586  11.592  0.0902 -1.2877 -0.2888
14786TIP3   OH265772   3.637   0.823  16.797 -0.1712  0.7789  0.2261
14786TIP3    H165773   3.551   0.844  16.762  0.2044  2.3743  0.1982
14786TIP3    H265774   3.669   0.751  16.742 -1.3955  0.2805  0.1370
14787TIP3   OH265775   5.483   2.990  14.412  0.3320  0.2258  0.2100
14787TIP3    H165776   5.485   3.042  14.493 -1.0743 -2.1221  1.8802
14787TIP3    H265777   5.463   3.054  14.343  0.9632  2.2200  1.7762
14788TIP3   OH265778   1.405   0.469  13.182 -0.1091  0.1627  0.6328
14788TIP3    H165779   1.349   0.540  13.149  1.2762  2.2252  2.4676
14788TIP3    H265780   1.371   0.391  13.138 -4.0636  1.3103  1.1992
14789TIP3   OH265781   3.263   6.121   3.949  0.0972  0.3520 -0.9029
14789TIP3    H165782   3.300   6.045   3.905  0.1975  0.4811 -1.0408
14789TIP3    H265783   3.172   6.123   3.919 -0.2028 -0.3221 -0.0894
14790TIP3   OH265784   2.834   6.781  13.110 -0.0870  0.0130 -0.3028
14790TIP3    H165785   2.749   6.753  13.142  0.0193 -0.0400 -0.0625
14790TIP3    H265786   2.827   6.877  13.103 -1.5411 -0.1750 -4.2108
14791TIP3   OH265787   5.446   6.125  14.091  0.2481  0.1107 -0.2232
14791TIP3    H165788   5.461   6.051  14.033 -1.4545 -1.7242  1.5459
14791TIP3    H265789   5.521   6.183  14.074  1.9500 -2.2086 -1.3081
14792TIP3   OH265790   3.365   4.089  13.335  0.5159  0.1254 -0.0895
14792TIP3    H165791   3.290   4.145  13.321  0.3136 -0.3289 -0.9028
14792TIP3    H265792   3.430   4.118  13.271  0.1364 -1.0204 -1.0348
14793TIP3   OH265793   6.026   4.306  11.406  0.2834  0.0470  0.3650
14793TIP3    H165794   6.113   4.313  11.366 -0.2191 -0.6345 -0.9073
14793TIP3    H265795   5.967   4.340  11.339 -0.5057 -0.2098  0.9169
14794TIP3   OH265796   1.292   3.070  12.210  0.9022 -0.0215  0.3568
14794TIP3    H165797   1.248   3.121  12.141  0.8479  0.1741  0.5358
14794TIP3    H265798   1.346   3.007  12.162 -0.8463 -1.3899  0.1179
14795TIP3   OH265799   1.312   6.244  12.203 -0.4657 -0.4136  0.1686
14795TIP3    H165800   1.373   6.261  12.132  0.9554  1.2470  1.6948
14795TIP3    H265801   1.268   6.328  12.218  1.1867  0.0869  2.9042
14796TIP3   OH265802   0.973   6.647  15.417  0.3452 -1.0631  0.4937
14796TIP3    H165803   1.042   6.598  15.462 -0.4789 -1.9891  0.7792
14796TIP3    H265804   0.912   6.672  15.486  1.2696  1.3566  0.5337
14797TIP3   OH265805   0.937   6.515   4.285  0.2091 -0.3410 -0.4163
14797TIP3    H165806   0.907   6.511   4.194  0.7163  2.6108 -0.7994
14797TIP3    H265807   0.871   6.466   4.334 -1.1724 -0.2657 -2.1160
14798TIP3   OH265808   0.482   0.187  11.703  0.9815 -0.2229  0.2616
14798TIP3    H165809   0.460   0.094  11.712 -0.7760  0.0620 -0.5928
14798TIP3    H265810   0.514   0.196  11.613 -0.2802  0.2266 -0.1622
14799TIP3   OH265811   4.885   6.132  13.980  0.2710 -0.1233  0.2465
14799TIP3    H165812   4.840   6.047  13.972  1.8656 -0.9367 -0.6674
14799TIP3    H265813   4.922   6.131  14.068  0.2968 -0.3978  0.2349
14800TIP3   OH265814   0.309   2.532  12.745 -0.3374 -0.4087 -0.4664
14800TIP3    H165815   0.354   2.450  12.726 -1.0659 -0.4354 -2.2547
14800TIP3    H265816   0.348   2.562  12.827  0.9439 -1.8106 -0.5180
14801TIP3   OH265817   6.147   5.858  11.139 -0.2514 -0.0552  0.7731
14801TIP3    H165818   6.150   5.828  11.230 -0.2345 -0.7571  0.5486
14801TIP3    H265819   6.216   5.923  11.133 -2.2026  2.2800  2.0475
14802TIP3   OH265820   4.206   3.130   3.361 -0.2889 -0.4545 -0.0407
14802TIP3    H165821   4.139   3.078   3.316 -0.3275 -0.2978 -0.1657
14802TIP3    H265822   4.156   3.185   3.422 -0.1053 -2.2604  1.8611
14803TIP3   OH265823   1.890   1.140  16.356 -0.5088 -1.0666 -0.4499
14803TIP3    H165824   1.978   1.104  16.348  0.2092  0.6992 -1.1471
14803TIP3    H265825   1.840   1.074  16.404  0.2344 -3.6970 -3.0439
14804TIP3   OH265826   5.048   6.541   3.442 -0.3617 -0.4641 -0.5434
14804TIP3    H165827   5.092   6.624   3.421 -0.5129 -0.1019  0.5064
14804TIP3    H265828   5.119   6.481   3.463 -0.3041 -0.2175 -0.0121
14805TIP3   OH265829   0.213   0.069   1.870  0.0691 -0.0412 -0.2865
14805TIP3    H165830   0.303   0.092   1.893  0.0107 -1.6838  2.0236
14805TIP3    H265831   0.159   0.140   1.905  0.3078 -0.5079  1.0970
14806TIP3   OH265832   0.599   0.064  12.071 -0.5885  0.2878 -0.8016
14806TIP3    H165833   0.666   0.028  12.013  0.8117  1.6271 -0.0936
14806TIP3    H265834   0.618   0.157  12.076 -2.5405  0.7181 -0.5676
14807TIP3   OH265835   0.556   1.563   0.727  0.1133  0.9712 -0.2106
14807TIP3    H165836   0.592   1.475   0.739 -1.3236  0.5408  1.4607
14807TIP3    H265837   0.562   1.580   0.633 -0.2575 -1.2312 -0.6743
14808TIP3   OH265838   5.894   1.353  16.607  0.3282  0.0417  0.1524
14808TIP3    H165839   5.872   1.417  16.675  0.7342 -0.5941  0.8995
14808TIP3    H265840   5.888   1.402  16.525 -2.2114  0.3175  0.4317
14809TIP3   OH265841   3.849   1.060   4.971  0.0048 -0.1645  0.5778
14809TIP3    H165842   3.917   1.126   4.957 -1.1948  0.8561 -0.8086
14809TIP3    H265843   3.781   1.107   5.019 -0.8121 -0.4001 -0.3219
14810TIP3   OH265844   5.815   1.933  15.006 -0.3117  0.2086 -0.1820
14810TIP3    H165845   5.729   1.893  14.993 -1.2651  2.1146 -0.1095
14810TIP3    H265846   5.847   1.948  14.917 -1.7381  2.7936 -0.3606
14811TIP3   OH265847   0.791   1.986  15.194 -0.0769  0.0242  0.3381
14811TIP3    H165848   0.751   2.072  15.200 -1.7256 -0.5549 -1.2263
14811TIP3    H265849   0.865   1.989  15.254 -0.3906  2.3434  0.6919
14812TIP3   OH265850   6.408   2.022   6.283  0.5945 -0.3065  0.2439
14812TIP3    H165851   6.390   1.944   6.335 -1.9772 -1.1266 -1.6794
14812TIP3    H265852   6.334   2.081   6.302  1.4091  0.7951  0.0865
14813TIP3   OH265853   1.036   6.081  14.667  0.4924 -0.3641  0.1781
14813TIP3    H165854   1.024   6.043  14.580 -1.4023  1.4131 -0.4095
14813TIP3    H265855   0.975   6.033  14.723 -0.1989  0.2047 -0.0677
14814TIP3   OH265856   0.537   4.277   1.171  0.4958 -0.3347 -0.6039
14814TIP3    H165857   0.477   4.207   1.195 -2.6494  1.7750 -1.6548
14814TIP3    H265858   0.509   4.304   1.083  1.4185  2.3020 -0.1982
14815TIP3   OH265859   3.364   2.818  12.946 -0.0667 -0.4425 -0.0523
14815TIP3    H165860   3.403   2.735  12.972  1.4680  0.0178 -0.7765
14815TIP3    H265861   3.350   2.865  13.029 -0.3001 -1.1243  0.3052
14816TIP3   OH265862   0.364   1.953   0.814  0.0578 -0.5712 -0.2302
14816TIP3    H165863   0.326   2.005   0.743  1.4780 -1.5718 -1.7984
14816TIP3    H265864   0.371   1.865   0.778 -0.3382 -1.3977  1.6255
14817TIP3   OH265865   4.642   4.984  11.897  0.4384  0.1945  0.1719
14817TIP3    H165866   4.613   5.066  11.857  2.0810  0.9722  0.4715
14817TIP3    H265867   4.694   5.011  11.973 -0.7524 -1.1975  1.5617
14818TIP3   OH265868   4.830   6.118   4.598  0.0718  0.1911  0.2729
14818TIP3    H165869   4.793   6.030   4.586  1.1213  0.0184 -2.5150
14818TIP3    H265870   4.753   6.175   4.607 -1.2295 -0.1945 -4.9343
14819TIP3   OH265871   6.254   3.108  14.878 -0.1881  0.2680  0.3770
14819TIP3    H165872   6.192   3.049  14.833  0.9497 -1.7288  1.2852
14819TIP3    H265873   6.199   3.174  14.918 -1.3969  1.1583 -2.4503
14820TIP3   OH265874   3.759   5.478   1.311  0.1053  0.1358 -0.1259
14820TIP3    H165875   3.807   5.542   1.258  1.6843  0.0601  1.1424
14820TIP3    H265876   3.751   5.520   1.397 -1.3336 -0.2476 -0.0430
14821TIP3   OH265877   2.198   4.578  11.274 -0.4712  0.4281  0.0388
14821TIP3    H165878   2.276   4.610  11.229 -0.3535  0.6962  0.4321
14821TIP3    H265879   2.176   4.496  11.228  0.4925 -0.0564  0.4203
14822TIP3   OH265880   0.520   3.946  15.224  1.1430  0.0030 -0.1750
14822TIP3    H165881   0.596   3.999  15.200  1.2797 -0.6231 -1.1861
14822TIP3    H265882   0.470   3.938  15.143  1.4095 -1.8482 -0.2194
14823TIP3   OH265883   5.378   2.265  16.861  0.0630  0.0791 -0.1998
14823TIP3    H165884   5.323   2.299  16.791 -0.7763 -0.0936  0.3611
14823TIP3    H265885   5.393   2.174  16.839 -1.1170 -0.2767  0.3861
14824TIP3   OH265886   2.872   5.904   2.098  0.2756  0.8265 -0.0107
14824TIP3    H165887   2.855   5.854   2.178 -2.2987  1.0914 -0.3166
14824TIP3    H265888   2.824   5.858   2.030 -1.8566  3.3566 -0.3809
14825TIP3   OH265889   6.764   3.978   0.717  0.1175 -0.2799 -0.7065
14825TIP3    H165890   6.844   3.941   0.755  0.8608  0.5743 -1.4207
14825TIP3    H265891   6.708   3.901   0.702  1.1293 -0.9864 -0.9868
14826TIP3   OH265892   0.967   5.440   5.666 -0.2544 -0.1653  0.7823
14826TIP3    H165893   0.919   5.388   5.731  1.1831 -1.5196  0.8174
14826TIP3    H265894   0.995   5.518   5.714  0.6443 -1.0623  1.7971
14827TIP3   OH265895   2.788   0.733  16.324  0.5813  0.5001  0.0135
14827TIP3    H165896   2.817   0.813  16.368  0.8491  0.9929 -1.0270
14827TIP3    H265897   2.867   0.697  16.284  0.1058  0.8905 -1.3364
14828TIP3   OH265898   4.609   0.262  16.320  0.0826 -0.1211 -0.9413
14828TIP3    H165899   4.585   0.174  16.349  0.2074  0.2508  0.3505
14828TIP3    H265900   4.526   0.307  16.308  0.0423 -0.0427 -0.3862
14829TIP3   OH265901   2.965   1.392   5.490 -0.2348  0.4599  0.3274
14829TIP3    H165902   2.906   1.329   5.448  0.4986  0.9214 -1.5237
14829TIP3    H265903   2.931   1.478   5.463  0.6931  0.7487  0.0097
14830TIP3   OH265904   5.594   0.953  15.751  0.1611  0.5122  0.6136
14830TIP3    H165905   5.666   0.944  15.689 -0.8515  0.6031 -0.6308
14830TIP3    H265906   5.618   0.897  15.824  0.9871 -0.3325 -0.2706
14831TIP3   OH265907   2.240   2.101  12.091 -0.3631  0.0974  0.6044
14831TIP3    H165908   2.194   2.180  12.062 -0.2668  0.0575  0.3289
14831TIP3    H265909   2.172   2.045  12.126 -0.6765 -0.3549 -0.6732
14832TIP3   OH265910   3.515   3.296   1.249 -0.0508  0.3510 -0.2050
14832TIP3    H165911   3.573   3.234   1.205 -1.8645 -1.9641  0.4358
14832TIP3    H265912   3.489   3.252   1.330 -2.1426  1.5129 -0.1617
14833TIP3   OH265913   3.937   3.708   2.556  0.6968 -0.4879 -0.0376
14833TIP3    H165914   3.988   3.627   2.556 -1.1714 -1.7670  1.6694
14833TIP3    H265915   3.902   3.714   2.645  0.7839  2.2478 -0.1061
14834TIP3   OH265916   5.968   6.334   4.845 -0.5290  0.3341 -0.0924
14834TIP3    H165917   5.925   6.419   4.837 -0.2571  0.3611 -1.7358
14834TIP3    H265918   5.899   6.270   4.828 -0.4142  0.2889 -0.3924
14835TIP3   OH265919   1.647   3.420   2.517  0.2553  0.2616  0.3589
14835TIP3    H165920   1.615   3.346   2.569  0.6175  0.5217  0.9607
14835TIP3    H265921   1.725   3.451   2.564  0.8528  0.2154 -0.5930
14836TIP3   OH265922   2.606   3.089   2.902  0.3387  0.0781 -0.0035
14836TIP3    H165923   2.631   3.180   2.886  0.6375  0.0222  0.1426
14836TIP3    H265924   2.635   3.071   2.991 -3.4564  1.1400  1.6850
14837TIP3   OH265925   5.125   6.188  10.927 -0.2491  0.3122  0.3639
14837TIP3    H165926   5.157   6.213  10.840 -2.3010  0.0039 -0.5475
14837TIP3    H265927   5.204   6.172  10.979  1.0317 -0.5654 -1.7468
14838TIP3   OH265928   2.435   4.214   0.299 -0.0997 -0.4908 -0.6793
14838TIP3    H165929   2.407   4.185   0.386 -0.6544  1.4711 -0.1545
14838TIP3    H265930   2.465   4.134   0.255 -1.5039 -1.8057  0.6564
14839TIP3   OH265931   0.475   2.540  16.337  0.0663  0.9607 -0.1602
14839TIP3    H165932   0.466   2.635  16.328 -0.0284  1.1305  1.4199
14839TIP3    H265933   0.554   2.528  16.391 -0.6215  0.2166  0.7154
14840TIP3   OH265934   6.511   5.821   4.089 -0.0817 -0.1460 -0.2270
14840TIP3    H165935   6.488   5.914   4.097  1.1852  0.4176 -2.3221
14840TIP3    H265936   6.605   5.818   4.104  0.0419 -0.9461 -1.1134
14841TIP3   OH265937   0.496   1.746   4.557  0.2954  0.1704  0.5601
14841TIP3    H165938   0.484   1.720   4.648 -0.2435  0.1886  0.4964
14841TIP3    H265939   0.409   1.772   4.527  0.4759  0.2170  0.0557
14842TIP3   OH265940   3.320   4.252  15.897  0.7693 -0.0834  0.1590
14842TIP3    H165941   3.255   4.182  15.890  0.0246  0.6995 -1.0623
14842TIP3    H265942   3.404   4.205  15.902  0.5933 -1.1581 -3.7506
14843TIP3   OH265943   0.680   6.409  12.717 -0.4718 -0.2972  0.3726
14843TIP3    H165944   0.717   6.335  12.669 -2.3034 -0.5854 -0.6596
14843TIP3    H265945   0.692   6.484  12.658  3.3330  0.8454  2.2413
14844TIP3   OH265946   2.602   5.652   3.076 -0.0243  0.1114  0.3035
14844TIP3    H165947   2.519   5.656   3.029  0.8940  2.8458 -1.3773
14844TIP3    H265948   2.614   5.741   3.110  2.0047 -0.3031  0.8240
14845TIP3   OH265949   4.370   3.181  11.791  0.0982 -0.2948 -0.2298
14845TIP3    H165950   4.458   3.162  11.759 -0.3432 -1.0426 -1.0444
14845TIP3    H265951   4.312   3.141  11.727 -0.8294 -1.7108  1.4003
14846TIP3   OH265952   0.546   0.612   6.253 -0.2975  0.0241  0.2083
14846TIP3    H165953   0.457   0.578   6.251 -0.6059  0.7935 -1.9188
14846TIP3    H265954   0.539   0.694   6.302 -1.0303  0.6611 -0.9150
14847TIP3   OH265955   2.344   2.574   4.525 -0.1127  0.0325  0.1097
14847TIP3    H165956   2.402   2.617   4.461 -0.5947  0.2953 -0.1545
14847TIP3    H265957   2.389   2.584   4.609 -0.2864  1.1860  0.0748
14848TIP3   OH265958   4.268   3.656  11.968  0.5018 -0.0320 -0.5907
14848TIP3    H165959   4.264   3.626  12.058 -1.1946  0.5024 -0.4398
14848TIP3    H265960   4.266   3.576  11.915 -2.5333 -0.3343 -0.1759
14849TIP3   OH265961   4.164   5.265   4.685 -0.0029 -0.2750 -0.0043
14849TIP3    H165962   4.076   5.281   4.718  0.0944 -2.5283  1.5521
14849TIP3    H265963   4.208   5.350   4.694 -1.9205  0.8733 -0.7186
14850TIP3   OH265964   0.291   6.622   3.509 -0.4047  1.0797  0.1907
14850TIP3    H165965   0.277   6.685   3.438 -0.1435  0.7391 -0.1719
14850TIP3    H265966   0.221   6.558   3.498  0.2693  0.4362 -0.4316
14851TIP3   OH265967   1.435   3.911   5.337 -0.3328 -0.8128 -0.6674
14851TIP3    H165968   1.342   3.929   5.355 -0.5308 -0.9199 -1.5455
14851TIP3    H265969   1.469   3.994   5.304 -0.0303 -0.6839 -0.0424
14852TIP3   OH265970   0.269   6.011  11.876  0.0194  0.8119  0.0973
14852TIP3    H165971   0.255   6.089  11.929  0.1678 -0.7431  2.6570
14852TIP3    H265972   0.183   5.969  11.873  0.0661  0.7655 -0.7407
14853TIP3   OH265973   6.327   4.467  14.091  0.0059  0.3885 -0.2031
14853TIP3    H165974   6.241   4.510  14.091  0.4585  1.3375  0.5376
14853TIP3    H265975   6.389   4.539  14.086  0.9059  0.2028  4.1964
14854TIP3   OH265976   5.721   0.929  16.357  0.2102 -0.0841  0.7165
14854TIP3    H165977   5.785   0.868  16.320 -0.0305 -0.5210  1.0133
14854TIP3    H265978   5.667   0.875  16.414 -1.5025 -0.0739 -0.8106
14855TIP3   OH265979   1.972   1.357  12.993  0.3899 -0.0163 -0.2107
14855TIP3    H165980   1.935   1.356  13.082 -0.3950  1.9515 -0.4573
14855TIP3    H265981   1.896   1.368  12.936  0.9453 -0.7558 -1.1011
14856TIP3   OH265982   3.628   2.783   4.112 -0.4680  0.5935  0.7106
14856TIP3    H165983   3.649   2.690   4.126  0.0256  0.3419 -1.3765
14856TIP3    H265984   3.535   2.782   4.090 -0.4563  0.5866  0.6606
14857TIP3   OH265985   5.056   6.040   4.068  0.0205 -0.8288  0.0489
14857TIP3    H165986   5.042   5.946   4.059 -3.5940 -0.3942 -0.4313
14857TIP3    H265987   5.034   6.058   4.160 -2.6321 -0.1176 -0.6515
14858TIP3   OH265988   0.793   1.676   3.854 -0.4129  0.1297  0.4661
14858TIP3    H165989   0.703   1.691   3.881 -0.8212 -1.9913  0.4501
14858TIP3    H265990   0.832   1.628   3.927  0.4550  0.2617  0.0971
14859TIP3   OH265991   2.439   5.117   2.552  0.0586  0.3126 -0.5007
14859TIP3    H165992   2.373   5.166   2.600 -0.8139 -0.7849 -0.5396
14859TIP3    H265993   2.460   5.043   2.609 -2.3130 -2.0449 -2.4152
14860TIP3   OH265994   0.330   0.687  11.894 -0.3786  0.3200 -0.5839
14860TIP3    H165995   0.302   0.773  11.925 -2.1393 -0.4829  0.2099
14860TIP3    H265996   0.318   0.629  11.970  1.8296 -0.4509 -0.7583
14861TIP3   OH265997   6.797   4.430  10.925  0.2029 -0.2901 -0.1018
14861TIP3    H165998   6.709   4.466  10.941  1.0731  1.4602  1.1645
14861TIP3    H265999   6.835   4.420  11.012  1.6880  0.1948 -0.6537
14862TIP3   OH266000   3.109   0.678   6.067  0.0593 -0.1140 -0.0775
14862TIP3    H166001   3.152   0.667   6.151  1.0250 -0.2767 -0.5824
14862TIP3    H266002   3.111   0.772   6.051 -0.6691 -0.0204  0.3555
14863TIP3   OH266003   1.558   3.867   3.367  0.1877  0.0373  0.3710
14863TIP3    H166004   1.650   3.884   3.389 -0.0033 -1.0621  2.2629
14863TIP3    H266005   1.509   3.896   3.444 -0.8983 -0.9212  0.0793
14864TIP3   OH266006   4.994   2.605   5.611  0.0119 -0.4605  0.0502
14864TIP3    H166007   4.955   2.689   5.588  0.4252 -0.2918 -0.0345
14864TIP3    H266008   4.938   2.540   5.568 -0.4915 -0.2511  0.3724
14865TIP3   OH266009   0.925   0.642  14.949  0.2424 -0.3890 -0.2878
14865TIP3    H166010   0.910   0.690  14.868 -0.8604 -0.2054  0.0139
14865TIP3    H266011   0.880   0.559  14.937 -1.5914  0.3932  0.8508
14866TIP3   OH266012   4.437   6.627  15.476  0.3505  0.3565 -0.0869
14866TIP3    H166013   4.485   6.708  15.494 -0.4847  0.7178  0.6128
14866TIP3    H266014   4.358   6.655  15.430 -0.2851  0.0295  0.7705
14867TIP3   OH266015   6.542   1.523   6.039 -0.2575  0.4557  0.5666
14867TIP3    H166016   6.570   1.611   6.013  2.3088 -0.3269  0.3551
14867TIP3    H266017   6.461   1.509   5.990  0.4859  1.8550 -1.2306
14868TIP3   OH266018   1.564   1.484  16.434  0.3814 -0.8895  0.3082
14868TIP3    H166019   1.544   1.390  16.431 -1.4020 -0.5258 -0.3146
14868TIP3    H266020   1.510   1.518  16.506  0.9036 -0.3107  0.4342
14869TIP3   OH266021   0.986   0.509  11.978 -0.1922  0.0232  0.2063
14869TIP3    H166022   0.933   0.558  12.042 -0.1924  1.6191 -0.9505
14869TIP3    H266023   0.976   0.558  11.896  1.0421 -1.0904 -0.6498
14870TIP3   OH266024   4.593   0.444  13.341 -0.2085  0.4344 -0.0308
14870TIP3    H166025   4.685   0.430  13.364 -0.6804 -1.6802  0.8036
14870TIP3    H266026   4.544   0.420  13.420 -1.5159  0.2298 -0.8719
14871TIP3   OH266027   1.437   0.834   3.317 -0.2268  0.6449 -0.2006
14871TIP3    H166028   1.417   0.789   3.400 -1.4191  2.3803  0.5067
14871TIP3    H266029   1.427   0.766   3.250  1.7454 -1.0584  1.1135
14872TIP3   OH266030   2.192   6.143  14.127 -0.3508 -0.7325 -0.1464
14872TIP3    H166031   2.119   6.135  14.066  1.0718 -1.0433 -1.8861
14872TIP3    H266032   2.267   6.109  14.079  1.3044  1.2455  0.9013
14873TIP3   OH266033   6.006   1.661   2.540  0.4374 -0.0855  0.3855
14873TIP3    H166034   6.019   1.745   2.495 -0.5517  0.7649  1.6251
14873TIP3    H266035   5.928   1.624   2.499  0.0228  0.2938  0.8290
14874TIP3   OH266036   4.037   4.644   0.301 -0.1421  0.5743  0.3887
14874TIP3    H166037   4.027   4.733   0.336  0.1368 -0.2351  2.7232
14874TIP3    H266038   4.054   4.590   0.378 -1.9851 -1.8055 -0.7473
14875TIP3   OH266039   0.487   0.538   4.648 -0.0986  0.0713 -0.1472
14875TIP3    H166040   0.400   0.520   4.682  1.3405 -1.5843  3.0373
14875TIP3    H266041   0.495   0.482   4.570 -1.3024 -0.9524  0.4331
14876TIP3   OH266042   0.601   5.285  14.026 -0.5165  0.0931 -0.1188
14876TIP3    H166043   0.656   5.220  14.070 -0.5492  0.2059  0.0919
14876TIP3    H266044   0.626   5.368  14.066  0.4548  0.3940 -1.2896
14877TIP3   OH266045   2.389   0.781  15.226 -0.1661 -0.4804  0.5252
14877TIP3    H166046   2.439   0.828  15.159  2.5713 -0.8011  2.1752
14877TIP3    H266047   2.359   0.849  15.286  0.0359 -0.4366  0.5788
14878TIP3   OH266048   1.832   3.908  14.259  0.7971 -0.6612  0.1236
14878TIP3    H166049   1.739   3.889  14.248  0.8608 -1.1508  0.4155
14878TIP3    H266050   1.873   3.873  14.180  0.6526  0.1958 -0.3462
14879TIP3   OH266051   2.036   5.882  13.757  0.5095  0.4329  0.2939
14879TIP3    H166052   2.122   5.923  13.751 -0.2016  2.1923  1.2480
14879TIP3    H266053   2.004   5.881  13.666  1.1261  0.6840  0.0688
14880TIP3   OH266054   3.889   6.071  11.115 -0.1206 -0.0941  0.5445
14880TIP3    H166055   3.878   5.985  11.074  2.0581  0.4804 -1.3775
14880TIP3    H266056   3.818   6.124  11.079  0.1543 -0.3467 -0.3828
14881TIP3   OH266057   3.994   2.755   0.119  0.0152  0.0041  0.2322
14881TIP3    H166058   3.930   2.825   0.124 -0.0734  0.0760 -1.5188
14881TIP3    H266059   4.062   2.781   0.181 -1.1261  0.4374  1.3477
14882TIP3   OH266060   5.174   6.633   2.971  0.0017  0.4838  0.2233
14882TIP3    H166061   5.254   6.644   2.919  0.7816  1.3485  1.5469
14882TIP3    H266062   5.146   6.722   2.990 -0.2481  0.1900  1.2888
14883TIP3   OH266063   3.789   0.209   1.014 -0.2169  0.5021  0.1154
14883TIP3    H166064   3.810   0.200   0.920  0.5388  3.0985 -0.0328
14883TIP3    H266065   3.737   0.289   1.019  1.6487  1.6890  2.1211
14884TIP3   OH266066   3.933   3.116  14.431 -1.0290  0.3155 -0.9382
14884TIP3    H166067   4.006   3.169  14.463  0.0782 -2.2282  1.0785
14884TIP3    H266068   3.972   3.056  14.369 -1.5697 -0.3991 -0.6043
14885TIP3   OH266069   6.547   0.918   3.041  0.0389  0.0714  0.2017
14885TIP3    H166070   6.521   0.973   2.968  1.0246 -0.7217 -0.8039
14885TIP3    H266071   6.612   0.858   3.003 -2.1221 -2.8936  0.7818
14886TIP3   OH266072   5.165   3.020  15.560 -0.4831 -0.9407  0.1297
14886TIP3    H166073   5.118   3.058  15.634 -2.1062  1.5242 -1.9947
14886TIP3    H266074   5.098   3.003  15.495  1.2171  0.6053 -2.1973
14887TIP3   OH266075   1.668   4.680  11.567 -0.3034 -0.2146 -0.5060
14887TIP3    H166076   1.694   4.590  11.584 -1.4971 -0.5223 -0.1897
14887TIP3    H266077   1.651   4.684  11.473 -0.0430 -0.2558 -0.5556
14888TIP3   OH266078   5.167   3.829  10.657 -0.2091 -0.5510  0.2115
14888TIP3    H166079   5.152   3.775  10.579 -3.1855 -0.5770  0.7002
14888TIP3    H266080   5.120   3.910  10.639 -1.1086 -0.6287  2.0104
14889TIP3   OH266081   5.357   1.087  11.709 -0.2660 -0.0920 -0.2628
14889TIP3    H166082   5.381   1.156  11.647 -0.3894  1.3378  1.2183
14889TIP3    H266083   5.280   1.045  11.669 -1.0635  1.5670 -0.5509
14890TIP3   OH266084   0.752   0.970  12.336 -0.2383  0.0082  0.2618
14890TIP3    H166085   0.689   1.022  12.385 -0.3230  0.8427 -0.7025
14890TIP3    H266086   0.823   1.032  12.316 -0.7713  0.0365 -1.7111
14891TIP3   OH266087   2.131   5.615   4.786 -0.2506 -0.2291 -0.7713
14891TIP3    H166088   2.186   5.538   4.801  0.4319  0.6777  2.0080
14891TIP3    H266089   2.046   5.591   4.821 -0.4602 -0.2153 -1.2655
14892TIP3   OH266090   3.159   2.156   1.621  0.1980  0.2666 -0.0509
14892TIP3    H166091   3.147   2.061   1.613  0.8086  0.0993  0.8439
14892TIP3    H266092   3.246   2.165   1.660  0.1183  1.1965 -0.0745
14893TIP3   OH266093   2.965   4.569   3.848 -0.1948 -0.3084  0.2720
14893TIP3    H166094   2.914   4.494   3.880  1.2580 -0.9961  1.0608
14893TIP3    H266095   2.936   4.642   3.903 -1.5087 -0.2825 -0.3994
14894TIP3   OH266096   1.113   1.412  10.397  0.0712  0.1706  0.2373
14894TIP3    H166097   1.142   1.336  10.346  0.0567 -0.5377  1.2517
14894TIP3    H266098   1.018   1.416  10.382 -0.0068 -0.3215  0.5591
14895TIP3   OH266099   3.973   6.594  16.557 -0.7070  0.4757  0.2448
14895TIP3    H166100   4.043   6.659  16.567 -1.2012  0.8506  1.4837
14895TIP3    H266101   3.894   6.640  16.586 -1.7858  0.5649 -2.5761
14896TIP3   OH266102   6.122   0.284   3.041  0.2451  0.0065  0.2117
14896TIP3    H166103   6.171   0.228   3.102  2.0585 -1.3830 -2.3150
14896TIP3    H266104   6.044   0.234   3.019  0.2603 -0.0934  0.3875
14897TIP3   OH266105   5.728   0.343  12.799 -0.3886 -0.4340  0.1983
14897TIP3    H166106   5.793   0.278  12.827  2.2687  1.6356 -0.7592
14897TIP3    H266107   5.703   0.316  12.711 -1.8276 -1.8890  0.9959
14898TIP3   OH266108   1.335   6.669  12.961 -0.6407 -0.4707  0.6785
14898TIP3    H166109   1.293   6.583  12.960 -1.5251 -0.0500 -0.4502
14898TIP3    H266110   1.415   6.658  12.909  0.2284 -1.0535  2.0950
14899TIP3   OH266111   0.852   1.460   4.490 -0.2629  0.5097  0.1076
14899TIP3    H166112   0.918   1.486   4.554 -0.3119  1.0960 -0.0735
14899TIP3    H266113   0.823   1.374   4.519  0.3926  0.3605  0.3367
14900TIP3   OH266114   4.678   2.559  12.876 -0.8493  0.6896  0.6418
14900TIP3    H166115   4.628   2.516  12.945 -2.5339  0.2994 -0.7288
14900TIP3    H266116   4.651   2.650  12.880 -1.2987  0.5809  0.2418
14901TIP3   OH266117   5.109   1.413  16.206 -0.1665 -0.1177 -0.5137
14901TIP3    H166118   5.191   1.363  16.201  0.0748  0.0994  0.8871
14901TIP3    H266119   5.042   1.353  16.176  0.3657 -0.6533 -0.6508
14902TIP3   OH266120   0.969   0.893   0.716 -0.5298 -0.3110  0.6453
14902TIP3    H166121   1.060   0.917   0.734 -0.2459 -0.7531 -0.1166
14902TIP3    H266122   0.968   0.797   0.727 -0.4199 -0.5626 -1.2239
14903TIP3   OH266123   1.016   3.435   1.824  0.5756  0.2465  0.2519
14903TIP3    H166124   0.970   3.469   1.747  0.3772 -0.4692  0.0528
14903TIP3    H266125   1.108   3.453   1.806  0.5245  0.1415 -0.1197
14904TIP3   OH266126   5.486   0.057  13.567  0.2729  0.5121  0.0453
14904TIP3    H166127   5.441   0.042  13.484 -0.8070  1.3623  0.4487
14904TIP3    H266128   5.433   0.010  13.632  0.4418  0.8105  0.4104
14905TIP3   OH266129   1.090   5.834   1.688  0.4795 -0.2822  0.2350
14905TIP3    H166130   1.101   5.902   1.621 -2.0195  0.2848  0.3288
14905TIP3    H266131   1.054   5.759   1.641 -1.9610  0.3493  0.9577
14906TIP3   OH266132   3.284   1.791   5.124  0.0474  0.0358 -0.2726
14906TIP3    H166133   3.250   1.873   5.159 -1.5467 -0.2862 -0.9758
14906TIP3    H266134   3.337   1.754   5.195 -0.3584  1.0038  0.5409
14907TIP3   OH266135   1.960   2.259   4.537  0.1393  0.3821 -0.4349
14907TIP3    H166136   2.005   2.343   4.546  0.6488 -0.0638  1.5581
14907TIP3    H266137   1.884   2.279   4.483  0.4198  2.0546 -0.2752
14908TIP3   OH266138   5.612   6.303   1.927 -0.0835 -0.1510 -0.1503
14908TIP3    H166139   5.645   6.242   1.992  4.8235  1.0335 -1.0918
14908TIP3    H266140   5.625   6.258   1.843  2.4333  1.4688 -0.7574
14909TIP3   OH266141   3.695   2.720  11.129  0.6485  0.6092 -0.1471
14909TIP3    H166142   3.785   2.693  11.111  1.9298  1.9787  3.3064
14909TIP3    H266143   3.677   2.788  11.065  0.7673 -1.8039 -2.9571
14910TIP3   OH266144   2.705   5.897   4.058 -0.0910 -0.6436  0.0406
14910TIP3    H166145   2.686   5.976   4.107 -0.1740 -0.5818 -0.0899
14910TIP3    H266146   2.799   5.882   4.071 -0.1193 -0.6478  0.2449
14911TIP3   OH266147   5.054   0.375   6.006 -0.4935 -0.0008  0.2806
14911TIP3    H166148   4.985   0.436   6.036 -0.0002 -0.1056  1.7032
14911TIP3    H266149   5.006   0.300   5.972 -1.1133 -0.1601  1.4442
14912TIP3   OH266150   4.243   1.824   0.962 -0.0286  0.2782 -0.4716
14912TIP3    H166151   4.298   1.756   0.923 -2.0120 -0.9273 -1.3982
14912TIP3    H266152   4.204   1.782   1.038 -0.6570  0.6428 -0.5849
14913TIP3   OH266153   0.896   1.550  15.219  0.4469 -0.3947 -0.6157
14913TIP3    H166154   0.885   1.530  15.312  1.9630 -0.9163 -0.5281
14913TIP3    H266155   0.920   1.466  15.179 -0.7689 -0.3071 -1.6015
14914TIP3   OH266156   1.498   0.647   2.592 -0.1106  0.8318 -0.4057
14914TIP3    H166157   1.490   0.579   2.526  0.8724  0.0601  0.2411
14914TIP3    H266158   1.518   0.600   2.673  3.9330  1.9936 -0.5289
14915TIP3   OH266159   4.034   3.379  16.801  0.1639 -0.4836  0.4510
14915TIP3    H166160   4.001   3.290  16.813  0.3623 -0.3911  1.8816
14915TIP3    H266161   4.112   3.383  16.857  0.2914  0.5167  0.2124
14916TIP3   OH266162   3.270   6.525   2.938  0.9281 -0.4155  0.2356
14916TIP3    H166163   3.328   6.586   2.894  0.3238 -1.3608 -2.0121
14916TIP3    H266164   3.182   6.562   2.927  0.6481 -1.2359 -0.4200
14917TIP3   OH266165   6.359   5.044  12.600  0.5226  0.2064 -0.3617
14917TIP3    H166166   6.392   5.064  12.512  0.2859 -1.4844 -0.8632
14917TIP3    H266167   6.434   5.061  12.658  1.1966 -0.2341 -1.0825
14918TIP3   OH266168   5.464   5.508  10.634  0.2320  0.3176  0.4639
14918TIP3    H166169   5.480   5.452  10.558  0.2063 -0.0015  0.6870
14918TIP3    H266170   5.388   5.468  10.677 -0.0998  0.8191  0.3527
14919TIP3   OH266171   3.837   4.369   3.180 -0.3863  0.3091  0.3539
14919TIP3    H166172   3.899   4.405   3.243 -0.9144 -1.7853  2.2306
14919TIP3    H266173   3.753   4.408   3.205 -0.5190 -0.1654  0.6607
14920TIP3   OH266174   4.041   4.429   5.900  0.3419 -0.2805  0.2664
14920TIP3    H166175   4.005   4.340   5.903 -0.3290  0.0089  1.2985
14920TIP3    H266176   4.095   4.436   5.979 -0.1335  0.4360  0.5403
14921TIP3   OH266177   3.592   2.428   2.195 -0.2451 -0.2433 -0.1483
14921TIP3    H166178   3.673   2.382   2.216  1.2060  1.6152 -1.3514
14921TIP3    H266179   3.613   2.481   2.118 -2.2844  1.1502  0.1597
14922TIP3   OH266180   6.640   1.938  14.135 -0.3682 -0.3309  0.0847
14922TIP3    H166181   6.553   1.899  14.139 -0.6778  0.2471 -0.8881
14922TIP3    H266182   6.656   1.953  14.042 -0.6601  2.6928  0.4133
14923TIP3   OH266183   6.443   1.356  10.838  0.3255 -0.4801  0.0133
14923TIP3    H166184   6.376   1.422  10.858 -2.9267 -3.7892  1.0496
14923TIP3    H266185   6.476   1.381  10.752 -2.3456  1.2565 -0.6175
14924TIP3   OH266186   0.399   1.076  12.296 -0.5145 -0.7672 -0.3170
14924TIP3    H166187   0.349   1.132  12.355 -0.1416  0.0265 -0.7440
14924TIP3    H266188   0.396   0.990  12.338  0.6115 -0.0204  1.4409
14925TIP3   OH266189   6.502   1.247   3.486 -0.3152  0.3244 -0.3179
14925TIP3    H166190   6.529   1.195   3.410  0.2955 -0.5606  0.4881
14925TIP3    H266191   6.437   1.193   3.530 -0.3622  0.6597  0.0249
14926TIP3   OH266192   4.492   6.156  16.116  0.3637  0.0120  0.6255
14926TIP3    H166193   4.472   6.078  16.064 -0.9079  0.0089  1.1030
14926TIP3    H266194   4.588   6.163  16.111  0.4963 -1.4992  0.4764
14927TIP3   OH266195   4.273   1.885   0.614  0.1857 -0.2304 -0.0405
14927TIP3    H166196   4.194   1.849   0.654  0.2531  1.0985  1.3978
14927TIP3    H266197   4.243   1.964   0.568  0.4750 -0.4897 -0.6876
14928TIP3   OH266198   4.558   1.114  13.160 -0.3145 -0.6331 -0.6856
14928TIP3    H166199   4.609   1.081  13.234 -1.1742 -1.2042 -0.3216
14928TIP3    H266200   4.615   1.177  13.116  0.0549  0.0828  0.7563
14929TIP3   OH266201   2.485   1.057  13.433 -0.1809  0.1975  0.1312
14929TIP3    H166202   2.546   1.122  13.398  0.4346 -1.1461 -1.3811
14929TIP3    H266203   2.425   1.039  13.361 -2.7856  1.8697  1.7399
14930TIP3   OH266204   5.340   2.775  10.604 -0.4908  0.1158 -0.2983
14930TIP3    H166205   5.313   2.812  10.688 -1.5884  1.1010 -1.0625
14930TIP3    H266206   5.399   2.841  10.567  0.1857 -0.4278 -0.2154
14931TIP3   OH266207   1.082   5.700  10.356  0.2010  0.1240  0.6290
14931TIP3    H166208   0.988   5.694  10.371 -0.1974  1.7275 -0.8467
14931TIP3    H266209   1.096   5.791  10.329  1.8576 -0.5773 -1.0857
14932TIP3   OH266210   1.173   1.751  14.793  0.2199  0.3098  0.7308
14932TIP3    H166211   1.178   1.717  14.704 -1.9810  0.4982  0.4746
14932TIP3    H266212   1.144   1.676  14.846  1.2751  0.2629  1.2562
14933TIP3   OH266213   3.728   5.717  12.103 -0.5242 -0.4778  0.1055
14933TIP3    H166214   3.748   5.809  12.123  0.7225 -0.5261 -0.7764
14933TIP3    H266215   3.775   5.667  12.170  1.3406 -0.5426 -1.1760
14934TIP3   OH266216   5.279   1.140   6.295 -0.7750  0.0032  0.6542
14934TIP3    H166217   5.332   1.219   6.289 -0.9645  0.1137  0.3954
14934TIP3    H266218   5.327   1.082   6.354 -0.4768  0.1881  0.5915
14935TIP3   OH266219   6.291   6.483   5.672 -0.1081  0.0568  0.2500
14935TIP3    H166220   6.374   6.519   5.701  0.0994 -0.9854  1.0092
14935TIP3    H266221   6.249   6.451   5.752 -1.7764  1.6060  0.0382
14936TIP3   OH266222   2.475   4.233  12.648  0.7397 -0.5760  0.5560
14936TIP3    H166223   2.383   4.221  12.672  0.5068  0.7708  0.3796
14936TIP3    H266224   2.503   4.311  12.696  1.9565 -1.2791  1.0256
14937TIP3   OH266225   0.849   3.651  17.026  0.2801 -0.3320 -0.4044
14937TIP3    H166226   0.841   3.698  17.109  0.9389 -0.9179  0.0035
14937TIP3    H266227   0.906   3.577  17.046  1.3783  0.1214 -1.6284
14938TIP3   OH266228   3.538   6.754  15.235 -0.1647  0.1868 -0.4126
14938TIP3    H166229   3.452   6.788  15.256  0.2462  1.2394 -0.3892
14938TIP3    H266230   3.552   6.682  15.297 -0.0234  1.5765  1.2337
14939TIP3   OH266231   0.295   6.423   1.857  0.5468 -0.6112  0.1001
14939TIP3    H166232   0.312   6.476   1.779  1.6149  1.0348  1.3956
14939TIP3    H266233   0.296   6.333   1.824  2.7497 -0.1044 -1.5333
14940TIP3   OH266234   6.081   1.401  15.338 -0.6696 -0.1072 -0.2203
14940TIP3    H166235   6.097   1.495  15.345 -0.1842 -0.3194  2.9866
14940TIP3    H266236   5.994   1.394  15.299 -0.3897  1.6131 -1.2538
14941TIP3   OH266237   6.699   2.633  13.776  0.1741  0.0231  0.0540
14941TIP3    H166238   6.788   2.666  13.773  0.2361 -0.2070 -1.1929
14941TIP3    H266239   6.647   2.706  13.807  0.6783  0.4314 -0.0559
14942TIP3   OH266240   6.785   2.369   3.088 -0.5373 -0.1532  0.1960
14942TIP3    H166241   6.780   2.300   3.154  1.0347  0.7844  1.3692
14942TIP3    H266242   6.860   2.423   3.115 -1.0136  1.3555 -1.3021
14943TIP3   OH266243   3.929   2.230   5.952  0.6704 -0.4653  0.1326
14943TIP3    H166244   3.901   2.273   6.033  0.2520 -0.7752  0.1605
14943TIP3    H266245   3.858   2.167   5.934  1.2521 -1.1212  0.0850
14944TIP3   OH266246   3.948   3.815   0.116 -0.4681 -0.4251  0.2218
14944TIP3    H166247   3.934   3.867   0.195 -1.8816  1.3569 -1.0977
14944TIP3    H266248   3.885   3.850   0.053 -1.1074 -3.4238 -0.9717
14945TIP3   OH266249   1.186   3.329   3.632 -0.0019 -0.2988  0.1811
14945TIP3    H166250   1.238   3.262   3.588 -1.2719 -0.6628 -0.8284
14945TIP3    H266251   1.160   3.289   3.715 -0.3563 -0.8690 -0.2067
14946TIP3   OH266252   2.843   4.483   4.641 -0.3335  0.2504  0.2326
14946TIP3    H166253   2.855   4.484   4.736 -0.7893  0.1879  0.2928
14946TIP3    H266254   2.748   4.482   4.628 -0.2777 -0.5175 -0.2171
14947TIP3   OH266255   1.108   5.045  12.388 -0.1094  0.2668 -0.5712
14947TIP3    H166256   1.018   5.070  12.370 -1.6398 -1.8867  2.9231
14947TIP3    H266257   1.153   5.128  12.407 -2.1166  1.2241  0.3028
14948TIP3   OH266258   4.252   0.691   0.814 -0.0953  0.0599 -0.1375
14948TIP3    H166259   4.193   0.660   0.745  0.7619  0.2500 -0.9658
14948TIP3    H266260   4.264   0.784   0.797  0.2042  0.0895  0.2108
14949TIP3   OH266261   3.410   5.828  13.987  0.0001 -0.6587  0.8697
14949TIP3    H166262   3.450   5.742  13.977  0.1584 -0.4787 -0.2360
14949TIP3    H266263   3.484   5.889  13.989  0.0367 -0.6539  3.8121
14950TIP3   OH266264   3.552   2.063   4.522 -0.0291  0.2186 -0.6483
14950TIP3    H166265   3.593   2.031   4.442 -0.8984 -0.2046 -0.9391
14950TIP3    H266266   3.474   2.110   4.492  0.4146  1.3388 -0.1338
14951TIP3   OH266267   1.084   6.452  13.401  0.3848 -0.5570 -0.3219
14951TIP3    H166268   1.035   6.501  13.335 -0.6408 -0.7077  0.3037
14951TIP3    H266269   1.032   6.460  13.481  1.7367 -0.1279  0.5627
14952TIP3   OH266270   0.437   5.210   0.586  0.2483  0.1167  0.6614
14952TIP3    H166271   0.484   5.280   0.631 -0.0150  0.6935  0.0568
14952TIP3    H266272   0.349   5.213   0.623 -0.4294  1.6088 -0.9115
14953TIP3   OH266273   2.579   4.152   1.183  0.1110  0.2844 -0.1048
14953TIP3    H166274   2.631   4.149   1.103  0.7239  1.7733  0.1885
14953TIP3    H266275   2.644   4.147   1.253 -0.4536 -1.5566  0.3485
14954TIP3   OH266276   2.179   5.753  12.455 -0.1435  0.4342  0.0876
14954TIP3    H166277   2.182   5.829  12.397 -0.1634 -0.0612 -0.5769
14954TIP3    H266278   2.136   5.785  12.534 -0.8790  0.9248 -0.4919
14955TIP3   OH266279   1.303   3.273  14.760 -0.0097  0.2823  0.4897
14955TIP3    H166280   1.369   3.254  14.827 -0.8095 -0.5743  1.0428
14955TIP3    H266281   1.354   3.276  14.678  0.9003  0.8707  1.0536
14956TIP3   OH266282   1.033   6.148   2.747 -0.3547  0.0969 -0.3459
14956TIP3    H166283   1.075   6.161   2.663 -1.4390 -0.6668 -1.0319
14956TIP3    H266284   0.963   6.214   2.750 -1.3379 -0.8827 -0.7706
14957TIP3   OH266285   2.899   0.426  13.229 -0.6120  0.0843 -0.0648
14957TIP3    H166286   2.874   0.515  13.206 -0.8600  0.3125  1.0341
14957TIP3    H266287   2.995   0.427  13.230 -0.6126  0.2645 -0.3370
14958TIP3   OH266288   3.624   5.429   4.662  0.0124  0.8414  0.1578
14958TIP3    H166289   3.694   5.454   4.722 -0.4123  2.4841  0.0178
14958TIP3    H266290   3.553   5.491   4.681  0.1628  2.0053 -2.5795
14959TIP3   OH266291   3.056   0.895  10.939 -0.1509 -1.1627 -0.4310
14959TIP3    H166292   2.985   0.959  10.937  0.4661 -0.4874 -1.1675
14959TIP3    H266293   3.136   0.948  10.940  0.3567 -1.9056  0.7921
14960TIP3   OH266294   6.126   3.663  16.857 -0.5527 -0.2978 -0.8466
14960TIP3    H166295   6.103   3.712  16.778  0.7912  0.5216 -0.7574
14960TIP3    H266296   6.172   3.727  16.912  1.9487 -1.7997 -1.0435
14961TIP3   OH266297   5.189   5.532   5.110 -0.4654  0.2623  0.0844
14961TIP3    H166298   5.132   5.592   5.158  0.3912  0.9203  0.2907
14961TIP3    H266299   5.173   5.553   5.018 -1.7803 -0.7001  0.0561
14962TIP3   OH266300   2.073   6.201  16.141  0.4207 -0.1526  0.6657
14962TIP3    H166301   2.144   6.192  16.078 -0.6908 -0.4701 -0.5995
14962TIP3    H266302   2.011   6.132  16.118 -1.0641  1.1254  0.6531
14963TIP3   OH266303   3.219   0.900  16.181 -0.1002 -0.1718 -0.4158
14963TIP3    H166304   3.279   0.866  16.115  0.1235 -0.7219  0.0584
14963TIP3    H266305   3.148   0.938  16.131 -0.9437 -2.3518 -0.9969
14964TIP3   OH266306   0.923   0.391   0.766 -0.1427  0.7338  0.0438
14964TIP3    H166307   0.854   0.376   0.831  0.2459 -1.8069 -0.0520
14964TIP3    H266308   0.911   0.322   0.701  1.2047  1.5369 -1.1230
14965TIP3   OH266309   0.656   1.101   3.734  0.5645 -0.3622 -0.1438
14965TIP3    H166310   0.610   1.089   3.817  0.6221  0.6839  0.0421
14965TIP3    H266311   0.587   1.094   3.667  0.5917 -1.7195 -0.0697
14966TIP3   OH266312   1.993   2.065  16.963 -0.2999  0.1642 -0.2737
14966TIP3    H166313   1.989   2.087  16.869  0.9401  2.1023  0.0706
14966TIP3    H266314   1.999   1.969  16.965  0.6926  0.1355 -2.2290
14967TIP3   OH266315   5.783   3.136   2.519 -0.6975  0.7083 -0.3296
14967TIP3    H166316   5.790   3.165   2.428  0.1587 -0.9053 -0.8122
14967TIP3    H266317   5.831   3.054   2.521  0.1295  1.1896  1.8117
14968TIP3   OH266318   1.453   6.745   2.122  0.4146 -0.4465  0.2048
14968TIP3    H166319   1.429   6.827   2.165  0.1149 -0.6020  0.3319
14968TIP3    H266320   1.374   6.692   2.124  1.1565 -1.6154  2.1231
14969TIP3   OH266321   4.451   1.060  15.766 -0.5819  0.0505 -0.6524
14969TIP3    H166322   4.472   1.130  15.704  1.8140  0.2872  0.3087
14969TIP3    H266323   4.453   0.980  15.713  0.8868  0.3016 -1.0420
14970TIP3   OH266324   1.881   0.069  15.508  0.1462 -0.0753  0.0779
14970TIP3    H166325   1.959   0.109  15.470  1.9837 -1.6870  1.9402
14970TIP3    H266326   1.867  -0.011  15.456  0.7107 -0.5971  0.7109
14971TIP3   OH266327   3.316   1.827   3.065 -0.4950 -0.3478 -0.8248
14971TIP3    H166328   3.323   1.736   3.095 -2.4409 -0.1762  0.3534
14971TIP3    H266329   3.396   1.842   3.014  2.0344 -1.3621  2.4822
14972TIP3   OH266330   4.518   4.021  14.179 -0.3445 -0.4984 -0.3273
14972TIP3    H166331   4.568   3.946  14.212  1.9999  1.0142 -0.2612
14972TIP3    H266332   4.435   4.017  14.228  0.2011 -2.3159  0.5703
14973TIP3   OH266333   2.211   1.450   3.339 -0.3268 -0.9007 -0.0025
14973TIP3    H166334   2.225   1.361   3.308  1.5614 -0.1525 -1.5156
14973TIP3    H266335   2.194   1.501   3.260  0.4108  0.3668  0.6178
14974TIP3   OH266336   3.403   3.575   1.223 -0.2971 -0.0684 -0.4155
14974TIP3    H166337   3.342   3.567   1.297  1.2406 -1.6369  0.7707
14974TIP3    H266338   3.442   3.488   1.214  1.2699  0.6946 -1.5533
14975TIP3   OH266339   6.308   3.852  16.943  0.2119  0.2936 -0.0732
14975TIP3    H166340   6.359   3.807  16.876 -1.9500 -3.1879  0.3536
14975TIP3    H266341   6.289   3.938  16.906  2.1431 -0.1473 -2.2882
14976TIP3   OH266342   6.559   0.074  12.294 -0.4481 -0.6243  1.1682
14976TIP3    H166343   6.644   0.076  12.250 -0.1541 -1.9648  1.6393
14976TIP3    H266344   6.499   0.117  12.233  0.2723 -1.0347  0.1560
14977TIP3   OH266345   3.853   1.868   6.112  0.7316  0.0843  0.3750
14977TIP3    H166346   3.794   1.917   6.054  2.1344 -0.7406 -1.9229
14977TIP3    H266347   3.799   1.844   6.187 -1.7436 -0.1929 -1.3601
14978TIP3   OH266348   5.284   6.364  13.889 -0.1400 -0.1674  0.0710
14978TIP3    H166349   5.371   6.371  13.928 -0.4515  0.4194  0.6782
14978TIP3    H266350   5.241   6.295  13.940 -0.4382  0.3813  0.5796
14979TIP3   OH266351   1.140   5.510  11.312  0.1755 -0.0575  0.0303
14979TIP3    H166352   1.066   5.517  11.252  0.0336  0.7374  0.2942
14979TIP3    H266353   1.218   5.515  11.256  0.0807  2.4603  0.0451
14980TIP3   OH266354   0.260   4.404  17.002  0.0299 -0.5601 -0.0325
14980TIP3    H166355   0.300   4.429  17.086  1.7862  0.8039 -1.1944
14980TIP3    H266356   0.331   4.361  16.954  0.1256  1.6594 -2.0549
14981TIP3   OH266357   3.905   5.521   4.411 -0.5853 -0.4357 -0.3768
14981TIP3    H166358   3.907   5.615   4.391 -0.5204 -0.2250  0.5573
14981TIP3    H266359   3.939   5.515   4.500  1.6990 -1.5683 -1.2215
14982TIP3   OH266360   0.278   4.810   6.657 -0.5494 -0.2633 -0.1102
14982TIP3    H166361   0.358   4.757   6.661  0.5051  1.2679 -0.2759
14982TIP3    H266362   0.245   4.796   6.569 -0.2879 -0.6365 -0.1553
14983TIP3   OH266363   0.955   4.540   2.950  0.3560  0.5256 -0.0795
14983TIP3    H166364   0.863   4.533   2.924  0.1551  1.8720  0.2290
14983TIP3    H266365   1.001   4.556   2.868  0.2622  0.3370 -0.1711
14984TIP3   OH266366   3.746   5.699   3.099  0.3229 -0.9493  0.4957
14984TIP3    H166367   3.686   5.714   3.026  1.8676 -2.4246 -1.1716
14984TIP3    H266368   3.782   5.785   3.118 -0.3578 -0.4851 -0.2517
14985TIP3   OH266369   5.107   2.730  15.263  0.1935 -0.8284 -0.6088
14985TIP3    H166370   5.038   2.795  15.266 -0.0630 -1.1190  2.5886
14985TIP3    H266371   5.188   2.781  15.271  0.0677 -0.7626  0.3852
14986TIP3   OH266372   6.461   5.192  14.851 -0.1347  0.2365  0.1285
14986TIP3    H166373   6.404   5.209  14.776 -1.8570 -2.0562  0.8001
14986TIP3    H266374   6.402   5.195  14.927  1.1385  0.2379  1.1534
14987TIP3   OH266375   3.840   0.757   5.459  0.0792  0.2166 -0.0382
14987TIP3    H166376   3.891   0.777   5.381 -0.9275  0.2864 -0.6895
14987TIP3    H266377   3.761   0.714   5.427 -0.3411  0.2168  0.9368
14988TIP3   OH266378   1.839   3.849   5.585  0.6506 -0.4007 -0.5308
14988TIP3    H166379   1.760   3.800   5.565  0.4097 -1.7123  2.9702
14988TIP3    H266380   1.911   3.792   5.558  0.4020 -0.5530 -0.8716
14989TIP3   OH266381   0.284   4.067  15.633  0.1513 -0.5178 -0.2189
14989TIP3    H166382   0.307   4.059  15.540  0.7417  0.7487 -0.2063
14989TIP3    H266383   0.261   3.978  15.660 -2.7739 -0.5380 -2.2562
14990TIP3   OH266384   3.611   5.404  15.175 -0.5538  0.2141 -0.5988
14990TIP3    H166385   3.592   5.377  15.265  1.8438  0.8989  0.1865
14990TIP3    H266386   3.579   5.331  15.121  3.1239 -3.1480  1.2370
14991TIP3   OH266387   3.797   3.456   4.589  0.0116  0.0520 -0.9339
14991TIP3    H166388   3.756   3.431   4.506 -0.0172  0.4861 -1.0517
14991TIP3    H266389   3.725   3.455   4.652  0.0340 -0.2798 -0.9108
14992TIP3   OH266390   2.586   2.575  12.396  0.1873  0.6154 -0.5810
14992TIP3    H166391   2.533   2.497  12.380  2.2584 -1.1268  0.4515
14992TIP3    H266392   2.534   2.627  12.457 -1.0040 -0.2363 -0.8315
14993TIP3   OH266393   5.900   1.249  14.483  0.0887  0.4336  0.4810
14993TIP3    H166394   5.942   1.240  14.397 -2.2032 -2.2973 -0.4986
14993TIP3    H266395   5.814   1.286  14.464 -1.5670 -2.7554  1.1061
14994TIP3   OH266396   0.633   1.810  14.790  0.6326 -0.1808  0.2592
14994TIP3    H166397   0.650   1.832  14.699  0.7156 -1.2092  0.0121
14994TIP3    H266398   0.718   1.788  14.826  0.5950  0.1830  0.5838
14995TIP3   OH266399   3.047   2.202   5.519 -0.0890  0.1236  0.9454
14995TIP3    H166400   3.129   2.244   5.493 -0.1600 -0.9253 -1.1502
14995TIP3    H266401   3.063   2.108   5.506 -1.0519 -0.2512  2.2542
14996TIP3   OH266402   1.707   0.488   6.379 -0.0013 -0.3861  0.5790
14996TIP3    H166403   1.755   0.472   6.297  0.9922  0.2822  1.0187
14996TIP3    H266404   1.772   0.525   6.438 -1.3502  1.8035  0.7715
14997TIP3   OH266405   2.512   5.357  10.728  0.6064  0.4757 -0.3383
14997TIP3    H166406   2.466   5.296  10.671 -0.0943  0.1327  0.5780
14997TIP3    H266407   2.601   5.323  10.734  0.2431 -0.4203  0.0964
14998TIP3   OH266408   3.738   6.716   0.811 -0.0439  0.3684 -0.4710
14998TIP3    H166409   3.751   6.806   0.782  0.1691  0.6404  0.4617
14998TIP3    H266410   3.684   6.723   0.889 -1.0555 -0.3974 -1.0692
14999TIP3   OH266411   5.416   5.189   0.551  0.0048  0.2582 -0.4336
14999TIP3    H166412   5.378   5.125   0.490  0.1482 -0.3644  0.1271
14999TIP3    H266413   5.382   5.164   0.637  0.4901  0.6126 -0.1364
15000TIP3   OH266414   4.668   4.316  14.731  0.0321  0.0999 -0.4808
15000TIP3    H166415   4.627   4.233  14.710 -1.1657  0.0723  1.6977
15000TIP3    H266416   4.624   4.380  14.675  0.7227 -0.6486 -1.9171
15001TIP3   OH266417   6.111   3.925   0.151 -0.1133 -0.1182 -0.7043
15001TIP3    H166418   6.074   3.964   0.072 -0.6765  0.4997 -0.1492
15001TIP3    H266419   6.111   3.996   0.215  0.2758 -0.6257 -0.1343
15002TIP3   OH266420   1.335   1.913  15.291  0.5835  0.1237 -0.0015
15002TIP3    H166421   1.273   1.931  15.221  2.0951  1.8052 -0.9830
15002TIP3    H266422   1.291   1.943  15.371 -1.7076 -3.0345  0.1154
15003TIP3   OH266423   5.615   3.406  11.004 -0.0423  0.4280 -0.0856
15003TIP3    H166424   5.706   3.383  10.985 -0.2746  1.0017 -2.2068
15003TIP3    H266425   5.621   3.484  11.059  0.7934  1.1916 -1.1993
15004TIP3   OH266426   1.616   2.976   1.946 -0.8298  0.1239  0.1937
15004TIP3    H166427   1.687   2.959   2.008 -2.2788 -1.2600  1.5918
15004TIP3    H266428   1.537   2.951   1.994 -2.0924 -0.3127 -1.9995
15005TIP3   OH266429   2.046   0.248  10.843 -0.4892  0.1119  0.1767
15005TIP3    H166430   2.084   0.335  10.861 -0.1781  0.0581 -0.2130
15005TIP3    H266431   2.073   0.195  10.918  0.3640  0.0294 -0.1756
15006TIP3   OH266432   3.115   5.807  13.854  0.2755 -0.4279  0.2874
15006TIP3    H166433   3.127   5.749  13.779 -0.0496 -1.0070  0.6771
15006TIP3    H266434   3.203   5.842  13.872  0.7649 -1.8861  0.9099
15007TIP3   OH266435   5.988   5.450   2.596  0.9585 -0.2432  0.8181
15007TIP3    H166436   5.918   5.430   2.658  1.5668  0.6986  1.8312
15007TIP3    H266437   5.944   5.494   2.524  0.5668  0.8636  1.7088
15008TIP3   OH266438   5.392   6.301   5.873  0.1840  0.3549  0.3392
15008TIP3    H166439   5.369   6.394   5.863 -0.3818  0.1936  0.1082
15008TIP3    H266440   5.379   6.282   5.966 -0.5950  0.2777  0.2219
15009TIP3   OH266441   3.362   5.875  16.359 -0.5164 -0.1446  0.0243
15009TIP3    H166442   3.403   5.798  16.400 -1.4794 -0.8299 -0.2575
15009TIP3    H266443   3.297   5.838  16.299 -0.0680  0.8799 -1.1172
15010TIP3   OH266444   0.902   2.791  11.777 -0.2294  0.5910  1.1067
15010TIP3    H166445   0.898   2.715  11.835 -0.7712  1.0359  1.6642
15010TIP3    H266446   0.830   2.847  11.806 -0.9941  0.4821 -0.4744
15011TIP3   OH266447   4.130   4.791  16.386 -0.2971 -0.5540 -0.4436
15011TIP3    H166448   4.186   4.776  16.462  1.1527 -0.2171 -1.3881
15011TIP3    H266449   4.044   4.809  16.422  0.7410  1.4853  1.2095
15012TIP3   OH266450   1.324   0.165  12.339  0.0828 -0.0746 -0.0308
15012TIP3    H166451   1.347   0.126  12.424 -1.2984 -3.9136 -1.2376
15012TIP3    H266452   1.407   0.168  12.291  0.4935  0.0351  0.6667
15013TIP3   OH266453   3.025   1.656   5.142  0.3076  0.6631  0.3834
15013TIP3    H166454   2.980   1.643   5.058 -3.6413  1.8463  2.0743
15013TIP3    H266455   3.111   1.691   5.118  0.0218 -0.6394 -3.1354
15014TIP3   OH266456   2.136   5.109   5.584 -0.0180 -0.2045 -0.4180
15014TIP3    H166457   2.085   5.166   5.526 -0.0553 -0.2186 -0.3994
15014TIP3    H266458   2.188   5.055   5.524 -0.1675 -0.3215 -0.4438
15015TIP3   OH266459   3.917   0.250   2.932  0.6430  0.6305 -0.2508
15015TIP3    H166460   3.878   0.192   2.998 -0.2935  0.1034 -1.2426
15015TIP3    H266461   3.922   0.197   2.853 -2.0418  2.3782 -1.7646
15016TIP3   OH266462   1.825   3.255  16.041 -0.3960 -0.3005 -0.1069
15016TIP3    H166463   1.814   3.342  16.079  2.5435  1.0737 -2.0796
15016TIP3    H266464   1.847   3.199  16.116  0.2630  1.2101  0.8748
15017TIP3   OH266465   5.789   5.565   0.004  0.3346 -0.4065 -0.3823
15017TIP3    H166466   5.859   5.628   0.022 -1.6859  1.4190  1.5738
15017TIP3    H266467   5.760   5.535   0.090 -0.4037 -2.2169 -1.2055
15018TIP3   OH266468   1.518   2.240   4.450 -0.2133 -0.1736  0.2374
15018TIP3    H166469   1.473   2.257   4.367 -0.0122  0.0433  0.1735
15018TIP3    H266470   1.609   2.262   4.433 -0.4152  1.2956  0.9444
15019TIP3   OH266471   6.418   1.347  15.631 -0.8307  0.2437  0.5054
15019TIP3    H166472   6.353   1.283  15.660  0.1329 -0.5637  0.9472
15019TIP3    H266473   6.481   1.351  15.703  0.3957 -0.0897 -0.5226
15020TIP3   OH266474   6.351   6.029  10.804  0.7180  0.0900 -0.3234
15020TIP3    H166475   6.280   6.028  10.739  1.0164  0.8031 -0.6739
15020TIP3    H266476   6.311   5.996  10.884 -0.3626  1.6251 -0.1739
15021TIP3   OH266477   4.160   3.495  16.285  0.4397  0.1328  0.0478
15021TIP3    H166478   4.077   3.519  16.243  0.7904 -0.6151 -1.1191
15021TIP3    H266479   4.136   3.470  16.374 -0.4369  0.9780  0.0669
15022TIP3   OH266480   3.647   0.306  14.325 -0.6953 -0.0337 -0.0589
15022TIP3    H166481   3.704   0.314  14.402  0.2539  0.8889 -0.8354
15022TIP3    H266482   3.650   0.213  14.303 -1.7564 -0.5040  1.5717
15023TIP3   OH266483   5.914   2.575  15.861 -0.0823 -0.1409  0.3002
15023TIP3    H166484   5.847   2.613  15.917 -1.0002 -1.2892  0.0174
15023TIP3    H266485   5.868   2.510  15.808  1.1907 -0.7395 -0.1262
15024TIP3   OH266486   3.021   5.541  16.607  0.2192 -0.6378  0.3099
15024TIP3    H166487   3.024   5.494  16.690  0.7365 -1.4932 -0.1706
15024TIP3    H266488   3.108   5.527  16.568 -0.5274 -1.7102 -1.1172
15025TIP3   OH266489   1.879   5.566  15.996 -0.2234 -0.0343 -0.3221
15025TIP3    H166490   1.928   5.636  16.041 -1.6024  0.1397  0.9964
15025TIP3    H266491   1.787   5.590  16.007 -0.7963 -2.4961  1.0070
15026TIP3   OH266492   5.162   1.330  15.539  0.1316  0.0661 -0.2471
15026TIP3    H166493   5.154   1.281  15.621  1.0708 -1.0398 -0.7799
15026TIP3    H266494   5.180   1.263  15.473  1.4553  1.1212 -1.0201
15027TIP3   OH266495   1.687   5.143   5.492 -0.8191  0.1342  0.0265
15027TIP3    H166496   1.674   5.107   5.404  0.7970  1.0357 -0.6324
15027TIP3    H266497   1.605   5.126   5.538 -1.1666 -1.6973 -1.1822
15028TIP3   OH266498   0.529   2.919   2.281 -0.2279  0.5528 -0.3472
15028TIP3    H166499   0.555   2.829   2.262 -1.9073  0.0724 -0.5155
15028TIP3    H266500   0.612   2.965   2.296  0.8979 -0.3651 -3.0608
15029TIP3   OH266501   2.156   4.854  16.403 -0.5713 -0.0417 -0.3720
15029TIP3    H166502   2.084   4.894  16.355  0.3532 -0.5176 -2.2538
15029TIP3    H266503   2.235   4.897  16.370  0.0721  0.4119  1.5738
15030TIP3   OH266504   0.790   0.085   2.805 -0.2342  0.2343  0.0511
15030TIP3    H166505   0.769   0.095   2.898 -0.6799 -0.0446 -0.0162
15030TIP3    H266506   0.771  -0.006   2.785 -1.7709  0.6842 -0.7021
15031TIP3   OH266507   2.318   6.376  12.177 -1.0301  0.5538  0.0724
15031TIP3    H166508   2.354   6.293  12.146 -0.0352  1.5153 -1.4583
15031TIP3    H266509   2.240   6.389  12.124 -0.7541  0.9592 -0.2389
15032TIP3   OH266510   2.094   3.231   4.061  0.0172 -1.0621 -0.1907
15032TIP3    H166511   2.032   3.194   4.125 -0.2922 -0.0987  0.0773
15032TIP3    H266512   2.043   3.296   4.013  1.0346  0.3959  0.6364
15033TIP3   OH266513   4.228   0.773  16.039 -0.1488  0.0142 -0.2900
15033TIP3    H166514   4.133   0.764  16.045 -0.5609  3.2510 -0.1283
15033TIP3    H266515   4.258   0.769  16.130 -0.1411 -0.6632 -0.3149
15034TIP3   OH266516   4.548   6.345  13.049  0.7066  0.2725 -0.2464
15034TIP3    H166517   4.526   6.254  13.071  1.5539  0.4399  1.4794
15034TIP3    H266518   4.542   6.349  12.954 -0.5159 -1.2746 -0.2747
15035TIP3   OH266519   2.925   6.416   6.107  0.6575 -0.3614  0.0774
15035TIP3    H166520   2.850   6.473   6.094  0.7387 -0.1988  0.3210
15035TIP3    H266521   2.893   6.328   6.084  0.1917 -0.4079  0.8889
15036TIP3   OH266522   5.400   2.662   3.961  0.0601  0.9939  0.3860
15036TIP3    H166523   5.484   2.702   3.983  1.7390 -1.8614 -0.3445
15036TIP3    H266524   5.408   2.637   3.869 -1.4518  0.3269  0.3978
15037TIP3   OH266525   0.961   4.895   4.439  0.6987  0.1780  0.1613
15037TIP3    H166526   0.937   4.803   4.454 -1.1998  0.5025 -0.5784
15037TIP3    H266527   1.021   4.916   4.511  1.8017 -1.8296 -0.0890
15038TIP3   OH266528   6.757   1.621  15.000 -0.0209  0.0843 -0.0177
15038TIP3    H166529   6.699   1.637  15.075  0.5540 -0.1018  0.4790
15038TIP3    H266530   6.846   1.630  15.036  0.2646 -0.1082 -0.6560
15039TIP3   OH266531   5.698   5.586   3.461  0.0313 -0.3205 -0.2300
15039TIP3    H166532   5.673   5.667   3.416 -0.1621 -0.4806 -0.4111
15039TIP3    H266533   5.697   5.519   3.393  0.6802 -0.3855 -0.1859
15040TIP3   OH266534   1.625   4.798   3.136 -0.2692 -0.4175 -0.5980
15040TIP3    H166535   1.588   4.720   3.092 -3.4139  0.2403  0.6170
15040TIP3    H266536   1.574   4.807   3.216  0.6110  2.4136 -0.2459
15041TIP3   OH266537   6.278   4.803  10.342  0.2454 -0.8843 -0.0880
15041TIP3    H166538   6.362   4.838  10.312 -0.1921 -0.9997 -1.4866
15041TIP3    H266539   6.302   4.726  10.394  1.0103 -0.8144 -0.3259
15042TIP3   OH266540   1.222   3.632  12.036  0.1099  0.3069  0.3426
15042TIP3    H166541   1.269   3.579  11.971  1.1966  1.3095  0.2713
15042TIP3    H266542   1.278   3.630  12.114 -0.3435  0.4981  0.6785
15043TIP3   OH266543   3.021   1.423   3.111 -0.2331 -0.0513 -0.1528
15043TIP3    H166544   3.106   1.466   3.122  0.0432 -0.6146 -0.0315
15043TIP3    H266545   2.960   1.494   3.093 -0.1644  0.6656  2.0480
15044TIP3   OH266546   4.484   0.544   2.726  0.1351  0.0986 -0.5643
15044TIP3    H166547   4.522   0.604   2.662  0.5484  1.4061  0.8307
15044TIP3    H266548   4.557   0.524   2.786 -0.2979 -0.8743 -0.3503
15045TIP3   OH266549   1.877   5.446   0.202  0.2583 -0.0474  0.2617
15045TIP3    H166550   1.909   5.459   0.112 -0.7522 -0.8222 -0.2218
15045TIP3    H266551   1.804   5.507   0.210 -0.0125 -0.3808  0.3608
15046TIP3   OH266552   6.348   4.363   0.984 -0.2086 -0.2091  0.0241
15046TIP3    H166553   6.372   4.448   0.949 -0.6489  0.2639  0.8346
15046TIP3    H266554   6.321   4.381   1.074 -1.0629 -1.0864 -0.0392
15047TIP3   OH266555   2.447   0.044  14.367  0.2972 -0.6957 -0.4656
15047TIP3    H166556   2.495   0.089  14.298 -0.2697 -1.4716 -1.3788
15047TIP3    H266557   2.429   0.112  14.432  0.1537  0.2152 -1.4399
15048TIP3   OH266558   5.438   3.424  14.250 -0.1078 -0.2679  0.2822
15048TIP3    H166559   5.351   3.452  14.220  0.7060  1.2099 -0.7499
15048TIP3    H266560   5.478   3.503  14.286  1.7491 -0.3378 -1.5042
15049TIP3   OH266561   3.094   4.924   1.099 -0.0373 -0.1614  0.1135
15049TIP3    H166562   3.010   4.917   1.144  0.2472  0.0670  0.6969
15049TIP3    H266563   3.082   4.997   1.038 -1.3503 -2.2146 -2.3075
15050TIP3   OH266564   6.007   1.334  11.173  0.0979  0.0387  0.5122
15050TIP3    H166565   5.963   1.315  11.091  0.7499 -2.3702  0.6554
15050TIP3    H266566   5.960   1.282  11.238  0.9683  0.1720  1.2709
15051TIP3   OH266567   2.030   5.300   4.095  0.5002 -0.1118 -0.2248
15051TIP3    H166568   2.122   5.324   4.109 -0.0563  1.4406  1.1720
15051TIP3    H266569   2.007   5.343   4.013  0.0860  2.7729  1.2487
15052TIP3   OH266570   3.237   3.508  15.436 -0.0728  0.0891  0.3065
15052TIP3    H166571   3.288   3.463  15.370 -1.3487 -0.4636 -0.3486
15052TIP3    H266572   3.168   3.553  15.387 -1.5126 -0.9547  1.2678
15053TIP3   OH266573   1.055   4.889   2.607 -0.3540  0.1206 -0.1433
15053TIP3    H166574   1.077   4.840   2.528  1.4303  2.3747 -1.1718
15053TIP3    H266575   1.013   4.969   2.574  0.5499  1.1736  1.1580
15054TIP3   OH266576   3.624   3.938   1.777  0.0856 -0.0516  0.2793
15054TIP3    H166577   3.654   3.983   1.698  0.8783  0.2491  0.7476
15054TIP3    H266578   3.531   3.960   1.783  0.6750  2.6220  1.1856
15055TIP3   OH266579   6.205   4.725   0.069  0.1045 -0.4153  0.3626
15055TIP3    H166580   6.138   4.663   0.042 -0.1007 -0.1343  0.2174
15055TIP3    H266581   6.247   4.753  -0.012 -1.2762  1.2945  0.1735
15056TIP3   OH266582   5.395   5.060   5.627  0.9293 -0.1532  0.8541
15056TIP3    H166583   5.369   5.152   5.634  1.5040  0.0326  0.6094
15056TIP3    H266584   5.450   5.045   5.705  0.3345 -0.4651  1.2214
15057TIP3   OH266585   6.059   5.341  15.157  0.1678  0.1371 -0.5430
15057TIP3    H166586   5.987   5.347  15.094  1.0786 -1.1610 -1.7724
15057TIP3    H266587   6.021   5.298  15.234 -0.6538  0.5693 -0.7077
15058TIP3   OH266588   1.584   4.035   4.794 -0.4082 -0.3493  0.8566
15058TIP3    H166589   1.566   3.987   4.875  0.4609 -0.2218  1.1349
15058TIP3    H266590   1.506   4.020   4.740 -0.5820 -1.2433  1.3305
15059TIP3   OH266591   2.062   2.219   0.829  0.2536 -0.1988  0.3301
15059TIP3    H166592   2.101   2.276   0.895  1.8002  0.1931 -0.8673
15059TIP3    H266593   2.057   2.133   0.871  0.9586  0.0991  1.0445
15060TIP3   OH266594   6.057   4.893   3.632 -0.1877  0.0083  0.6125
15060TIP3    H166595   6.089   4.942   3.555  1.2078 -0.7459  0.6824
15060TIP3    H266596   6.010   4.819   3.595  0.7494 -0.5266  0.4514
15061TIP3   OH266597   5.513   3.625   2.554  0.0481 -0.2487 -0.5758
15061TIP3    H166598   5.523   3.579   2.638 -1.4823  0.1141 -0.1605
15061TIP3    H266599   5.421   3.612   2.530  0.1861  0.5913 -1.6430
15062TIP3   OH266600   2.123   6.673   3.821  0.1561  0.2974 -0.1119
15062TIP3    H166601   2.131   6.760   3.859  0.2535  0.2111  0.0669
15062TIP3    H266602   2.128   6.613   3.895  6.9918 -0.3284 -0.4613
15063TIP3   OH266603   5.939   3.513  12.440  0.1832 -0.4025  0.1951
15063TIP3    H166604   5.960   3.598  12.480 -0.9160 -0.1011  0.1549
15063TIP3    H266605   5.952   3.527  12.346  0.4690 -0.4291  0.2281
15064TIP3   OH266606   6.705   3.552  11.408 -0.0572  0.1164  0.6142
15064TIP3    H166607   6.737   3.474  11.454  0.8761 -0.8047 -1.4676
15064TIP3    H266608   6.629   3.520  11.359  1.5228 -0.0763 -1.8646
15065TIP3   OH266609   4.556   0.667  16.403  0.4073  0.3410 -0.2697
15065TIP3    H166610   4.552   0.648  16.309 -2.4124 -2.5486  0.2545
15065TIP3    H266611   4.581   0.584  16.444 -0.1089  1.0703  1.6252
15066TIP3   OH266612   2.282   5.951  13.674 -0.6264  0.1348  0.0250
15066TIP3    H166613   2.350   5.902  13.627 -0.6741  0.2111 -0.1237
15066TIP3    H266614   2.328   6.028  13.708 -0.1146 -0.9527  1.8822
15067TIP3   OH266615   6.238   1.835  11.331  0.2007  0.2770 -0.3092
15067TIP3    H166616   6.318   1.842  11.279  0.0328  0.1906 -0.5837
15067TIP3    H266617   6.232   1.742  11.353  0.2412  0.3042 -0.1793
15068TIP3   OH266618   0.330   5.764  15.318  0.3871  0.6189 -0.4927
15068TIP3    H166619   0.405   5.705  15.329  0.6148  1.0085  0.0637
15068TIP3    H266620   0.318   5.804  15.404 -0.0059  1.0957 -0.7670
15069TIP3   OH266621   1.418   6.211   4.620  0.1286 -0.5568  0.3189
15069TIP3    H166622   1.467   6.144   4.572  0.9205  0.4393 -0.3061
15069TIP3    H266623   1.417   6.287   4.562 -2.0104 -0.4543  0.3969
15070TIP3   OH266624   1.001   2.250   1.988 -0.4187  0.6430 -0.6427
15070TIP3    H166625   0.932   2.280   2.047 -0.0045  0.6834 -0.1789
15070TIP3    H266626   0.980   2.158   1.973 -0.1185  0.4376  0.1500
15071TIP3   OH266627   1.264   3.771   5.819  0.7694 -0.0143 -0.6568
15071TIP3    H166628   1.270   3.676   5.821 -0.9683 -0.1538 -0.4151
15071TIP3    H266629   1.170   3.789   5.811  1.0144  1.6777 -0.1735
15072TIP3   OH266630   6.519   1.313  14.109 -0.0184  0.0782  0.1437
15072TIP3    H166631   6.549   1.402  14.090 -0.1230 -0.2027 -1.4726
15072TIP3    H266632   6.440   1.326  14.163 -0.9667  1.0433 -1.4107
15073TIP3   OH266633   0.904   6.769   0.686 -0.0692  0.2659 -0.3553
15073TIP3    H166634   0.961   6.696   0.661  0.5096  0.1117  1.2641
15073TIP3    H266635   0.847   6.733   0.754 -1.5784  0.6479 -1.3739
15074TIP3   OH266636   2.805   0.928  15.995  0.0463  0.4865 -0.5480
15074TIP3    H166637   2.713   0.922  16.022  0.0944  2.2947  0.1692
15074TIP3    H266638   2.801   0.951  15.902 -0.1846 -0.7263 -0.8553
15075TIP3   OH266639   3.123   2.180  15.372 -0.0423 -0.3099  0.2838
15075TIP3    H166640   3.138   2.195  15.465 -1.8503  1.0098  0.4164
15075TIP3    H266641   3.211   2.175  15.334  0.7162 -0.1957  1.9556
15076TIP3   OH266642   4.373   0.814   0.243  0.5131  0.2172 -0.2869
15076TIP3    H166643   4.308   0.817   0.312  0.6298  0.3348 -0.1826
15076TIP3    H266644   4.410   0.902   0.240  0.7031  0.1379 -0.3097
15077TIP3   OH266645   3.419   0.259   5.692  0.2712  0.1447  0.0371
15077TIP3    H166646   3.471   0.317   5.748  2.1811 -0.6303 -0.8903
15077TIP3    H266647   3.446   0.171   5.717  0.2321 -0.2424 -1.2335
15078TIP3   OH266648   6.676   0.987  15.911  0.2338  0.3671  0.4670
15078TIP3    H166649   6.658   0.930  15.986 -2.5967 -0.7326 -0.9107
15078TIP3    H266650   6.737   0.937  15.857 -0.3235 -0.3025  0.4498
15079TIP3   OH266651   4.897   3.769   3.541  0.1184 -0.1965  0.0107
15079TIP3    H166652   4.801   3.769   3.547  0.0915 -0.0367 -0.3375
15079TIP3    H266653   4.927   3.723   3.619 -0.2070  0.7853  0.7321
15080TIP3   OH266654   2.146   5.211  12.384 -0.0091  0.1769  0.2506
15080TIP3    H166655   2.135   5.184  12.293 -0.1961 -0.3177  0.4185
15080TIP3    H266656   2.097   5.293  12.391 -0.7230 -0.2309  0.1238
15081TIP3   OH266657   1.579   2.552   0.770  0.7558 -0.3904 -0.2442
15081TIP3    H166658   1.663   2.518   0.738  0.1019 -0.4472 -2.0514
15081TIP3    H266659   1.516   2.526   0.703 -0.7148 -0.3256  1.0606
15082TIP3   OH266660   1.088   6.098  13.236 -0.3807 -0.2006  0.9608
15082TIP3    H166661   1.171   6.124  13.194 -1.2170 -0.7688 -1.1967
15082TIP3    H266662   1.026   6.166  13.209 -1.6495 -2.1228 -1.4150
15083TIP3   OH266663   5.953   2.297   4.800  0.0636  0.0012  0.3948
15083TIP3    H166664   6.013   2.366   4.827  0.3557 -0.4065  0.8013
15083TIP3    H266665   5.866   2.336   4.807  0.3145  1.0300 -1.4506
15084TIP3   OH266666   4.518   4.703   4.377 -0.2000 -0.4319  0.1125
15084TIP3    H166667   4.539   4.692   4.470 -2.2281  0.2884  0.7038
15084TIP3    H266668   4.505   4.797   4.367 -0.0403 -0.5092 -0.9163
15085TIP3   OH266669   5.406   3.223   1.283  0.3648 -0.2838  0.1390
15085TIP3    H166670   5.498   3.248   1.289  0.3440 -0.4482  1.3978
15085TIP3    H266671   5.402   3.160   1.211  1.1982 -0.1784 -0.0076
15086TIP3   OH266672   3.895   3.317   1.812 -0.3064 -0.1813 -0.1071
15086TIP3    H166673   3.875   3.343   1.902  0.4309 -1.2215  0.3857
15086TIP3    H266674   3.881   3.222   1.811  1.7042 -0.5125 -0.5033
15087TIP3   OH266675   6.036   1.424   2.735  0.1744 -0.1334 -0.7802
15087TIP3    H166676   6.032   1.504   2.682  2.0264 -0.3784 -1.3790
15087TIP3    H266677   6.055   1.354   2.673  1.4968 -0.5647  0.0504
15088TIP3   OH266678   4.358   0.777   5.787  0.5206 -0.3039  0.6836
15088TIP3    H166679   4.417   0.845   5.755  0.1247 -0.8654 -1.3525
15088TIP3    H266680   4.272   0.800   5.751  0.6495 -2.6324 -1.3668
15089TIP3   OH266681   1.994   3.226  12.452 -0.6478  0.5157  0.4167
15089TIP3    H166682   2.031   3.231  12.540  0.9148 -1.2340 -0.0817
15089TIP3    H266683   2.070   3.228  12.393 -1.5421 -0.0134 -0.8101
15090TIP3   OH266684   2.397   2.094  13.157  0.0432 -0.2468  0.7158
15090TIP3    H166685   2.454   2.129  13.088 -0.9680 -0.7481 -0.4094
15090TIP3    H266686   2.313   2.139  13.144 -1.5688 -3.4194 -1.2739
15091TIP3   OH266687   2.296   3.180   1.791 -0.2709  0.2020  0.3206
15091TIP3    H166688   2.274   3.207   1.881 -1.9972  0.9955 -0.2891
15091TIP3    H266689   2.214   3.190   1.743  0.4849 -0.7576 -1.2392
15092TIP3   OH266690   0.432   4.996   5.336 -0.1059 -0.7236 -0.0550
15092TIP3    H166691   0.524   4.976   5.321 -0.6373 -2.5002 -1.2667
15092TIP3    H266692   0.389   4.973   5.254 -1.5008  1.2287  0.0594
15093TIP3   OH266693   1.118   5.796  15.316  0.2798  0.5954  0.5580
15093TIP3    H166694   1.137   5.703  15.304 -1.2839  0.3784 -0.4483
15093TIP3    H266695   1.075   5.822  15.235  1.3499  2.4005  0.5098
15094TIP3   OH266696   0.538   4.153   3.741  0.7478  0.2345 -0.0729
15094TIP3    H166697   0.524   4.059   3.750  1.6293 -0.1774 -2.4008
15094TIP3    H266698   0.583   4.178   3.822 -0.8242 -0.9983  1.2744
15095TIP3   OH266699   0.829   2.999   0.935  0.2544 -0.5208  0.0470
15095TIP3    H166700   0.816   3.094   0.938  2.2087 -0.2348  2.0021
15095TIP3    H266701   0.805   2.974   0.846  0.0708  1.8589 -0.6336
15096TIP3   OH266702   2.298   2.591   1.548 -0.0870  0.6573 -0.9984
15096TIP3    H166703   2.307   2.623   1.458  0.6471  1.8776 -0.5114
15096TIP3    H266704   2.207   2.608   1.571 -0.4818 -0.3270 -1.7371
15097TIP3   OH266705   3.804   0.670  14.876 -0.7005 -0.8149  0.1283
15097TIP3    H166706   3.788   0.577  14.858 -0.0808 -1.0583  0.7874
15097TIP3    H266707   3.789   0.679  14.970 -0.6856 -0.2572  0.0813
15098TIP3   OH266708   1.588   0.294  15.413 -0.3178 -0.3377  0.6054
15098TIP3    H166709   1.593   0.312  15.507 -1.3130  0.3694  0.5403
15098TIP3    H266710   1.538   0.367  15.377  2.2345  0.8000 -0.8902
15099TIP3   OH266711   0.380   5.886   0.002 -0.4244 -0.4273  0.4779
15099TIP3    H166712   0.427   5.969  -0.005  0.6232 -1.0104  0.4056
15099TIP3    H266713   0.435   5.831   0.058 -0.4629 -1.5090 -0.4933
15100TIP3   OH266714   5.936   0.644   4.231 -0.1765  0.1203  0.1363
15100TIP3    H166715   5.969   0.711   4.172  0.3174  0.1057  0.3814
15100TIP3    H266716   5.973   0.562   4.197 -0.8803 -0.0453 -0.2349
15101TIP3   OH266717   1.325   0.268  11.053 -0.4036  0.0079  0.6499
15101TIP3    H166718   1.309   0.299  11.143 -1.1034  1.0871  0.1749
15101TIP3    H266719   1.264   0.319  10.999  0.5698 -0.0461 -0.5348
15102TIP3   OH266720   6.699   0.338   6.175 -0.0809 -0.1516 -1.2222
15102TIP3    H166721   6.670   0.280   6.245  0.1194 -0.4339 -1.3708
15102TIP3    H266722   6.784   0.372   6.205 -0.8455  1.1843 -0.4919
15103TIP3   OH266723   0.393   6.344   0.496 -0.2533  0.1975  0.2610
15103TIP3    H166724   0.466   6.405   0.502  0.3142 -0.3938 -0.4484
15103TIP3    H266725   0.339   6.377   0.424  0.2888 -0.3695 -0.4159
15104TIP3   OH266726   5.440   0.751  11.896 -0.8076  0.1250  0.0808
15104TIP3    H166727   5.528   0.736  11.930 -1.3065  1.3432  2.0272
15104TIP3    H266728   5.400   0.664  11.893 -0.6323 -0.0964  2.4177
15105TIP3   OH266729   5.482   1.568  13.323  0.1480  0.4184 -0.3134
15105TIP3    H166730   5.421   1.499  13.299  2.5143 -1.0580 -2.5588
15105TIP3    H266731   5.560   1.522  13.353  0.8577  2.1905  0.7077
15106TIP3   OH266732   0.332   0.861   3.350 -0.4155  0.3076  0.0959
15106TIP3    H166733   0.299   0.779   3.385 -0.2694 -0.8078 -2.1814
15106TIP3    H266734   0.255   0.906   3.316 -0.1118 -0.6206 -1.9432
15107TIP3   OH266735   2.185   1.304  12.654  0.4749 -0.6740  0.1091
15107TIP3    H166736   2.155   1.376  12.599  0.3509 -0.3140  0.6375
15107TIP3    H266737   2.218   1.347  12.733  0.0616 -1.2190  0.5845
15108TIP3   OH266738   6.296   0.580  14.408 -0.3812  0.0512 -0.5740
15108TIP3    H166739   6.241   0.503  14.423 -0.6789 -0.1546 -2.4000
15108TIP3    H266740   6.378   0.544  14.372 -0.3416  0.5402 -0.9964
15109TIP3   OH266741   5.105   2.554  10.289 -0.5906 -0.5757  0.0080
15109TIP3    H166742   5.100   2.484  10.354  0.6095 -0.4172  0.2966
15109TIP3    H266743   5.060   2.628  10.330  0.1551 -0.4772  0.6622
15110TIP3   OH266744   1.953   3.942   1.771 -0.5262 -0.1802 -0.4660
15110TIP3    H166745   1.886   3.957   1.704  0.0305 -1.2417 -1.2924
15110TIP3    H266746   1.997   3.862   1.743 -0.4065 -0.7767  1.2813
15111TIP3   OH266747   4.744   1.635   3.029 -0.7810  0.3810 -0.0119
15111TIP3    H166748   4.715   1.552   3.067  1.0622  0.1896  1.1002
15111TIP3    H266749   4.663   1.682   3.008 -1.8751 -0.6073  1.7721
15112TIP3   OH266750   6.600   6.594  11.952  0.1350  0.1215 -0.2517
15112TIP3    H166751   6.512   6.557  11.958  0.6246 -1.0558  0.1555
15112TIP3    H266752   6.588   6.680  11.913 -1.2000  0.0096 -0.1342
15113TIP3   OH266753   6.564   4.805   5.246  0.0579  0.4803 -0.2465
15113TIP3    H166754   6.597   4.749   5.316  1.1392  0.4108 -0.7876
15113TIP3    H266755   6.631   4.871   5.234 -0.2276  0.6375 -1.0488
15114TIP3   OH266756   3.135   0.184  16.908  0.6133  0.4769 -0.3810
15114TIP3    H166757   3.122   0.117  16.975  1.1468 -1.6562 -2.2791
15114TIP3    H266758   3.050   0.228  16.901  0.0558 -0.4144  0.4953
15115TIP3   OH266759   5.679   6.211  13.968 -0.6588 -0.6430 -0.1476
15115TIP3    H166760   5.771   6.220  13.989 -0.6371 -4.2729  2.2074
15115TIP3    H266761   5.678   6.164  13.885 -0.3564 -1.2584  0.1929
15116TIP3   OH266762   6.026   6.071  14.223  0.0998 -0.5873  0.0591
15116TIP3    H166763   6.077   6.101  14.148 -1.8024 -0.2176 -1.1810
15116TIP3    H266764   6.048   6.132  14.294  0.4605  0.3115 -0.7999
15117TIP3   OH266765   1.989   2.445  15.424 -0.1244 -0.0453 -0.8597
15117TIP3    H166766   2.028   2.377  15.480 -0.1798 -0.1797 -0.9827
15117TIP3    H266767   2.063   2.479  15.374 -0.2521 -0.7382 -1.5518
15118TIP3   OH266768   2.258   0.338  11.285  1.0087  0.1290 -0.5967
15118TIP3    H166769   2.256   0.403  11.214  1.6074 -0.0160 -0.7477
15118TIP3    H266770   2.309   0.265  11.250 -0.0782 -0.6615 -0.6181
15119TIP3   OH266771   3.236   0.193   6.211 -0.2301  0.1086  0.0962
15119TIP3    H166772   3.231   0.145   6.129  1.7674  0.2984 -0.1836
15119TIP3    H266773   3.325   0.228   6.213 -0.9275  2.0018  1.2896
15120TIP3   OH266774   3.501   0.106   2.649 -0.2052  0.1659 -0.1716
15120TIP3    H166775   3.501   0.040   2.580 -2.2985  0.4180 -0.4960
15120TIP3    H266776   3.408   0.130   2.659  0.1970  1.1670  1.7371
15121TIP3   OH266777   1.406   4.623   3.034 -0.4206 -0.6487  0.5169
15121TIP3    H166778   1.317   4.628   3.068  0.0391  0.0904  1.6724
15121TIP3    H266779   1.399   4.656   2.944 -1.1489  0.4467  0.9498
15122TIP3   OH266780   5.578   5.086  12.830  0.2988 -0.5071  0.0816
15122TIP3    H166781   5.549   5.177  12.832 -1.0540 -0.8879  2.7183
15122TIP3    H266782   5.509   5.038  12.876  0.2069 -3.1690 -2.5957
15123TIP3   OH266783   0.504   1.915   6.400 -0.3492  0.5918  0.0346
15123TIP3    H166784   0.455   1.997   6.411 -1.1604  0.0818  0.2865
15123TIP3    H266785   0.593   1.943   6.380 -0.2792  1.5470  1.5138
15124TIP3   OH266786   1.812   3.915   5.864 -0.2009 -0.3380  0.6578
15124TIP3    H166787   1.763   3.847   5.911  0.0677 -1.3605 -0.4898
15124TIP3    H266788   1.811   3.886   5.773  2.1723 -0.1647  0.5286
15125TIP3   OH266789   1.369   6.518  10.814 -0.3141  0.3407  0.5044
15125TIP3    H166790   1.273   6.522  10.819 -0.5911 -1.2724 -2.0829
15125TIP3    H266791   1.393   6.453  10.880 -0.8986  1.2006  1.6048
15126TIP3   OH266792   2.892   0.104   2.955 -0.8152  1.2980  0.2391
15126TIP3    H166793   2.950   0.030   2.970 -1.6163  0.5819 -0.0916
15126TIP3    H266794   2.804   0.066   2.951 -1.0609  1.9626 -2.0776
15127TIP3   OH266795   1.183   5.177  11.234  0.1246  0.2637 -0.1065
15127TIP3    H166796   1.163   5.224  11.153  0.7621  1.4701  0.4045
15127TIP3    H266797   1.133   5.096  11.228  0.5325  0.1115 -1.9198
15128TIP3   OH266798   0.477   3.015  16.190 -0.3938  0.9708 -0.4430
15128TIP3    H166799   0.522   2.934  16.165 -1.2803  0.8277 -1.6545
15128TIP3    H266800   0.546   3.071  16.225  0.3461 -0.0442 -0.2239
15129TIP3   OH266801   2.215   2.764   6.504  0.3422 -0.2336 -0.3540
15129TIP3    H166802   2.308   2.773   6.524  0.8078 -2.3663 -1.3436
15129TIP3    H266803   2.180   2.852   6.518  2.6020  0.7736 -0.5468
15130TIP3   OH266804   0.045   4.271   5.666 -0.1078 -0.1146  0.2602
15130TIP3    H166805   0.101   4.295   5.740  3.3358 -2.7649 -1.1892
15130TIP3    H266806   0.092   4.304   5.589 -1.8563 -0.3275 -0.9496
15131TIP3   OH266807   3.752   5.555   1.601  0.2327 -0.1709  0.3846
15131TIP3    H166808   3.706   5.567   1.683 -0.6810 -1.0915  0.0271
15131TIP3    H266809   3.739   5.637   1.553 -1.6799 -0.6569 -0.0071
15132TIP3   OH266810   3.665   6.238  12.132  0.0006 -0.3072  0.0017
15132TIP3    H166811   3.599   6.302  12.109  0.1266 -0.2430 -0.1832
15132TIP3    H266812   3.691   6.198  12.049 -0.7279 -1.2421  0.2094
15133TIP3   OH266813   6.288   0.257  11.592 -0.3109  0.5884  0.0699
15133TIP3    H166814   6.334   0.278  11.511  0.5493  0.9042  0.6249
15133TIP3    H266815   6.215   0.202  11.565 -0.9246  1.9126 -1.1006
15134TIP3   OH266816   4.125   6.297   4.844 -0.5793  0.5482  0.5983
15134TIP3    H166817   4.034   6.298   4.814 -0.7115 -0.1937  0.9520
15134TIP3    H266818   4.119   6.297   4.940 -0.2392 -0.3698  0.6361
15135TIP3   OH266819   6.762   4.223  16.750 -0.3777  0.3650 -0.2594
15135TIP3    H166820   6.808   4.148  16.789  0.8198  0.7634 -0.8584
15135TIP3    H266821   6.674   4.189  16.731 -0.3347 -0.4469  0.8195
15136TIP3   OH266822   6.467   4.340   4.479 -0.3507 -0.0837 -0.2808
15136TIP3    H166823   6.481   4.311   4.389 -0.3686  0.1392 -0.3556
15136TIP3    H266824   6.392   4.399   4.473 -0.5949 -0.3711 -0.0597
15137TIP3   OH266825   2.673   0.189  11.488 -0.0904  0.5331  0.0859
15137TIP3    H166826   2.654   0.096  11.488  0.6230  0.3086  2.6346
15137TIP3    H266827   2.722   0.204  11.408 -2.7078 -0.6445 -1.8775
15138TIP3   OH266828   0.162   0.436   4.547 -0.4392  0.1744 -0.1628
15138TIP3    H166829   0.179   0.369   4.613 -0.1073  1.8007  1.4985
15138TIP3    H266830   0.129   0.388   4.472  1.0476 -1.9763  0.4591
15139TIP3   OH266831   6.698   0.008   2.504 -0.1808  0.3137 -0.2291
15139TIP3    H166832   6.721   0.085   2.557  0.1576  0.6125 -0.7963
15139TIP3    H266833   6.675   0.044   2.419 -1.1094 -0.1304 -0.1797
15140TIP3   OH266834   3.832   4.070  13.377 -0.2116 -0.1646 -0.1466
15140TIP3    H166835   3.812   4.140  13.314  0.5606  1.0859  0.9546
15140TIP3    H266836   3.763   4.077  13.443  0.4909  0.3021  0.5520
15141TIP3   OH266837   1.161   3.958  14.240  0.2534 -0.9162  0.3313
15141TIP3    H166838   1.165   3.865  14.264 -2.8405 -1.5907 -1.2687
15141TIP3    H266839   1.071   3.984  14.259  0.4476  1.1613 -1.2150
15142TIP3   OH266840   1.572   3.707   4.043  0.1442 -0.1080  0.2035
15142TIP3    H166841   1.498   3.670   4.092 -1.9645  1.4128 -1.6268
15142TIP3    H266842   1.594   3.639   3.979  1.4742 -1.2055  1.7298
15143TIP3   OH266843   1.161   2.145   2.459 -0.0963  0.1849  0.4204
15143TIP3    H166844   1.161   2.066   2.514 -0.5121 -0.3533 -0.3291
15143TIP3    H266845   1.181   2.216   2.519 -0.7139 -0.3652  1.2980
15144TIP3   OH266846   3.801   1.061  15.704 -0.4255 -0.3620 -0.7667
15144TIP3    H166847   3.850   1.119  15.647  0.1201 -0.9187 -0.8831
15144TIP3    H266848   3.865   1.030  15.768 -0.7038 -0.8386 -0.7106
15145TIP3   OH266849   0.927   0.120  13.684 -0.2236 -0.7686 -0.6575
15145TIP3    H166850   0.972   0.195  13.645 -1.4713  0.6461  0.4981
15145TIP3    H266851   0.963   0.113  13.772 -0.9550 -0.7737 -0.3509
15146TIP3   OH266852   0.000   3.862  15.944  0.0973 -0.4173 -0.4790
15146TIP3    H166853  -0.037   3.775  15.961 -2.4762  0.2625 -2.0005
15146TIP3    H266854   0.051   3.882  16.023 -1.3662 -2.2328  1.0389
15147TIP3   OH266855   2.451   3.643  12.211  0.3720 -0.1279  0.3222
15147TIP3    H166856   2.505   3.679  12.141 -0.9626  1.0586 -0.1651
15147TIP3    H266857   2.393   3.715  12.235 -1.7025 -1.6087  0.0675
15148TIP3   OH266858   6.208   5.557  15.312  0.1040  0.4446 -0.2200
15148TIP3    H166859   6.283   5.574  15.255  0.2738  0.3070 -0.0393
15148TIP3    H266860   6.157   5.491  15.267 -0.0499  0.7296 -0.4704
15149TIP3   OH266861   0.889   5.076   0.589  0.0087  0.5495 -0.2632
15149TIP3    H166862   0.929   5.017   0.654 -2.2036 -1.1105 -0.2763
15149TIP3    H266863   0.892   5.162   0.630 -0.1769 -0.2460  1.5382
15150TIP3   OH266864   2.490   4.757  14.481 -0.2187  0.2253  0.7427
15150TIP3    H166865   2.431   4.736  14.409  0.1335  1.1619  0.1517
15150TIP3    H266866   2.433   4.781  14.554 -0.5784  0.4540  0.3882
15151TIP3   OH266867   5.508   4.774  15.605 -0.2801  0.3947 -0.0936
15151TIP3    H166868   5.567   4.786  15.679 -0.9523  0.3799  0.4614
15151TIP3    H266869   5.420   4.776  15.644 -0.6239 -0.1964 -0.8132
15152TIP3   OH266870   3.129   5.270  14.353 -0.0810 -0.1902 -0.5138
15152TIP3    H166871   3.202   5.283  14.292 -0.6779 -1.1855 -1.4994
15152TIP3    H266872   3.143   5.181  14.387  0.3866  0.4557  1.0341
15153TIP3   OH266873   0.403   2.703  13.426  0.2867  0.0208  0.5306
15153TIP3    H166874   0.368   2.776  13.374 -1.4618 -0.3731  1.1222
15153TIP3    H266875   0.340   2.690  13.496  0.9510 -1.5922  0.8782
15154TIP3   OH266876   4.154   6.276  16.833  0.1128  0.0350 -0.1128
15154TIP3    H166877   4.248   6.267  16.849  0.2523  0.0576 -0.8874
15154TIP3    H266878   4.148   6.311  16.744 -0.5902  1.3684  0.4248
15155TIP3   OH266879   1.396   2.527   0.573  0.6894  0.0526 -0.0417
15155TIP3    H166880   1.465   2.548   0.511 -0.3391  0.2812 -1.1283
15155TIP3    H266881   1.323   2.494   0.520 -0.9505  2.0808  0.8129
15156TIP3   OH266882   1.945   4.079   3.903 -0.2376 -0.1983  0.1814
15156TIP3    H166883   1.942   3.983   3.903  0.8903 -0.2572  1.2520
15156TIP3    H266884   1.980   4.102   3.989 -0.8868  1.2048  0.1035
15157TIP3   OH266885   6.709   1.040   2.466  0.1831 -0.0781 -0.2525
15157TIP3    H166886   6.644   1.001   2.407  1.3712 -0.0594 -1.6192
15157TIP3    H266887   6.766   1.091   2.409  0.2470  1.5347  1.1705
15158TIP3   OH266888   1.848   4.220  15.718  0.6685 -0.4423  0.5721
15158TIP3    H166889   1.875   4.137  15.759  2.1160 -0.8618 -1.0683
15158TIP3    H266890   1.892   4.219  15.633 -1.4760  0.7830 -0.6183
15159TIP3   OH266891   0.255   6.805   1.609  0.1693 -0.0732  0.0323
15159TIP3    H166892   0.172   6.825   1.565  0.3581 -1.8842 -1.2947
15159TIP3    H266893   0.235   6.810   1.702 -1.5837 -0.9290 -0.2578
15160TIP3   OH266894   5.069   6.458   2.644 -0.1487 -0.2478 -0.4854
15160TIP3    H166895   5.015   6.514   2.699  0.6547 -1.1222  1.2523
15160TIP3    H266896   5.138   6.516   2.612  2.1213 -0.5612  3.2574
15161TIP3   OH266897   5.356   4.415   4.459 -0.4515  0.4160  0.0322
15161TIP3    H166898   5.342   4.478   4.530 -1.8601 -0.1863  0.3304
15161TIP3    H266899   5.337   4.463   4.379 -5.3471 -0.3991  0.3835
15162TIP3   OH266900   1.797   5.617   1.821 -0.3234 -0.2126  0.0366
15162TIP3    H166901   1.722   5.667   1.853 -0.7549 -0.5009 -0.5071
15162TIP3    H266902   1.769   5.582   1.737  0.9879  1.0254 -0.9821
15163TIP3   OH266903   5.691   5.795  16.150 -0.5146  0.1780  0.2217
15163TIP3    H166904   5.717   5.864  16.089  0.3044 -0.0402  0.3086
15163TIP3    H266905   5.673   5.841  16.232 -2.0987  0.5331 -0.2792
15164TIP3   OH266906   4.127   4.488  15.352  0.2414 -0.3153 -0.7009
15164TIP3    H166907   4.111   4.402  15.312  0.4693  0.0396 -1.5761
15164TIP3    H266908   4.192   4.529  15.296  0.1090  0.4529 -0.3064
15165TIP3   OH266909   1.069   5.291   3.668 -0.0403 -0.4897  0.0014
15165TIP3    H166910   1.046   5.200   3.689 -1.4561 -0.0815  0.2722
15165TIP3    H266911   1.027   5.343   3.735 -0.6531  0.4935 -1.1113
15166TIP3   OH266912   0.103   2.548  15.470 -0.1571 -0.1044 -0.2353
15166TIP3    H166913   0.132   2.623  15.419 -2.3505  0.6107 -0.5416
15166TIP3    H266914   0.096   2.477  15.407  0.2814 -0.1018 -0.2864
15167TIP3   OH266915   2.788   2.867   3.350 -0.2766 -0.0215  0.1725
15167TIP3    H166916   2.793   2.896   3.440 -1.1092 -1.3852  0.6927
15167TIP3    H266917   2.864   2.809   3.339 -0.0359  0.3390 -0.0812
15168TIP3   OH266918   1.000   4.546  11.575  0.4894 -0.1786  0.0604
15168TIP3    H166919   1.064   4.599  11.527  1.2242 -0.0685  1.1398
15168TIP3    H266920   1.042   4.461  11.586 -0.1257 -0.5597 -0.4423
15169TIP3   OH266921   4.139   2.887   5.457  0.3506 -0.1109  0.0319
15169TIP3    H166922   4.214   2.860   5.405 -1.2387 -0.1132 -2.3952
15169TIP3    H266923   4.063   2.862   5.405 -1.4529 -1.7534  3.1949
15170TIP3   OH266924   1.191   2.679  10.506  0.2396  0.2639 -0.3510
15170TIP3    H166925   1.167   2.772  10.505  0.8959  0.4452 -2.4070
15170TIP3    H266926   1.110   2.633  10.527  0.1099  1.3016  1.7402
15171TIP3   OH266927   5.511   0.319  11.594  0.1819  0.2533  0.2063
15171TIP3    H166928   5.558   0.300  11.675 -0.9154 -0.6099  0.6551
15171TIP3    H266929   5.419   0.324  11.620 -0.3603 -1.5769 -1.2230
15172TIP3   OH266930   2.742   5.741  12.983 -0.2299  0.2564  0.4053
15172TIP3    H166931   2.729   5.649  13.006  0.3782  0.2274  0.6592
15172TIP3    H266932   2.824   5.742  12.933 -0.1635  0.6708  0.5163
15173TIP3   OH266933   3.728   1.855  16.671  0.1860  0.0945  0.1019
15173TIP3    H166934   3.662   1.924  16.675  1.1701  1.0178  1.5405
15173TIP3    H266935   3.701   1.792  16.737  1.3109  1.0731  1.5694
15174TIP3   OH266936   3.365   6.650   0.789  0.4858 -0.2031  0.5795
15174TIP3    H166937   3.322   6.589   0.848  2.7231 -2.9549 -0.4163
15174TIP3    H266938   3.306   6.655   0.713  1.1468 -2.9148 -0.2340
15175TIP3   OH266939   4.796   5.930  13.790  0.1306  0.2494 -0.0847
15175TIP3    H166940   4.808   5.838  13.767  0.8516  0.6504 -1.4919
15175TIP3    H266941   4.861   5.976  13.736  0.0381  1.5525  0.8624
15176TIP3   OH266942   3.312   5.685   4.154 -0.4105 -0.2509  0.1574
15176TIP3    H166943   3.340   5.777   4.155  0.6996 -0.5249  3.1778
15176TIP3    H266944   3.231   5.684   4.204 -1.0677 -0.7737 -0.8975
15177TIP3   OH266945   5.349   3.339   2.834  0.2110  0.0374  0.4136
15177TIP3    H166946   5.324   3.269   2.775 -2.5421  1.5708 -0.3797
15177TIP3    H266947   5.270   3.359   2.884  0.3701  3.5756 -0.4854
15178TIP3   OH266948   2.257   5.336   2.161  0.1340 -0.2605  0.0842
15178TIP3    H166949   2.175   5.341   2.210  0.5202  0.4791  0.6828
15178TIP3    H266950   2.289   5.247   2.177 -0.3391 -0.4163  0.1842
15179TIP3   OH266951   4.742   2.849  11.228 -0.4127  0.0402  0.1030
15179TIP3    H166952   4.827   2.893  11.239 -1.1954  1.8607 -0.6362
15179TIP3    H266953   4.710   2.880  11.144 -1.4023 -1.3919 -0.0886
15180TIP3   OH266954   6.374   5.447  13.615 -0.2318  0.1314  0.4399
15180TIP3    H166955   6.293   5.445  13.565 -0.2553 -2.1175  0.4521
15180TIP3    H266956   6.433   5.500  13.562 -1.3895  0.9390 -0.0826
15181TIP3   OH266957   0.138   0.947  16.900 -0.9093  0.0514 -0.5865
15181TIP3    H166958   0.229   0.938  16.874 -0.8295  0.2661 -0.3824
15181TIP3    H266959   0.118   1.040  16.887 -0.8300  0.1939  0.2309
15182TIP3   OH266960   4.227   1.755  11.662  0.2273  0.4304 -0.2820
15182TIP3    H166961   4.155   1.700  11.631  0.7118 -2.9752  3.7749
15182TIP3    H266962   4.184   1.823  11.714 -0.1777  0.3550 -0.5150
15183TIP3   OH266963   5.743   2.418   2.628  0.1903 -0.1282  0.1355
15183TIP3    H166964   5.718   2.503   2.590 -1.4909  1.1258  3.6766
15183TIP3    H266965   5.731   2.429   2.722  3.6315 -3.1478  1.1495
15184TIP3   OH266966   2.056   6.211  13.022  0.4728 -0.2752 -0.7058
15184TIP3    H166967   2.121   6.189  13.088  0.1578 -1.1148 -0.6688
15184TIP3    H266968   2.030   6.301  13.043  1.0059 -0.2324 -0.2177
15185TIP3   OH266969   6.756   2.695   6.629  0.2085 -0.6464 -0.1226
15185TIP3    H166970   6.842   2.677   6.666  0.0973  0.1713  0.5701
15185TIP3    H266971   6.774   2.721   6.538  0.7599  0.1156  0.1956
15186TIP3   OH266972   5.500   1.026   0.025 -0.1854 -0.5175 -0.4494
15186TIP3    H166973   5.569   1.020   0.091  1.1300  2.0094 -1.4719
15186TIP3    H266974   5.530   0.969  -0.046  0.3735 -0.2084 -0.4697
15187TIP3   OH266975   0.767   4.446  16.063  0.1544  0.4694 -0.3618
15187TIP3    H166976   0.837   4.472  16.003  0.4504  0.5400  0.0077
15187TIP3    H266977   0.692   4.499  16.036 -0.3688 -1.0527 -2.0661
15188TIP3   OH266978   4.039   4.688   2.998  0.6580 -0.1565  0.1929
15188TIP3    H166979   4.014   4.781   2.996 -2.2708 -0.8639 -0.8197
15188TIP3    H266980   4.119   4.684   2.945  1.6882  1.9515  1.4602
15189TIP3   OH266981   3.397   0.602  14.761  0.1407 -0.2239  0.1800
15189TIP3    H166982   3.393   0.607  14.857 -1.6962 -1.0387  0.2001
15189TIP3    H266983   3.458   0.530  14.743  1.2831  0.5931  0.6870
15190TIP3   OH266984   1.270   0.187   3.796 -0.2188  0.3697 -0.9695
15190TIP3    H166985   1.200   0.195   3.731  0.0679 -2.0201 -1.6594
15190TIP3    H266986   1.351   0.192   3.745  0.0072 -1.3065 -0.8336
15191TIP3   OH266987   2.897   4.774   4.019 -0.1096  0.5555  0.0141
15191TIP3    H166988   2.807   4.786   3.989  0.2602  0.8003 -1.0341
15191TIP3    H266989   2.888   4.733   4.105 -1.2099 -0.2845 -0.4740
15192TIP3   OH266990   0.010   3.484   5.420  0.1843  0.3606  0.2329
15192TIP3    H166991   0.036   3.526   5.502 -0.2825  0.2102  0.4596
15192TIP3    H266992   0.089   3.487   5.365  0.6212  0.0768  0.8446
15193TIP3   OH266993   0.524   6.776   3.228  0.1582  0.2753 -0.3414
15193TIP3    H166994   0.445   6.723   3.236  0.6947 -0.3044  1.3856
15193TIP3    H266995   0.493   6.866   3.238 -0.3047  0.0593  0.2376
15194TIP3   OH266996   1.895   4.622  14.046  0.3361  0.0346  0.1853
15194TIP3    H166997   1.961   4.565  14.087  0.9837  0.7287  0.1299
15194TIP3    H266998   1.884   4.586  13.958  0.6094 -0.1110  0.2089
15195TIP3   OH266999   4.461   2.988   5.419 -0.5656  0.4243  0.1215
15195TIP3    H167000   4.406   3.063   5.439  0.5147  1.1295  0.5546
15195TIP3    H267001   4.486   2.953   5.505 -1.2057 -0.5586 -0.0720
15196TIP3   OH267002   6.319   4.019  11.472 -0.4792 -0.0653  0.0022
15196TIP3    H167003   6.231   3.981  11.479 -1.4966  2.2922  0.8591
15196TIP3    H267004   6.305   4.106  11.436  1.4676  0.5560  0.6330
15197TIP3   OH267005   4.843   1.069   1.171  0.1414 -0.1944 -0.2174
15197TIP3    H167006   4.871   1.013   1.098  1.3232  0.0224  0.0441
15197TIP3    H267007   4.847   1.011   1.247 -0.3536 -0.2188 -0.2098
15198TIP3   OH267008   6.507   6.350  12.514 -0.2646  0.2239  0.0458
15198TIP3    H167009   6.532   6.368  12.604  1.7486 -0.2129 -0.3732
15198TIP3    H267010   6.537   6.261  12.497 -1.0900  0.1002 -0.9112
15199TIP3   OH267011   6.636   1.795  11.631 -0.1960 -0.2987 -0.2303
15199TIP3    H167012   6.656   1.848  11.708  0.3661 -0.1115 -0.4986
15199TIP3    H267013   6.614   1.858  11.562 -2.9187 -0.5062  0.3301
15200TIP3   OH267014   0.735   5.927  16.645  0.1449  0.0753  0.0380
15200TIP3    H167015   0.825   5.951  16.627  0.0781 -0.7121 -1.4620
15200TIP3    H267016   0.705   5.883  16.566 -1.4311 -0.0446  0.6609
15201TIP3   OH267017   1.424   3.924   0.668  0.3598 -0.5654 -0.6717
15201TIP3    H167018   1.417   3.833   0.696 -1.1224 -0.1390  0.4061
15201TIP3    H267019   1.338   3.944   0.631  0.6758  0.4154 -0.8877
15202TIP3   OH267020   3.155   3.747   2.604  0.1722 -0.3409  0.6210
15202TIP3    H167021   3.123   3.818   2.660  3.0993 -0.0861  2.1855
15202TIP3    H267022   3.083   3.729   2.544 -1.7108  2.0240  1.9973
15203TIP3   OH267023   6.475   5.830   0.527  0.5629  0.2238  0.0947
15203TIP3    H167024   6.457   5.763   0.461  0.7128  0.4179 -0.1453
15203TIP3    H267025   6.570   5.835   0.531  0.5996 -1.0865  1.6529
15204TIP3   OH267026   2.022   0.692   0.949  0.3018 -0.1499 -0.8741
15204TIP3    H167027   2.004   0.786   0.958  1.5910 -0.1046  3.1988
15204TIP3    H267028   1.935   0.651   0.952 -0.2925  0.8223 -2.9150
15205TIP3   OH267029   2.264   3.757   0.233 -0.0552 -0.1443  0.0352
15205TIP3    H167030   2.182   3.707   0.231  0.0686 -0.3277 -2.0921
15205TIP3    H267031   2.256   3.813   0.311 -1.0263 -2.0541  1.4040
15206TIP3   OH267032   3.681   0.878  15.031  0.1901 -0.5771  0.1948
15206TIP3    H167033   3.709   0.841  14.947 -1.9548 -0.6819 -0.5327
15206TIP3    H267034   3.761   0.915  15.069  1.2612 -0.7241 -1.7852
15207TIP3   OH267035   2.921   5.341   6.281  0.3752 -0.3886  0.0583
15207TIP3    H167036   3.007   5.383   6.280  0.6843 -1.0212 -0.9528
15207TIP3    H267037   2.936   5.259   6.329  0.0684  0.0121  0.8664
15208TIP3   OH267038   1.024   1.951  12.767 -0.5095  0.0284 -0.2077
15208TIP3    H167039   1.020   1.858  12.787  3.2002 -0.5220 -1.3323
15208TIP3    H267040   1.037   1.955  12.672  0.4929  1.6312 -0.0459
15209TIP3   OH267041   0.162   0.857   4.314  0.0195  0.2883 -0.0831
15209TIP3    H167042   0.145   0.802   4.390  2.3030  1.5004  1.4106
15209TIP3    H267043   0.250   0.892   4.329 -0.2221  2.0798 -2.3618
15210TIP3   OH267044   0.958   5.668   2.898 -0.3073  0.1832 -0.5195
15210TIP3    H167045   1.006   5.739   2.941 -1.5381  0.2002  0.9049
15210TIP3    H267046   0.877   5.659   2.949  0.5476 -3.4390  0.5385
15211TIP3   OH267047   0.587   3.669  15.906 -0.7611 -0.1107 -0.2831
15211TIP3    H167048   0.566   3.576  15.898 -0.4102 -0.1941 -0.2741
15211TIP3    H267049   0.506   3.714  15.884 -0.1332 -0.3477 -3.6011
15212TIP3   OH267050   5.079   4.602  16.165 -0.5457  0.2528  0.1619
15212TIP3    H167051   5.088   4.677  16.224  3.8386 -0.1073  0.2401
15212TIP3    H267052   4.997   4.618  16.119 -0.4580  4.4414  1.0645
15213TIP3   OH267053   4.125   6.061   0.449 -0.2283  0.1273 -0.4425
15213TIP3    H167054   4.054   6.015   0.402  0.5436 -0.4920 -1.0398
15213TIP3    H267055   4.109   6.040   0.541  0.3065 -1.7133 -0.7145
15214TIP3   OH267056   1.120   2.847   5.243  0.6235  0.9102 -0.1335
15214TIP3    H167057   1.192   2.852   5.180  1.1063  0.1250  0.3409
15214TIP3    H267058   1.145   2.907   5.312  0.6190  0.9527 -0.1687
15215TIP3   OH267059   6.381   1.378  16.636  0.6407  0.0230 -0.1928
15215TIP3    H167060   6.438   1.386  16.559  0.5858 -0.1727 -0.2549
15215TIP3    H267061   6.396   1.289  16.667  1.0904  0.2915  0.3653
15216TIP3   OH267062   0.882   0.105  16.263  0.4386 -0.6901 -0.2158
15216TIP3    H167063   0.963   0.078  16.220  0.2364 -1.6743  0.0080
15216TIP3    H267064   0.826   0.138  16.192  0.1902 -2.0921 -0.6956
15217TIP3   OH267065   3.546   5.877   0.357 -0.5326 -0.2984  0.4892
15217TIP3    H167066   3.452   5.887   0.340 -0.2321 -0.5908 -1.6062
15217TIP3    H267067   3.582   5.965   0.347 -0.3704 -0.4504 -0.3132
15218TIP3   OH267068   6.298   0.859  14.763  0.1079  0.0108  0.3221
15218TIP3    H167069   6.210   0.895  14.764 -0.4033 -1.1052 -1.0307
15218TIP3    H267070   6.304   0.807  14.843 -0.6752 -0.3846  0.1299
15219TIP3   OH267071   4.185   1.254   0.978  0.2770  0.2286 -0.4522
15219TIP3    H167072   4.281   1.248   0.978  0.3349  0.9033  0.8643
15219TIP3    H267073   4.161   1.253   1.070 -0.8385  2.2993 -0.6708
15220TIP3   OH267074   1.799   1.242  16.123  0.1383 -0.1128  0.1611
15220TIP3    H167075   1.817   1.200  16.207  2.5417  0.9297  0.2377
15220TIP3    H267076   1.855   1.196  16.060  1.7331  1.9323 -0.0081
15221TIP3   OH267077   0.937   0.882  15.152  0.0772 -0.1939  0.8257
15221TIP3    H167078   1.014   0.938  15.150  0.7282 -1.0974  0.1656
15221TIP3    H267079   0.945   0.825  15.076 -3.0922  2.0835 -1.4682
15222TIP3   OH267080   4.065   3.958  11.496  0.2359  0.6470  0.0754
15222TIP3    H167081   3.995   3.945  11.560  0.0657  0.0324 -0.2356
15222TIP3    H267082   4.024   3.939  11.411  1.4462 -2.5473  0.0747
15223TIP3   OH267083   0.910   5.242   2.247 -0.1725 -0.1534 -0.5706
15223TIP3    H167084   0.974   5.186   2.290 -3.1224 -3.2484  0.1700
15223TIP3    H267085   0.961   5.287   2.179  2.5446 -3.6733 -1.2070
15224TIP3   OH267086   4.728   1.798  15.544 -0.3086  0.0645 -0.0572
15224TIP3    H167087   4.796   1.824  15.607  0.7414 -0.5723 -0.8981
15224TIP3    H267088   4.736   1.703  15.537  0.0728  0.1911 -1.6681
15225TIP3   OH267089   0.798   2.493  14.824 -0.3655 -0.0667  0.1292
15225TIP3    H167090   0.823   2.457  14.739 -1.0286 -2.4770  0.8550
15225TIP3    H267091   0.739   2.566  14.803  0.6883  0.3767 -1.4576
15226TIP3   OH267092   1.224   1.212  10.256  0.6555  0.1408  0.5851
15226TIP3    H167093   1.223   1.183  10.165 -0.0689 -1.2928  1.0106
15226TIP3    H267094   1.317   1.218  10.277  0.8669  2.0296 -0.6674
15227TIP3   OH267095   0.628   4.792  15.833 -0.1563  0.0619 -0.4931
15227TIP3    H167096   0.647   4.760  15.745  1.2826  0.0755 -0.2008
15227TIP3    H267097   0.589   4.878  15.820 -0.1597 -0.0313 -1.1176
15228TIP3   OH267098   4.239   3.149   2.075  0.2510 -0.3606  0.2340
15228TIP3    H167099   4.155   3.146   2.121 -0.5155 -1.1294 -1.1748
15228TIP3    H267100   4.271   3.238   2.090 -0.7537 -0.0912  0.8669
15229TIP3   OH267101   5.524   4.806  10.721 -0.2977 -0.6458  0.4201
15229TIP3    H167102   5.568   4.784  10.639 -1.6860  1.6875 -1.0611
15229TIP3    H267103   5.432   4.784  10.705 -0.7666  0.8545  0.9135
15230TIP3   OH267104   6.484   1.159  12.635 -0.1299 -0.4019 -0.1725
15230TIP3    H167105   6.443   1.124  12.713  0.8197  0.9072  0.9648
15230TIP3    H267106   6.521   1.243  12.663  1.3149 -0.4789 -1.7034
15231TIP3   OH267107   4.831   0.704  16.697  0.4187  0.0811 -0.6465
15231TIP3    H167108   4.859   0.636  16.760  1.2755  1.5485  0.6377
15231TIP3    H267109   4.741   0.724  16.722 -0.1459 -1.1529 -1.5893
15232TIP3   OH267110   2.169   4.536  12.455 -0.4089  0.2360 -0.9415
15232TIP3    H167111   2.165   4.581  12.371 -0.2529 -1.7348 -2.0703
15232TIP3    H267112   2.092   4.567  12.503  0.5587  2.9009 -0.9274
15233TIP3   OH267113   6.054   2.366  10.985 -0.0861 -0.2418  0.1342
15233TIP3    H167114   6.130   2.375  10.928  0.7294  0.0225  1.2216
15233TIP3    H267115   6.040   2.272  10.991 -0.7366 -0.2383 -1.2005
15234TIP3   OH267116   3.481   1.303  10.997  0.1893  0.3918  0.3639
15234TIP3    H167117   3.464   1.393  10.970  1.1215  0.2151 -0.9091
15234TIP3    H267118   3.545   1.270  10.933 -1.6406 -1.8405 -0.4609
15235TIP3   OH267119   3.263   3.906  15.367 -0.3885 -0.1697 -0.1056
15235TIP3    H167120   3.180   3.921  15.413  0.2839 -1.9664  1.9245
15235TIP3    H267121   3.328   3.904  15.437  0.5411 -4.3918 -0.7904
15236TIP3   OH267122   2.894   3.681   2.782 -0.1095  0.0537 -0.1503
15236TIP3    H167123   2.960   3.680   2.851  0.3475 -0.4222 -0.5905
15236TIP3    H267124   2.811   3.678   2.829  0.1983 -0.3472  0.3815
15237TIP3   OH267125   1.238   1.936  11.056 -0.0984  0.3670 -0.5579
15237TIP3    H167126   1.234   1.869  10.987 -0.5200  0.3495 -0.5167
15237TIP3    H267127   1.198   2.014  11.017  0.8862  0.7651 -0.7931
15238TIP3   OH267128   6.323   3.773  13.267  0.4355 -0.2841 -0.5483
15238TIP3    H167129   6.392   3.838  13.280 -0.0694  0.2455 -0.4541
15238TIP3    H267130   6.344   3.732  13.184 -0.3511  1.4435 -1.6611
15239TIP3   OH267131   2.458   6.759  11.989 -0.6130  0.3137 -0.2173
15239TIP3    H167132   2.431   6.849  11.974  1.7877  1.0766 -0.4081
15239TIP3    H267133   2.424   6.710  11.915 -0.7162  1.3508 -0.8689
15240TIP3   OH267134   6.576   1.812  13.851  0.4610 -0.7452  0.8080
15240TIP3    H167135   6.521   1.888  13.868  0.7901 -0.0337 -1.1214
15240TIP3    H267136   6.514   1.741  13.834  0.1198 -0.2543 -0.0578
15241TIP3   OH267137   6.158   1.248  15.568  0.2865 -0.4773  0.0861
15241TIP3    H167138   6.150   1.153  15.568 -1.4896 -0.3630  0.1613
15241TIP3    H267139   6.124   1.276  15.483  3.0224  0.0056 -0.9549
15242TIP3   OH267140   3.184   5.011  13.844  0.0758 -0.0862  0.0849
15242TIP3    H167141   3.176   4.917  13.827  0.2580 -0.0540 -0.1855
15242TIP3    H267142   3.147   5.053  13.767  1.1515  0.0574 -0.3733
15243TIP3   OH267143   1.671   1.920   1.378  0.2963 -0.3867 -0.5625
15243TIP3    H167144   1.596   1.956   1.425  0.4804  0.1950 -0.6999
15243TIP3    H267145   1.737   1.907   1.446  1.4080  2.6758 -0.9167
15244TIP3   OH267146   5.873   3.001  16.461 -0.8081  0.0324 -0.7611
15244TIP3    H167147   5.822   2.936  16.509  0.5087  0.0303  0.7344
15244TIP3    H267148   5.815   3.077  16.455 -1.9562 -0.8791 -1.5505
15245TIP3   OH267149   5.950   3.185   2.032  0.7905  0.2846  0.5629
15245TIP3    H167150   5.981   3.176   1.942  0.2678 -1.2625  0.5023
15245TIP3    H267151   5.909   3.271   2.034 -1.2275 -0.5250 -1.3564
15246TIP3   OH267152   0.887   4.110   3.780  0.4362  0.1135  0.2340
15246TIP3    H167153   0.864   4.159   3.701  1.0027  0.5697  0.3402
15246TIP3    H267154   0.815   4.048   3.792  0.2145  0.2174 -0.4892
15247TIP3   OH267155   1.452   6.706  11.702 -0.1493  0.8683  0.1981
15247TIP3    H167156   1.545   6.689  11.688 -0.1976  0.3910  0.4442
15247TIP3    H267157   1.420   6.734  11.617  0.1114  0.5388 -0.0114
15248TIP3   OH267158   5.074   2.792   2.765 -0.7202  0.4953  0.0170
15248TIP3    H167159   5.083   2.856   2.695  0.1444  1.2384  0.7876
15248TIP3    H267160   5.013   2.832   2.827  0.4465  0.9709  0.9014
15249TIP3   OH267161   6.760   2.597   0.660 -0.4326  0.0419  0.5620
15249TIP3    H167162   6.749   2.675   0.714  1.4313  0.0417  1.0123
15249TIP3    H267163   6.814   2.538   0.713 -0.2580 -0.7913 -0.4998
15250TIP3   OH267164   2.603   0.205  12.183  0.5711 -0.4429  0.2004
15250TIP3    H167165   2.508   0.209  12.194  0.6422  2.5726  0.7243
15250TIP3    H267166   2.630   0.124  12.225 -1.8765 -2.0705 -1.1897
15251TIP3   OH267167   0.025   4.370  14.211 -0.6225  0.2777  0.1706
15251TIP3    H167168   0.072   4.303  14.163  0.1408  1.0628 -0.2090
15251TIP3    H267169  -0.019   4.422  14.143  0.2886  1.2619  0.2938
15252TIP3   OH267170   0.494   6.595  15.662 -0.4380  0.0206  0.0892
15252TIP3    H167171   0.503   6.514  15.710 -2.2641 -0.7444 -0.7672
15252TIP3    H267172   0.510   6.571  15.571 -2.0441  0.3625 -0.3110
15253TIP3   OH267173   6.017   1.330   3.718  0.2997 -0.1449  0.1546
15253TIP3    H167174   5.925   1.328   3.694  0.4062  0.8040 -0.4057
15253TIP3    H267175   6.024   1.273   3.794 -0.0580 -3.2537 -1.9768
15254TIP3   OH267176   0.972   0.058  14.283 -0.3576  0.1401  0.6374
15254TIP3    H167177   0.964  -0.032  14.252 -3.0201  0.2675  0.7293
15254TIP3    H267178   0.911   0.108  14.228  0.7582  1.8496  0.8503
15255TIP3   OH267179   5.972   5.242  12.122 -0.4038  0.2512  0.6993
15255TIP3    H167180   6.061   5.228  12.155  0.2424 -0.9901 -1.4028
15255TIP3    H267181   5.967   5.337  12.108  1.1471  0.1914 -0.5607
15256TIP3   OH267182   2.600   0.699   0.605  0.0930  0.3307  0.1631
15256TIP3    H167183   2.543   0.629   0.574 -1.7028  1.3252  1.0226
15256TIP3    H267184   2.653   0.723   0.528 -1.4884  0.1441 -1.0371
15257TIP3   OH267185   6.256   2.093  14.448 -0.1715 -0.5902  0.2737
15257TIP3    H167186   6.313   2.018  14.429  1.2119  0.6379 -0.6443
15257TIP3    H267187   6.172   2.053  14.474  0.7466 -2.4424  0.5859
15258TIP3   OH267188   3.909   4.718  13.523  0.6665 -0.0260 -0.5693
15258TIP3    H167189   3.962   4.795  13.503  1.1363 -0.5229 -1.2302
15258TIP3    H267190   3.962   4.643  13.495 -0.3357 -0.5321 -1.1747
15259TIP3   OH267191   2.622   6.381  14.610  0.8856  0.2270  0.0493
15259TIP3    H167192   2.604   6.470  14.579  1.5201  0.3527  0.0304
15259TIP3    H267193   2.709   6.386  14.648  1.1026 -0.4900 -0.3425
15260TIP3   OH267194   4.999   5.169   4.779 -1.0330  0.2200 -0.4896
15260TIP3    H167195   5.060   5.210   4.841 -1.8952  0.0796  0.4739
15260TIP3    H267196   4.966   5.242   4.727  0.5930  0.2035 -1.6464
15261TIP3   OH267197   2.524   2.793  14.130  0.0687 -0.2755 -0.0271
15261TIP3    H167198   2.604   2.778  14.181  1.0514  1.2815 -1.0379
15261TIP3    H267199   2.468   2.845  14.188  0.5185  0.1180  0.0575
15262TIP3   OH267200   1.299   6.812  15.761 -0.1989  0.1180 -0.4258
15262TIP3    H167201   1.370   6.781  15.817 -0.8699  1.0426  1.0028
15262TIP3    H267202   1.340   6.825  15.676  1.3124  0.4588  0.3107
15263TIP3   OH267203   6.537   5.218  16.450  0.2190 -0.0756  0.1894
15263TIP3    H167204   6.496   5.185  16.370  1.4121  2.4256 -1.5801
15263TIP3    H267205   6.626   5.183  16.448  1.0239  1.8637 -0.9410
15264TIP3   OH267206   2.310   3.778   3.455  0.3934  0.6477  0.5297
15264TIP3    H167207   2.321   3.726   3.534  0.0468  0.0600  0.1938
15264TIP3    H267208   2.326   3.868   3.484  0.3131  0.4361  1.2561
15265TIP3   OH267209   6.183   3.780   3.669  0.2050  0.2043  0.3778
15265TIP3    H167210   6.223   3.715   3.727  0.1963 -0.2317 -0.1097
15265TIP3    H267211   6.092   3.784   3.697  0.0192 -0.5604 -0.1034
15266TIP3   OH267212   0.458   0.094  16.193 -0.4025  0.4746  0.5101
15266TIP3    H167213   0.546   0.077  16.159 -0.8691  0.7151 -0.8658
15266TIP3    H267214   0.400   0.068  16.122 -1.4021  1.4321  0.9598
15267TIP3   OH267215   3.820   1.226   0.231 -0.4348  0.3682 -0.3223
15267TIP3    H167216   3.820   1.316   0.200  1.3769 -0.1845 -2.2254
15267TIP3    H267217   3.763   1.179   0.169 -1.3528  0.1774  0.6408
15268TIP3   OH267218   4.102   1.365  11.510 -0.2698  0.2069 -0.1147
15268TIP3    H167219   4.162   1.363  11.585  2.2991  0.4088 -2.0329
15268TIP3    H267220   4.081   1.273  11.495  0.4032  0.0336 -0.0433
15269TIP3   OH267221   1.666   3.728   2.398  0.2836  0.3790  0.1170
15269TIP3    H167222   1.744   3.704   2.447  0.2128  0.6591  0.3693
15269TIP3    H267223   1.695   3.799   2.340  0.1148  0.7806  0.5224
15270TIP3   OH267224   6.603   0.038   4.866  0.7640 -0.1474  0.2255
15270TIP3    H167225   6.524   0.091   4.873 -0.1843 -1.1483 -2.0060
15270TIP3    H267226   6.603  -0.015   4.945 -0.1406  0.6940  0.8214
15271TIP3   OH267227   4.063   6.489   5.459 -0.1267 -0.1031  0.8433
15271TIP3    H167228   4.025   6.480   5.372 -1.5791  2.4656  1.1065
15271TIP3    H267229   4.075   6.399   5.490 -1.1352 -1.0526 -1.3309
15272TIP3   OH267230   2.554   3.731   3.772  0.0935  0.2506  0.1205
15272TIP3    H167231   2.490   3.731   3.843 -0.5547 -1.7707 -0.3915
15272TIP3    H267232   2.623   3.790   3.802 -0.2679 -0.3326  2.3368
15273TIP3   OH267233   1.654   6.098   6.271 -0.0395 -0.0780 -0.4081
15273TIP3    H167234   1.706   6.088   6.192  2.5161  2.2199  0.7943
15273TIP3    H267235   1.669   6.018   6.320  2.4765  0.4711 -0.1393
15274TIP3   OH267236   3.144   6.687   0.131  0.6403 -0.1986 -0.5931
15274TIP3    H167237   3.064   6.730   0.103 -0.8378 -2.9329 -0.9898
15274TIP3    H267238   3.184   6.655   0.049  2.1171  1.0334 -0.3902
15275TIP3   OH267239   2.450   6.401   2.531 -0.5932 -0.1353  0.1788
15275TIP3    H167240   2.366   6.418   2.489 -1.5910 -0.1181  2.0687
15275TIP3    H267241   2.515   6.421   2.464 -2.0569  0.9584 -0.9760
15276TIP3   OH267242   2.843   2.335  13.280 -0.1327  0.1782  0.2439
15276TIP3    H167243   2.852   2.367  13.370 -0.3562  1.8344 -0.2909
15276TIP3    H267244   2.879   2.246  13.283  0.3326  0.3794  1.8576
15277TIP3   OH267245   5.604   4.131   1.986  0.2377 -0.1906  0.2891
15277TIP3    H167246   5.629   4.136   2.078  0.0817 -0.0342  0.3235
15277TIP3    H267247   5.650   4.203   1.944 -0.1717  0.1137  0.3578
15278TIP3   OH267248   1.387   5.601   3.010  0.3686 -0.3543  0.0867
15278TIP3    H167249   1.463   5.543   3.000  1.1625  0.7168 -0.4258
15278TIP3    H267250   1.358   5.588   3.100  0.1381 -1.9742 -0.1986
15279TIP3   OH267251   3.380   6.798   3.395  0.4209 -0.2690  0.2516
15279TIP3    H167252   3.391   6.820   3.488  1.7957 -0.6271  0.1910
15279TIP3    H267253   3.310   6.857   3.365  1.3845  1.3471  1.0060
15280TIP3   OH267254   3.874   3.003   3.730  1.2254  0.1404 -0.0880
15280TIP3    H167255   3.942   2.940   3.751  1.3965 -0.3390 -1.9489
15280TIP3    H267256   3.794   2.965   3.768  1.6213 -0.3227  0.2969
15281TIP3   OH267257   6.303   6.580   6.216  0.3165 -0.7834 -0.0531
15281TIP3    H167258   6.325   6.533   6.297  0.5202  1.8681  1.5434
15281TIP3    H267259   6.366   6.652   6.212 -0.2694 -0.3265 -2.1134
15282TIP3   OH267260   5.789   6.015  16.034 -0.4378  0.2243 -0.1521
15282TIP3    H167261   5.814   6.039  16.123 -0.0761  0.9342 -0.4383
15282TIP3    H267262   5.862   6.045  15.979  0.1639 -1.7678 -0.5187
15283TIP3   OH267263   3.607   1.419  14.925 -0.0800  0.6340  0.0448
15283TIP3    H167264   3.701   1.439  14.928 -0.0158  0.9645 -2.3348
15283TIP3    H267265   3.603   1.324  14.940  0.8490  0.2886 -1.5866
15284TIP3   OH267266   3.708   1.156  11.897 -0.4526  0.0867  0.1695
15284TIP3    H167267   3.647   1.171  11.825  0.1036  0.8811 -0.1591
15284TIP3    H267268   3.792   1.190  11.864  0.0828 -0.6296  0.7481
15285TIP3   OH267269   1.358   6.546  12.703  0.1854 -0.2284 -0.4085
15285TIP3    H167270   1.305   6.474  12.669 -0.3592  0.1586 -0.4057
15285TIP3    H267271   1.438   6.505  12.735  0.5591 -0.6446 -1.8187
15286TIP3   OH267272   3.552   3.081  11.789  0.4950 -0.0776  0.2366
15286TIP3    H167273   3.522   3.082  11.880 -1.8634  0.6809 -0.4725
15286TIP3    H267274   3.599   3.163  11.778  2.4810 -1.0122  1.2155
15287TIP3   OH267275   4.077   2.073  14.707 -0.8678 -0.2010 -0.5890
15287TIP3    H167276   4.152   2.078  14.766  0.6844 -0.2667 -2.4380
15287TIP3    H267277   4.019   2.008  14.747 -0.6183  0.8241  1.5783
15288TIP3   OH267278   2.859   5.774   5.524 -0.2172  0.0578  0.4817
15288TIP3    H167279   2.789   5.834   5.498 -2.5608 -0.8329  3.9222
15288TIP3    H267280   2.853   5.701   5.462 -0.8641  0.9863 -0.5792
15289TIP3   OH267281   1.373   4.877   5.345 -0.5292  0.3244  0.1370
15289TIP3    H167282   1.306   4.909   5.405 -1.6742  2.1929 -1.9502
15289TIP3    H267283   1.352   4.784   5.333 -1.9094  0.5456  0.6288
15290TIP3   OH267284   2.921   1.330   2.096  0.5683 -0.1177 -0.0247
15290TIP3    H167285   2.916   1.305   2.004 -0.2944 -1.6945  0.4138
15290TIP3    H267286   3.012   1.357   2.109  0.3086  1.8106 -1.7121
15291TIP3   OH267287   1.032   5.306   0.152  0.2672 -0.3537  0.4433
15291TIP3    H167288   1.032   5.253   0.072  1.2444 -1.4200  1.1128
15291TIP3    H267289   1.040   5.241   0.223  1.9247  0.6888  1.2771
15292TIP3   OH267290   4.611   6.747   1.692  0.0619  0.5539  0.1106
15292TIP3    H167291   4.623   6.674   1.752  1.2312 -2.0684 -2.9828
15292TIP3    H267292   4.520   6.775   1.705 -0.4291 -1.4788  1.4006
15293TIP3   OH267293   0.774   4.285   4.405 -0.5080  0.0789 -0.3856
15293TIP3    H167294   0.722   4.212   4.437 -0.4559  0.5822  0.9031
15293TIP3    H267295   0.806   4.256   4.319 -2.3582 -0.4931 -0.9244
15294TIP3   OH267296   6.771   5.291  15.057 -0.3494 -0.4457  0.1740
15294TIP3    H167297   6.795   5.375  15.094 -1.8535  0.7242 -1.3150
15294TIP3    H267298   6.796   5.297  14.965 -2.5706 -0.6539 -0.5120
15295TIP3   OH267299   3.939   3.319  11.732  0.2764 -0.2772 -0.2516
15295TIP3    H167300   3.950   3.238  11.683 -1.0373 -0.7485  0.1886
15295TIP3    H267301   3.932   3.387  11.666  0.1595 -0.6925 -0.6722
15296TIP3   OH267302   6.479   2.698  13.169  0.1086  1.0229  0.0524
15296TIP3    H167303   6.455   2.750  13.246  0.8979  2.3498 -0.5709
15296TIP3    H267304   6.400   2.693  13.117 -0.3890  0.2605  0.8426
15297TIP3   OH267305   0.638   3.250   0.680  0.3116 -0.3989 -0.1262
15297TIP3    H167306   0.662   3.311   0.750  0.8206 -1.1135  0.3442
15297TIP3    H267307   0.633   3.165   0.723  1.8711 -1.0643 -1.1672
15298TIP3   OH267308   0.540   5.446   5.343 -0.2680  0.1310  1.1482
15298TIP3    H167309   0.459   5.478   5.303  0.6948 -0.2860 -1.3258
15298TIP3    H267310   0.517   5.361   5.380 -1.1930  0.5235  1.5071
15299TIP3   OH267311   4.518   2.230   6.437 -0.1386 -0.3584  0.7274
15299TIP3    H167312   4.568   2.178   6.375 -0.9221 -1.1409  0.7408
15299TIP3    H267313   4.501   2.170   6.510 -0.1687  0.2286  1.2115
15300TIP3   OH267314   4.867   2.186  11.839 -0.0226  0.4445 -0.0720
15300TIP3    H167315   4.809   2.153  11.770 -1.2974 -0.7858  1.5107
15300TIP3    H267316   4.814   2.249  11.887 -1.4973 -3.1167  3.4945
15301TIP3   OH267317   5.343   1.223   1.149  0.2825 -0.0424 -0.8183
15301TIP3    H167318   5.378   1.299   1.102  1.6738 -0.5100 -0.5729
15301TIP3    H267319   5.283   1.182   1.086 -1.1950  1.7121 -0.6546
15302TIP3   OH267320   3.020   6.290   0.433  0.6602 -0.4080 -0.4953
15302TIP3    H167321   2.934   6.259   0.406 -0.4130  1.3417  0.7641
15302TIP3    H267322   3.033   6.371   0.384  2.2702 -1.3654 -1.7626
15303TIP3   OH267323   4.344   3.675   0.961 -0.3591  0.4064  0.1993
15303TIP3    H167324   4.261   3.660   1.006  0.7009 -0.1423  2.0869
15303TIP3    H267325   4.401   3.604   0.993  1.1956  1.5019 -0.0559
15304TIP3   OH267326   2.034   0.781  15.276 -0.2122 -0.1951  0.9793
15304TIP3    H167327   2.058   0.798  15.185 -0.1454 -1.4277  0.7576
15304TIP3    H267328   2.085   0.704  15.301  0.4865  0.6776  2.3707
15305TIP3   OH267329   5.725   0.287   6.050  0.0850 -0.2462 -0.2079
15305TIP3    H167330   5.725   0.304   6.144 -1.0680 -1.6143  0.0759
15305TIP3    H267331   5.636   0.258   6.031  0.3613 -0.2110 -1.6914
15306TIP3   OH267332   0.836   5.260  15.124 -0.3997  0.2461 -0.0090
15306TIP3    H167333   0.858   5.196  15.192 -4.7319 -0.4045  1.0446
15306TIP3    H267334   0.831   5.343  15.170 -1.8389  0.0584  0.2114
15307TIP3   OH267335   2.997   6.055  14.537 -0.3917  0.4624 -0.2579
15307TIP3    H167336   2.923   6.070  14.596 -0.0631 -0.3387  0.3833
15307TIP3    H267337   2.959   6.056  14.449 -1.3210 -0.7862  0.1061
15308TIP3   OH267338   1.109   3.648   5.409  0.2817 -0.1873 -0.0367
15308TIP3    H167339   1.072   3.580   5.352  1.7162  0.4245 -1.8070
15308TIP3    H267340   1.201   3.655   5.382  0.3804  1.9008  0.6193
15309TIP3   OH267341   0.504   0.369  16.892 -0.7223 -0.1780 -0.4973
15309TIP3    H167342   0.470   0.342  16.807 -0.1946 -3.4428  0.2049
15309TIP3    H267343   0.584   0.417  16.872 -0.2139 -1.5189 -1.8565
15310TIP3   OH267344   5.863   6.152  15.079  0.3622 -0.1813  0.6751
15310TIP3    H167345   5.900   6.177  15.163 -1.4250  0.1247  1.4126
15310TIP3    H267346   5.770   6.136  15.097 -0.1044  0.0647 -1.2608
15311TIP3   OH267347   3.840   2.083   4.179  0.0023  0.1189 -1.1083
15311TIP3    H167348   3.847   2.136   4.258 -0.6635 -1.0274 -0.2667
15311TIP3    H267349   3.884   2.136   4.112 -0.0684  1.4391 -0.1604
15312TIP3   OH267350   0.399   0.780  14.786  0.1513 -0.0603  0.4212
15312TIP3    H167351   0.460   0.712  14.817 -0.5535  0.1147  2.2726
15312TIP3    H267352   0.364   0.819  14.866 -2.2440  0.0002 -0.5849
15313TIP3   OH267353   3.642   2.380  12.557 -0.0290 -0.1481  0.0430
15313TIP3    H167354   3.706   2.309  12.562  0.8596  0.6923  3.3241
15313TIP3    H267355   3.592   2.373  12.638 -1.5474  1.5144 -0.6911
15314TIP3   OH267356   5.898   6.454   5.846  0.2154 -0.4643  0.1940
15314TIP3    H167357   5.847   6.380   5.879  1.0104 -0.7735  0.7548
15314TIP3    H267358   5.931   6.498   5.924 -1.8171  1.6638 -0.0304
15315TIP3   OH267359   1.591   1.833   4.705  0.5474  0.2629  0.4634
15315TIP3    H167360   1.502   1.846   4.738  0.1465 -1.4546  0.1262
15315TIP3    H267361   1.583   1.848   4.611  0.8396  1.0800  0.5592
15316TIP3   OH267362   6.000   0.099   2.718  0.4385 -0.1723 -0.6619
15316TIP3    H167363   5.947   0.144   2.783 -1.1399 -0.9300 -1.3840
15316TIP3    H267364   6.075   0.158   2.703  0.6843  0.1442  1.5664
15317TIP3   OH267365   2.538   5.258  14.563 -0.2487 -0.3231 -0.3682
15317TIP3    H167366   2.495   5.247  14.648  1.6071 -0.0768  0.6790
15317TIP3    H267367   2.492   5.199  14.504 -2.0690  0.0562  0.6172
15318TIP3   OH267368   1.373   2.704  14.237 -0.2145 -0.7687 -0.1477
15318TIP3    H167369   1.322   2.625  14.255 -0.2297 -0.2780  2.2873
15318TIP3    H267370   1.320   2.776  14.271  1.6444 -0.1663  1.7334
15319TIP3   OH267371   6.050   6.722  13.271 -0.1824  0.2069  0.4209
15319TIP3    H167372   6.126   6.708  13.327 -0.7903 -0.0674  1.1907
15319TIP3    H267373   5.978   6.739  13.331 -0.5111  1.6342 -0.3295
15320TIP3   OH267374   2.128   2.518   3.753  0.1651  0.1641  0.2861
15320TIP3    H167375   2.210   2.473   3.734  0.0674  0.0553  0.1154
15320TIP3    H267376   2.147   2.611   3.743 -0.2852  0.0666 -1.9971
15321TIP3   OH267377   4.608   2.929  13.694  0.3368  0.1799  0.1108
15321TIP3    H167378   4.646   2.886  13.617 -0.0825  0.2101 -0.1216
15321TIP3    H267379   4.656   3.011  13.703 -0.1620  0.5743 -0.6346
15322TIP3   OH267380   5.183   4.512   4.013 -0.4157 -0.3834 -0.1882
15322TIP3    H167381   5.230   4.531   4.093 -1.4212 -2.0134  0.8632
15322TIP3    H267382   5.120   4.583   4.004  0.7395  0.6421 -0.4236
15323TIP3   OH267383   3.963   1.022  13.661  0.1488 -0.1841 -0.3333
15323TIP3    H167384   3.893   1.080  13.691 -1.1786 -1.8993  0.0680
15323TIP3    H267385   4.028   1.024  13.731  0.3516  1.1271 -0.5314
15324TIP3   OH267386   4.530   5.414   2.953 -0.2891  0.7106  0.0338
15324TIP3    H167387   4.537   5.344   2.888 -2.5909 -1.1871  1.6138
15324TIP3    H267388   4.620   5.444   2.967  0.7667 -1.7345 -0.9950
15325TIP3   OH267389   0.547   1.744  13.895  0.2543  0.3464  0.2852
15325TIP3    H167390   0.641   1.739  13.881  0.2064  0.8104 -0.2425
15325TIP3    H267391   0.529   1.681  13.964  0.6177 -1.4647 -1.1998
15326TIP3   OH267392   2.748   4.438  16.457  0.2461 -0.2483 -0.0384
15326TIP3    H167393   2.818   4.483  16.503  0.4644  0.8639 -1.3906
15326TIP3    H267394   2.758   4.464  16.366 -2.1465  0.2716 -0.2362
15327TIP3   OH267395   3.170   4.678   3.387 -0.2934 -0.2300 -0.0842
15327TIP3    H167396   3.168   4.760   3.437 -1.6322 -0.2946  0.0039
15327TIP3    H267397   3.221   4.618   3.441 -1.2570 -0.1365  0.9549
15328TIP3   OH267398   3.808   2.367  13.494  0.1993  0.3147  0.3612
15328TIP3    H167399   3.714   2.378  13.480  0.0886  0.4312  1.1272
15328TIP3    H267400   3.844   2.455  13.485 -0.0665  0.6399  2.0897
15329TIP3   OH267401   5.742   0.300  14.508 -0.5305 -0.1420 -0.1430
15329TIP3    H167402   5.719   0.241  14.435  0.6905  1.0084 -1.5097
15329TIP3    H267403   5.837   0.305  14.505 -0.5794  1.3506  0.3865
15330TIP3   OH267404   1.261   6.612   4.649 -0.0295 -0.6902  0.5520
15330TIP3    H167405   1.238   6.692   4.696 -0.6461  0.2730 -1.2949
15330TIP3    H267406   1.187   6.554   4.664 -0.8247  0.0853 -0.2224
15331TIP3   OH267407   2.766   3.970  16.646 -0.2121  0.0472 -0.1844
15331TIP3    H167408   2.776   4.035  16.577 -2.3197 -0.4978 -1.0878
15331TIP3    H267409   2.739   3.890  16.601 -0.6178 -0.6167  1.1687
15332TIP3   OH267410   5.618   5.936  12.944 -0.1222 -0.2444 -0.1484
15332TIP3    H167411   5.684   5.987  12.896 -0.4385  0.1080 -0.2182
15332TIP3    H267412   5.662   5.855  12.967  1.2773  1.1255  2.3445
15333TIP3   OH267413   4.003   2.585   0.954 -0.1663 -0.4381  0.2421
15333TIP3    H167414   4.048   2.512   0.996  0.1802 -0.2298  0.2393
15333TIP3    H267415   3.916   2.585   0.992 -0.6348 -1.7002 -0.7543
15334TIP3   OH267416   5.920   2.725   2.864  0.1157 -0.4614  0.3790
15334TIP3    H167417   5.880   2.794   2.916  2.6852  1.6220 -0.1736
15334TIP3    H267418   5.959   2.666   2.928  1.2118  0.7745  0.8877
15335TIP3   OH267419   2.979   0.151  14.512 -0.0611  0.6663  0.5011
15335TIP3    H167420   3.060   0.198  14.532  0.4373  0.0706 -0.0751
15335TIP3    H267421   2.940   0.134  14.598  0.1933  1.3522  0.7576
15336TIP3   OH267422   1.528   4.409   0.344  0.1534 -0.0218 -0.4831
15336TIP3    H167423   1.557   4.497   0.370 -0.7467 -0.1436  1.0721
15336TIP3    H267424   1.457   4.388   0.405  0.1343 -1.7178 -1.0294
15337TIP3   OH267425   5.400   3.639  13.663 -0.0672 -0.6115 -0.5813
15337TIP3    H167426   5.482   3.682  13.637 -1.0544 -0.0856 -3.0904
15337TIP3    H267427   5.399   3.646  13.759  2.1633  0.5513 -0.5714
15338TIP3   OH267428   1.882   5.850  12.076  0.3334  0.0534  0.5778
15338TIP3    H167429   1.917   5.939  12.086 -1.3100  0.7422  0.4792
15338TIP3    H267430   1.802   5.850  12.128  0.1606 -1.3043  0.3431
15339TIP3   OH267431   1.935   3.110   1.774 -0.1972 -0.0322 -0.1713
15339TIP3    H167432   2.002   3.142   1.713 -1.7578  1.2428 -1.3063
15339TIP3    H267433   1.980   3.105   1.858  1.4626  0.2729 -0.9924
15340TIP3   OH267434   2.275   1.104  11.722 -0.3671  0.2841 -0.1584
15340TIP3    H167435   2.223   1.090  11.643  1.5011 -1.2867 -1.1644
15340TIP3    H267436   2.225   1.060  11.791  0.0821 -2.1474 -1.3031
15341TIP3   OH267437   5.850   2.585  14.174 -0.1367 -0.3501  0.3314
15341TIP3    H167438   5.765   2.595  14.216 -0.2810 -0.2407  0.0126
15341TIP3    H267439   5.905   2.653  14.214  0.2145 -1.3357  1.5798
15342TIP3   OH267440   5.894   0.075   5.915  0.1240 -0.4502 -0.8737
15342TIP3    H167441   5.835   0.014   5.871 -1.9304 -0.3826  1.5798
15342TIP3    H267442   5.836   0.142   5.952  1.7220 -0.2320  1.4364
15343TIP3   OH267443   0.135   3.175  11.743 -0.1649  0.0013  0.4107
15343TIP3    H167444   0.086   3.126  11.808 -0.2959  1.8707  1.7865
15343TIP3    H267445   0.167   3.253  11.789  4.3018 -1.1060 -0.2974
15344TIP3   OH267446   0.327   2.141   1.209 -0.2973 -0.6530  0.3137
15344TIP3    H167447   0.310   2.230   1.239  0.2832 -0.6048  0.5090
15344TIP3    H267448   0.422   2.135   1.206 -0.3204 -1.5039  1.0134
15345TIP3   OH267449   3.390   5.623   3.323  0.2576  0.0681 -0.0644
15345TIP3    H167450   3.333   5.683   3.275 -0.3632  0.0388  0.6244
15345TIP3    H267451   3.412   5.555   3.259 -0.3775  0.1452 -0.3716
15346TIP3   OH267452   3.732   5.297   2.323 -0.3186  0.3936  0.5628
15346TIP3    H167453   3.755   5.248   2.244 -0.6140 -0.2731  0.8818
15346TIP3    H267454   3.795   5.269   2.389 -0.6818  0.2015  0.8365
15347TIP3   OH267455   3.040   3.287   0.137 -0.0282 -0.9100 -0.4770
15347TIP3    H167456   2.944   3.289   0.143  0.0513 -1.4406  1.4971
15347TIP3    H267457   3.062   3.366   0.087 -1.4116  0.2391  0.6382
15348TIP3   OH267458   4.281   6.249  13.876 -0.3129 -0.2605 -0.9061
15348TIP3    H167459   4.228   6.310  13.824 -0.7349  0.7954  0.6834
15348TIP3    H267460   4.372   6.268  13.850 -0.5350  0.0428 -1.4705
15349TIP3   OH267461   1.401   4.245  15.001  0.0280  0.4228 -0.0618
15349TIP3    H167462   1.450   4.285  14.930  0.1028  0.0854 -0.1993
15349TIP3    H267463   1.325   4.205  14.959 -1.0579  2.0223  0.2829
15350TIP3   OH267464   2.901   1.813   3.130  0.1352  0.5508 -0.2258
15350TIP3    H167465   2.892   1.738   3.071  0.5500  0.5044 -0.2380
15350TIP3    H267466   2.869   1.783   3.214  1.0652  0.0909 -0.0247
15351TIP3   OH267467   4.239   5.985  13.855 -0.6904  0.0779 -0.1967
15351TIP3    H167468   4.334   5.990  13.846 -0.7294 -0.2729 -0.8407
15351TIP3    H267469   4.213   6.074  13.878 -0.1342  0.0061  0.7589
15352TIP3   OH267470   0.169   4.978   4.172 -0.2191  0.1529 -0.2586
15352TIP3    H167471   0.208   5.059   4.205 -1.3364  0.2147  0.9683
15352TIP3    H267472   0.078   4.981   4.201 -0.6313 -0.9247 -1.3547
15353TIP3   OH267473   6.617   5.006  15.347  0.1219 -0.1023  0.8593
15353TIP3    H167474   6.707   4.992  15.379 -0.1325 -1.1669  1.1537
15353TIP3    H267475   6.620   5.092  15.305  0.7649  0.8102  2.6558
15354TIP3   OH267476   1.538   3.773  11.445 -0.0596  0.1505  0.1294
15354TIP3    H167477   1.513   3.843  11.385  0.5904  0.8924  0.6987
15354TIP3    H267478   1.495   3.695  11.410 -0.1278  0.6640 -0.9934
15355TIP3   OH267479   2.543   1.590  11.681 -0.7158  0.0188 -0.5994
15355TIP3    H167480   2.464   1.640  11.658 -0.7073 -0.2614 -1.2417
15355TIP3    H267481   2.546   1.594  11.777 -1.6429 -0.1654 -0.5512
15356TIP3   OH267482   4.397   5.723   3.039 -0.8472 -0.8649  0.8746
15356TIP3    H167483   4.433   5.635   3.052 -1.1663 -0.8069  2.3295
15356TIP3    H267484   4.435   5.775   3.110 -0.5420  0.2248 -0.0556
15357TIP3   OH267485   6.306   1.717   1.203 -0.0604 -0.0966 -0.3560
15357TIP3    H167486   6.238   1.677   1.149 -0.4630 -0.3859  0.3594
15357TIP3    H267487   6.301   1.810   1.181 -4.4633  0.9363  3.5307
15358TIP3   OH267488   2.384   3.488   0.723  0.1390 -0.6174 -0.2330
15358TIP3    H167489   2.367   3.564   0.780 -0.3407 -1.7754  1.2439
15358TIP3    H267490   2.467   3.507   0.682 -0.2419  0.9680 -0.3255
15359TIP3   OH267491   0.454   1.977  15.621  0.5251 -0.1038 -0.0901
15359TIP3    H167492   0.429   2.052  15.567  0.1921  1.0047  1.5250
15359TIP3    H267493   0.417   1.997  15.707  2.8259 -0.7695  1.1260
15360TIP3   OH267494   4.501   3.839   4.483 -0.2071  0.2471 -0.1819
15360TIP3    H167495   4.590   3.869   4.498 -0.0219 -0.8355  1.0676
15360TIP3    H267496   4.449   3.882   4.551 -0.7294  1.1643 -1.1309
15361TIP3   OH267497   4.174   1.049   1.745 -0.1056  0.6243  0.3601
15361TIP3    H167498   4.135   1.039   1.658 -0.6938  0.4108  0.6409
15361TIP3    H267499   4.245   0.985   1.747 -0.1991  0.5099  0.0987
15362TIP3   OH267500   2.917   1.703   1.606 -0.0526  0.6356  0.1653
15362TIP3    H167501   2.919   1.630   1.544  0.2804  0.2837  0.5808
15362TIP3    H267502   2.824   1.711   1.631 -0.3510  1.4160 -1.0971
15363TIP3   OH267503   5.681   2.082  12.877  0.1618 -0.3641 -0.2410
15363TIP3    H167504   5.720   2.087  12.965  0.2679 -1.3815 -0.2114
15363TIP3    H267505   5.587   2.081  12.893  0.1895 -1.2004 -0.0818
15364TIP3   OH267506   0.770   0.023   3.080 -0.0969 -0.6218 -0.3026
15364TIP3    H167507   0.716   0.022   3.159 -0.4628 -1.8456 -0.5504
15364TIP3    H267508   0.859   0.013   3.112 -0.2370 -1.0398 -0.0407
15365TIP3   OH267509   1.910   3.694  14.481  0.0849 -0.0041  0.6301
15365TIP3    H167510   1.837   3.671  14.538 -1.0378 -0.2588 -0.8512
15365TIP3    H267511   1.878   3.769  14.430  0.4288 -0.7904 -0.7964
15366TIP3   OH267512   1.583   4.306  15.743 -0.3242 -0.3843 -0.0564
15366TIP3    H167513   1.540   4.250  15.677 -0.6985  0.1183 -0.2467
15366TIP3    H267514   1.676   4.293  15.728 -0.3882  0.2923 -1.1983
15367TIP3   OH267515   3.327   5.717   1.665  0.4744  0.6872  0.2360
15367TIP3    H167516   3.308   5.645   1.605 -0.7760  1.7766 -0.7314
15367TIP3    H267517   3.401   5.686   1.717 -0.0833 -1.3132 -0.0908
15368TIP3   OH267518   4.629   6.501   1.348 -0.7828  0.5368  0.1985
15368TIP3    H167519   4.573   6.485   1.424 -0.5673 -0.6561  0.1179
15368TIP3    H267520   4.574   6.481   1.272  0.4600 -3.4085  0.1411
15369TIP3   OH267521   0.298   2.539  15.201 -0.0018 -0.0004 -0.1876
15369TIP3    H167522   0.391   2.519  15.216 -0.1547  0.1732  1.1126
15369TIP3    H267523   0.289   2.630  15.228 -0.5409  0.0135 -0.4126
15370TIP3   OH267524   5.221   5.465  12.702  0.6299  0.3177  0.6073
15370TIP3    H167525   5.127   5.447  12.706  1.0959 -2.4006  1.4554
15370TIP3    H267526   5.227   5.556  12.673 -2.2047 -0.5195 -3.4266
15371TIP3   OH267527   6.075   6.122   1.272  0.4073 -0.1947  0.8974
15371TIP3    H167528   6.121   6.068   1.336  1.4636  0.5484  0.8034
15371TIP3    H267529   5.999   6.155   1.318  0.3152 -0.9162  1.2781
15372TIP3   OH267530   5.081   3.616   3.335 -0.7886  0.4895 -0.7981
15372TIP3    H167531   5.168   3.602   3.370 -0.2265  2.7243 -1.1247
15372TIP3    H267532   5.041   3.681   3.393 -0.5645  2.7759 -3.0000
15373TIP3   OH267533   2.091   2.318  12.070  0.3107  0.4933 -0.7678
15373TIP3    H167534   2.109   2.400  12.115 -1.2947 -0.6445  2.2706
15373TIP3    H267535   2.007   2.333  12.026 -1.1849 -0.0400  1.6845
15374TIP3   OH267536   4.121   3.359   2.373 -0.0713 -0.0018  0.2908
15374TIP3    H167537   4.154   3.382   2.286 -0.6919 -0.9543 -0.2196
15374TIP3    H267538   4.037   3.316   2.356 -0.6785  0.6766  1.4324
15375TIP3   OH267539   3.789   0.556   5.683 -0.2108  0.1126 -0.0667
15375TIP3    H167540   3.797   0.633   5.626  0.4278  0.1135  0.0151
15375TIP3    H267541   3.847   0.491   5.643  0.0738  0.0391  0.4559
15376TIP3   OH267542   5.431   5.964  11.298 -0.4514 -0.3366 -0.1299
15376TIP3    H167543   5.337   5.945  11.290 -1.4846  3.3098  1.1690
15376TIP3    H267544   5.442   5.996  11.388  1.4010  1.8628 -1.0216
15377TIP3   OH267545   3.978   5.685   2.722 -0.0497  0.5251 -0.2822
15377TIP3    H167546   3.913   5.753   2.706 -1.7715 -1.3906 -1.9937
15377TIP3    H267547   4.054   5.712   2.670 -1.2633  0.4079 -2.1896
15378TIP3   OH267548   2.005   1.218   0.250 -0.3104 -0.2305  0.0812
15378TIP3    H167549   2.008   1.240   0.344  0.8088 -0.5348  0.1360
15378TIP3    H267550   1.973   1.298   0.208  1.5517  0.7986  0.4981
15379TIP3   OH267551   0.294   0.322  10.799 -0.1637  0.3043  0.4754
15379TIP3    H167552   0.322   0.406  10.762  0.2691  0.0785  0.2806
15379TIP3    H267553   0.341   0.257  10.747 -1.9053 -0.1416 -0.6054
15380TIP3   OH267554   5.359   5.100   0.808 -0.2272 -0.3589 -0.0654
15380TIP3    H167555   5.286   5.046   0.778  0.5720 -0.2003 -2.4420
15380TIP3    H267556   5.433   5.040   0.815  0.0025 -0.0801 -0.0542
15381TIP3   OH267557   4.156   6.083  12.666  0.1013 -0.5689 -0.2869
15381TIP3    H167558   4.227   6.069  12.603  0.2205 -1.1589 -0.0359
15381TIP3    H267559   4.159   6.177  12.685  0.3300 -0.4572 -0.8417
15382TIP3   OH267560   4.670   2.241   2.758 -0.7349 -0.4150  0.1869
15382TIP3    H167561   4.608   2.254   2.829 -1.9544 -0.0485 -0.8946
15382TIP3    H267562   4.729   2.173   2.790 -0.0317  1.0948  2.2835
15383TIP3   OH267563   6.578   5.864   1.475  0.0710  0.5143 -0.1446
15383TIP3    H167564   6.652   5.888   1.418  0.7423 -1.8260 -0.3619
15383TIP3    H267565   6.559   5.773   1.452 -0.4612 -0.1126  2.5072
15384TIP3   OH267566   5.160   6.327   1.699 -0.2449  0.3289 -0.1913
15384TIP3    H167567   5.072   6.290   1.698 -0.9493  1.8839  0.5055
15384TIP3    H267568   5.166   6.379   1.619  0.5607 -0.8492 -0.9247
15385TIP3   OH267569   0.391   2.210  15.331 -0.6401  0.7347 -0.4592
15385TIP3    H167570   0.334   2.136  15.351  1.3950 -0.6413  0.5289
15385TIP3    H267571   0.433   2.186  15.249  0.0810  0.7529 -0.0977
15386TIP3   OH267572   1.945   3.894  15.522  0.1972  0.3289 -0.0333
15386TIP3    H167573   2.015   3.878  15.459  1.5811  2.2693  0.9210
15386TIP3    H267574   1.942   3.815  15.576 -1.1886 -1.5022 -2.5372
15387TIP3   OH267575   2.732   0.018  12.347 -0.6480 -0.5548 -0.2336
15387TIP3    H167576   2.797  -0.036  12.393 -1.3256  0.0085  1.4415
15387TIP3    H267577   2.701  -0.038  12.276  0.4761 -1.4347 -0.0588
15388TIP3   OH267578   2.859   2.131   2.457  0.5020  0.0576  0.0944
15388TIP3    H167579   2.885   2.154   2.546 -0.1572 -1.3837  0.6906
15388TIP3    H267580   2.846   2.036   2.460 -0.0353  0.0619 -1.4144
15389TIP3   OH267581   0.736   1.836  11.226  0.6638  0.0521  0.0747
15389TIP3    H167582   0.701   1.807  11.311  0.6010 -0.7542 -0.2185
15389TIP3    H267583   0.822   1.793  11.220 -0.3062 -1.7805 -1.2828
15390TIP3   OH267584   4.374   0.716   1.540  0.8673  0.6300  0.1704
15390TIP3    H167585   4.298   0.666   1.512  1.1236 -1.2987  2.6021
15390TIP3    H267586   4.448   0.657   1.528  1.4950  1.2135  1.0385
15391TIP3   OH267587   4.556   1.270  10.822 -0.3449  0.2582  0.3543
15391TIP3    H167588   4.599   1.290  10.905  0.3578 -1.0477  0.3382
15391TIP3    H267589   4.610   1.201  10.783 -2.0979 -1.0012  0.0217
15392TIP3   OH267590   1.669   3.423  15.397 -0.1813  0.0224  0.0820
15392TIP3    H167591   1.657   3.511  15.431 -0.5388  0.1525 -0.3739
15392TIP3    H267592   1.707   3.374  15.470 -1.1591  0.2297  0.7418
15393TIP3   OH267593   6.564   5.797  12.675  0.0443 -0.1053 -0.6819
15393TIP3    H167594   6.561   5.784  12.581 -0.4517  0.2674 -0.7260
15393TIP3    H267595   6.634   5.861  12.688  0.2057 -0.2614 -0.7826
15394TIP3   OH267596   2.540   1.864   2.405  0.6248  0.3931 -0.0671
15394TIP3    H167597   2.609   1.916   2.444  0.9937  0.3297 -0.6216
15394TIP3    H267598   2.458   1.907   2.432  0.8582  0.1949  0.9757
15395TIP3   OH267599   5.966   0.556   1.717 -0.0122 -0.4697 -0.2634
15395TIP3    H167600   5.996   0.505   1.641  0.8231  0.1742 -0.3852
15395TIP3    H267601   5.967   0.493   1.789  1.0568 -0.6381 -0.4017
15396TIP3   OH267602   6.776   3.867  13.847 -0.3162 -0.1582 -0.2067
15396TIP3    H167603   6.745   3.777  13.836 -1.3336 -0.1141  1.9430
15396TIP3    H267604   6.865   3.857  13.879 -0.1336 -0.3678 -0.7587
15397TIP3   OH267605   2.829   5.233   4.374  0.5350  0.1828  0.1086
15397TIP3    H167606   2.744   5.276   4.390  0.6375  1.5310 -2.4384
15397TIP3    H267607   2.892   5.305   4.371  0.7255  0.1256 -4.2602
15398TIP3   OH267608   6.138   1.498  15.964 -0.0326 -0.1160 -0.0689
15398TIP3    H167609   6.155   1.540  15.879  0.5287 -0.6869 -0.2478
15398TIP3    H267610   6.214   1.521  16.017 -0.1451 -0.1730  0.1129
15399TIP3   OH267611   1.929   4.396  13.618 -0.0984  0.0718  0.1301
15399TIP3    H167612   1.887   4.481  13.631 -0.3240 -0.0158 -0.0167
15399TIP3    H267613   2.005   4.398  13.675 -0.4185  0.1534  0.5568
15400TIP3   OH267614   0.096   2.487   1.737  0.2939  0.4653 -0.8042
15400TIP3    H167615   0.093   2.396   1.710 -1.1958  0.2869 -0.0989
15400TIP3    H267616   0.124   2.485   1.828 -0.1188  0.6915 -0.6706
15401TIP3   OH267617   1.836   4.397   5.877  0.4683 -0.6918 -0.1213
15401TIP3    H167618   1.896   4.381   5.950 -0.9123  1.0657  1.5203
15401TIP3    H267619   1.752   4.415   5.919  0.0145  2.2668 -1.9770
15402TIP3   OH267620   5.655   3.487  12.199  0.1188  0.0721  0.2631
15402TIP3    H167621   5.749   3.509  12.195 -0.2711  2.0261  0.7646
15402TIP3    H267622   5.653   3.392  12.191  2.1093  0.0280 -0.4097
15403TIP3   OH267623   3.826   6.155   5.292  0.0301  0.3169  0.8198
15403TIP3    H167624   3.732   6.173   5.295  0.1269  0.9343  0.3988
15403TIP3    H267625   3.835   6.079   5.235 -0.1424  0.8761  0.0220
15404TIP3   OH267626   0.734   5.233   2.063 -0.7025  0.0938  0.2498
15404TIP3    H167627   0.796   5.257   2.131 -1.2211  0.5104  0.5886
15404TIP3    H267628   0.688   5.157   2.097 -0.1430 -0.4281 -0.1497
15405TIP3   OH267629   1.564   6.558   0.924  0.2529  0.6925  0.0541
15405TIP3    H167630   1.617   6.637   0.932  0.2858  0.7187 -0.3797
15405TIP3    H267631   1.502   6.563   0.997  0.6649  0.7990  0.4018
15406TIP3   OH267632   1.840   0.238   1.576 -0.2777 -0.0221  0.3670
15406TIP3    H167633   1.792   0.321   1.576  1.0816  0.8075 -0.9989
15406TIP3    H267634   1.792   0.183   1.638  0.3339  2.6750  3.5249
15407TIP3   OH267635   2.683   2.281   1.827  0.3722  0.2899  0.1597
15407TIP3    H167636   2.737   2.357   1.805  0.0325  0.9678  1.5532
15407TIP3    H267637   2.746   2.215   1.856  0.5487  0.6599  0.6305
15408TIP3   OH267638   1.308   6.781  16.580 -0.2273  0.1013  0.2073
15408TIP3    H167639   1.221   6.810  16.553  0.5665  0.6169 -1.9700
15408TIP3    H267640   1.291   6.703  16.633 -2.0417  0.6325  0.4919
15409TIP3   OH267641   2.404   1.322   2.863  0.4259 -0.2195  0.1524
15409TIP3    H167642   2.357   1.250   2.906 -3.5907  1.5276 -0.7989
15409TIP3    H267643   2.424   1.288   2.776  1.8377 -1.2902  0.8549
15410TIP3   OH267644   1.215   0.738   4.315  0.1194 -0.7085  0.6510
15410TIP3    H167645   1.236   0.719   4.407  3.7737 -3.1428 -0.4840
15410TIP3    H267646   1.276   0.808   4.291  0.6181 -1.4694 -0.3793
15411TIP3   OH267647   2.251   6.174   2.150 -0.3639  0.1667  0.1195
15411TIP3    H167648   2.237   6.164   2.244  0.2194 -2.4157  0.0264
15411TIP3    H267649   2.163   6.169   2.113 -0.6270  1.5175  0.5148
15412TIP3   OH267650   0.242   6.203  12.084 -0.1278 -0.6063  0.2689
15412TIP3    H167651   0.307   6.272  12.096 -0.2454 -0.1619 -1.4604
15412TIP3    H267652   0.170   6.228  12.141 -0.5191  1.1776 -0.9572
15413TIP3   OH267653   2.330   4.827   5.163 -1.2094 -0.4460 -0.1816
15413TIP3    H167654   2.341   4.873   5.079 -1.0423 -1.3017 -0.6343
15413TIP3    H267655   2.409   4.773   5.170 -1.3751 -0.6108  0.3807
15414TIP3   OH267656   1.190   6.478  12.113 -0.4112 -0.8184 -0.3868
15414TIP3    H167657   1.187   6.570  12.142  0.2158 -1.1735  0.8404
15414TIP3    H267658   1.244   6.480  12.034  1.0285 -0.3716  0.5892
15415TIP3   OH267659   5.812   5.680   4.200 -0.0767 -0.0106  0.0668
15415TIP3    H167660   5.853   5.611   4.251 -1.0667  0.4298  1.5228
15415TIP3    H267661   5.881   5.711   4.141  0.9656 -0.8670  0.7989
15416TIP3   OH267662   0.093   6.011  10.533  0.4074  0.5513 -0.0014
15416TIP3    H167663   0.072   6.076  10.466 -2.5525  0.1956  0.4509
15416TIP3    H267664   0.186   6.025  10.551  0.6662  2.4186 -2.2580
15417TIP3   OH267665   5.748   5.932   3.112  0.1796 -0.5537 -0.5104
15417TIP3    H167666   5.701   5.849   3.120  0.7519 -0.9189 -0.8263
15417TIP3    H267667   5.832   5.908   3.073  1.6535 -0.2996  2.2153
15418TIP3   OH267668   6.457   0.128  13.238  0.1689  0.1543 -0.1462
15418TIP3    H167669   6.435   0.042  13.202 -1.3394  0.7901 -0.8302
15418TIP3    H267670   6.446   0.188  13.164 -0.4925  1.1509  0.7303
15419TIP3   OH267671   0.286   5.907  14.762 -0.2312 -0.1005 -0.5932
15419TIP3    H167672   0.381   5.899  14.775  0.1090  0.7422 -2.2278
15419TIP3    H267673   0.252   5.934  14.847  0.9605 -0.5867  0.0730
15420TIP3   OH267674   2.618   1.812  16.631 -0.3989 -0.7840  0.3312
15420TIP3    H167675   2.525   1.798  16.617 -0.4568  1.4365 -2.6602
15420TIP3    H267676   2.623   1.897  16.675  0.1370  0.4910 -2.0121
15421TIP3   OH267677   5.758   6.340  16.049 -0.0539  0.4266 -0.1643
15421TIP3    H167678   5.802   6.297  16.123 -0.5691  0.9832  0.4840
15421TIP3    H267679   5.670   6.301  16.048  0.7328 -1.5022 -2.1439
15422TIP3   OH267680   5.742   1.683   3.836 -0.2918  0.0633 -0.6930
15422TIP3    H167681   5.733   1.768   3.880  2.0249  0.6191 -1.1486
15422TIP3    H267682   5.763   1.705   3.745  0.0333 -0.9959 -0.8907
15423TIP3   OH267683   4.723   5.951  14.295 -0.2313 -0.0352  0.5691
15423TIP3    H167684   4.674   5.910  14.224  0.5896 -1.0558  0.5588
15423TIP3    H267685   4.683   6.037  14.305 -2.9091 -1.2871  1.4929
15424TIP3   OH267686   1.342   3.217   2.776 -0.6576 -0.6188 -0.3189
15424TIP3    H167687   1.270   3.226   2.838  0.1545 -0.4549  0.6208
15424TIP3    H267688   1.320   3.278   2.706 -0.6060  0.7181  0.7777
15425TIP3   OH267689   2.187   0.660   4.496  0.4147  0.0889  0.2862
15425TIP3    H167690   2.110   0.649   4.440  1.2388 -0.8076 -0.7133
15425TIP3    H267691   2.176   0.595   4.565  0.4425 -0.2839 -0.0566
15426TIP3   OH267692   1.636   1.241  10.943  0.0337 -0.5398 -0.0939
15426TIP3    H167693   1.630   1.225  11.037  1.0808 -0.6195 -0.0360
15426TIP3    H267694   1.546   1.233  10.912 -0.1810 -1.5411  0.7311
15427TIP3   OH267695   0.114   0.951  12.163 -0.0121  0.0490  0.8622
15427TIP3    H167696   0.196   0.935  12.116 -0.8011 -2.5799  0.1766
15427TIP3    H267697   0.090   1.041  12.142 -0.1519 -0.8346 -3.6183
15428TIP3   OH267698   5.885   2.597   4.188 -0.4121  0.1414 -0.0728
15428TIP3    H167699   5.818   2.662   4.169 -1.5111 -0.9443 -0.0226
15428TIP3    H267700   5.846   2.541   4.255 -0.6298 -2.2139 -2.0098
15429TIP3   OH267701   5.344   4.501   2.963  0.2889  0.1328  0.0307
15429TIP3    H167702   5.271   4.539   3.012 -0.1122 -0.8411  0.2250
15429TIP3    H267703   5.302   4.461   2.886  0.5549 -0.7921  0.3577
15430TIP3   OH267704   6.498   4.166  16.710  0.3301 -0.0233 -0.3000
15430TIP3    H167705   6.465   4.076  16.712  1.6250 -0.5305  0.9277
15430TIP3    H267706   6.477   4.200  16.797 -1.0063  1.2157 -1.0906
15431TIP3   OH267707   2.397   4.882  11.646 -0.1266 -0.0252 -0.4877
15431TIP3    H167708   2.353   4.901  11.563  1.1450 -0.6718 -1.3430
15431TIP3    H267709   2.377   4.958  11.701 -1.7883 -0.0254 -1.0302
15432TIP3   OH267710   5.616   0.078   1.993 -0.8660 -0.3370  0.7743
15432TIP3    H167711   5.602   0.049   2.083 -0.3213  0.4518  1.1259
15432TIP3    H267712   5.619  -0.003   1.941 -1.2825 -0.7891  1.4448
15433TIP3   OH267713   3.502   4.854   0.611  0.2293  0.3354 -0.0645
15433TIP3    H167714   3.472   4.765   0.630 -0.3518  0.3707 -0.7743
15433TIP3    H267715   3.521   4.891   0.697  1.4392 -0.7950  0.1885
15434TIP3   OH267716   2.346   2.928   3.163  0.5143  0.2182  0.0257
15434TIP3    H167717   2.383   2.856   3.112 -1.5897 -0.4709 -0.6123
15434TIP3    H267718   2.409   2.941   3.234  3.0273  0.5421 -2.1100
15435TIP3   OH267719   4.311   3.416   2.166  0.0641 -0.3470 -0.2883
15435TIP3    H167720   4.402   3.413   2.196  0.4473 -1.5269 -1.4678
15435TIP3    H267721   4.315   3.456   2.079 -0.4177 -1.1690 -0.7058
15436TIP3   OH267722   0.662   4.394   5.797  0.6723  0.1759  0.7010
15436TIP3    H167723   0.726   4.442   5.849 -1.6270  2.0992  2.0019
15436TIP3    H267724   0.599   4.361   5.860 -0.3187 -0.5104 -0.5859
15437TIP3   OH267725   6.797   6.482  10.999  0.2495 -0.2990  0.0871
15437TIP3    H167726   6.851   6.450  10.927 -0.5086  0.2623 -0.7550
15437TIP3    H267727   6.707   6.471  10.968 -0.0950 -0.1557  1.0000
15438TIP3   OH267728   2.110   4.662  16.623 -0.2540 -0.4658 -0.5026
15438TIP3    H167729   2.150   4.730  16.569  0.8708  0.2319  1.1341
15438TIP3    H267730   2.104   4.701  16.710  0.6187 -2.5390  0.5497
15439TIP3   OH267731   1.711   5.344  12.426  0.1842 -0.2613 -0.2761
15439TIP3    H167732   1.801   5.376  12.430  0.0378  0.3365 -1.3299
15439TIP3    H267733   1.713   5.277  12.357  0.2158 -1.6473  1.0247
15440TIP3   OH267734   6.157   1.185  12.827  0.2941  0.1640  0.3050
15440TIP3    H167735   6.240   1.161  12.867  0.3696 -0.7034 -0.3279
15440TIP3    H267736   6.109   1.232  12.896  0.7464 -0.5547  1.1265
15441TIP3   OH267737   4.486   6.480   2.533 -0.1576  0.0912  0.2704
15441TIP3    H167738   4.418   6.539   2.501  0.7013  0.6530 -0.5767
15441TIP3    H267739   4.483   6.405   2.472  2.3315  1.7302 -2.1071
15442TIP3   OH267740   5.893   2.118   1.533 -0.1271  0.3053  0.0704
15442TIP3    H167741   5.954   2.105   1.606  1.3249 -1.5328 -1.3716
15442TIP3    H267742   5.926   2.197   1.489  0.0491  0.4022  0.3696
15443TIP3   OH267743   6.744   2.986   3.321 -0.3114  0.0361 -0.6388
15443TIP3    H167744   6.696   3.056   3.276 -2.1037  0.3342  1.5506
15443TIP3    H267745   6.717   2.906   3.276 -2.0037  0.3313 -0.2267
15444TIP3   OH267746   4.380   3.435  14.103  0.0993 -0.2802  0.3187
15444TIP3    H167747   4.412   3.437  14.193  0.5172  1.3829  0.1676
15444TIP3    H267748   4.455   3.405  14.052  0.9494  1.9313  0.1743
15445TIP3   OH267749   2.835   1.984   4.955  0.4252  0.3238  0.0906
15445TIP3    H167750   2.799   2.020   5.036  0.5405  0.2829  0.1602
15445TIP3    H267751   2.800   2.041   4.886  1.2899  1.0826  0.2688
15446TIP3   OH267752   4.154   3.309   3.069 -0.9098  0.7560 -0.4749
15446TIP3    H167753   4.212   3.304   2.993 -1.1999  2.2660 -0.8314
15446TIP3    H267754   4.185   3.386   3.117 -1.3870  0.4254  0.3891
15447TIP3   OH267755   5.892   5.220   5.092 -0.0888  0.0063  0.2432
15447TIP3    H167756   5.874   5.280   5.164 -0.8410  0.5857 -0.4065
15447TIP3    H267757   5.973   5.252   5.054 -0.1849  0.2693  0.2577
15448TIP3   OH267758   3.962   0.343   5.684 -0.4669 -0.4569  0.4560
15448TIP3    H167759   4.030   0.410   5.674  1.7275 -2.4267  1.3733
15448TIP3    H267760   3.930   0.355   5.774 -1.2702  0.3695  0.0760
15449TIP3   OH267761   6.350   1.123   2.373  0.0782  0.4306 -0.7198
15449TIP3    H167762   6.421   1.160   2.320  0.7611 -1.5203 -1.2628
15449TIP3    H267763   6.360   1.163   2.459  2.1180 -0.0675 -0.6770
15450TIP3   OH267764   3.871   0.775  13.806  0.7918 -0.5351 -0.3187
15450TIP3    H167765   3.911   0.793  13.891  1.3026  0.4258 -0.7488
15450TIP3    H267766   3.913   0.694  13.775  0.3026 -1.1187  0.5146
15451TIP3   OH267767   3.715   5.089   5.432 -0.3562 -0.0358  0.2136
15451TIP3    H167768   3.638   5.068   5.379  0.3951 -2.4247 -0.0582
15451TIP3    H267769   3.680   5.121   5.515 -1.5796  1.2380 -0.7549
15452TIP3   OH267770   1.036   5.239  14.145  0.0103 -0.2163 -0.4816
15452TIP3    H167771   1.017   5.183  14.070  0.6282  0.3553 -1.0914
15452TIP3    H267772   0.958   5.234  14.200 -1.5597  1.2860 -2.3789
15453TIP3   OH267773   2.119   3.728  16.371  0.0004 -0.6670 -0.4753
15453TIP3    H167774   2.108   3.742  16.465 -0.3006  0.8309 -0.7195
15453TIP3    H267775   2.068   3.798  16.330 -0.9803 -2.0854 -1.7828
15454TIP3   OH267776   4.208   1.553   0.921 -0.3086 -0.4368 -0.3121
15454TIP3    H167777   4.294   1.589   0.898 -0.1487 -1.3487 -1.2159
15454TIP3    H267778   4.220   1.458   0.915 -1.0731 -0.6083  0.7209
15455TIP3   OH267779   5.447   4.975   2.833 -0.3230 -0.1809  0.2439
15455TIP3    H167780   5.419   4.885   2.819  0.0242 -0.1637 -0.6279
15455TIP3    H267781   5.536   4.978   2.798 -0.4725  0.5957 -0.0943
15456TIP3   OH267782   2.079   4.108  16.714  0.5086  0.4407  0.0178
15456TIP3    H167783   2.130   4.160  16.652  1.8543 -0.6255  0.1774
15456TIP3    H267784   2.103   4.017  16.694  0.1084  0.0229  1.3548
15457TIP3   OH267785   6.403   5.711   4.325 -0.2419  0.7797 -0.3144
15457TIP3    H167786   6.420   5.719   4.232  0.3319  0.6302 -0.2283
15457TIP3    H267787   6.313   5.679   4.331  0.6432 -2.0650 -0.8918
15458TIP3   OH267788   4.462   0.654   1.971  0.3056  0.4268 -0.1661
15458TIP3    H167789   4.514   0.728   2.003 -2.0438  1.0790  2.5290
15458TIP3    H267790   4.496   0.578   2.018 -1.1093  0.8736  1.6948
15459TIP3   OH267791   4.660   1.639   5.219 -0.4735  0.7957 -0.0107
15459TIP3    H167792   4.693   1.554   5.189  0.8998  1.3888 -0.2650
15459TIP3    H267793   4.739   1.689   5.240 -1.2749  1.8872  0.4966
15460TIP3   OH267794   0.810   3.896   5.441  0.2427  0.6553  0.4546
15460TIP3    H167795   0.790   3.989   5.428 -0.3637  0.3123 -1.2716
15460TIP3    H267796   0.905   3.890   5.428 -0.0468  0.6697 -1.9970
15461TIP3   OH267797   0.079   0.520  16.370 -0.2454 -0.1637 -0.6320
15461TIP3    H167798   0.118   0.444  16.327 -1.5829 -0.4468 -1.3947
15461TIP3    H267799   0.053   0.488  16.456 -2.6059 -1.1761 -1.6537
15462TIP3   OH267800   4.859   0.400  13.416  0.2116 -0.0766  0.2721
15462TIP3    H167801   4.952   0.382  13.402 -0.2360 -2.1795 -0.3063
15462TIP3    H267802   4.841   0.368  13.504 -0.1535 -0.5559  0.0278
15463TIP3   OH267803   3.480   6.258  13.309 -0.0121 -0.1484  0.1869
15463TIP3    H167804   3.417   6.246  13.381 -0.3074  1.6431  0.2677
15463TIP3    H267805   3.478   6.352  13.291  1.2449 -0.3425 -1.1094
15464TIP3   OH267806   0.650   4.496   2.881  0.2540 -0.2658 -0.2165
15464TIP3    H167807   0.664   4.430   2.813  0.1558 -0.0626 -0.4360
15464TIP3    H267808   0.585   4.555   2.844  1.4731  0.8395 -0.6592
15465TIP3   OH267809   3.352   4.919   5.227  0.2068 -0.0760 -0.3551
15465TIP3    H167810   3.265   4.958   5.227  0.5376  0.7011  0.5530
15465TIP3    H267811   3.381   4.924   5.136 -0.0336  1.2012 -0.3748
15466TIP3   OH267812   0.227   2.479   2.026  0.4597  0.6082 -0.1455
15466TIP3    H167813   0.322   2.476   2.027  0.4645  0.2806 -0.9669
15466TIP3    H267814   0.200   2.387   2.026  0.1315  0.7011  0.7903
15467TIP3   OH267815   1.329   1.682   3.456 -0.1513 -0.1091  0.3452
15467TIP3    H167816   1.248   1.703   3.503  0.0800  1.3320  0.1508
15467TIP3    H267817   1.335   1.750   3.388  1.4221  0.0502  0.6199
15468TIP3   OH267818   2.224   3.392  13.665 -0.0739 -0.2751 -0.1173
15468TIP3    H167819   2.197   3.468  13.716 -0.0695  1.5965 -2.7119
15468TIP3    H267820   2.318   3.384  13.683 -0.0521  0.3914  0.0933
15469TIP3   OH267821   0.661   2.444  13.932  0.1486  0.2415 -0.1390
15469TIP3    H167822   0.675   2.538  13.928 -2.8773  0.9820  2.3378
15469TIP3    H267823   0.722   2.414  13.999 -2.4094  1.5691  3.0631
15470TIP3   OH267824   1.910   4.009   2.056 -0.1604 -0.1864 -0.5967
15470TIP3    H167825   1.894   3.953   1.980 -1.6331 -0.3296 -0.2132
15470TIP3    H267826   2.004   4.029   2.052  0.2465 -2.0128 -1.1947
15471TIP3   OH267827   1.157   1.668  15.643  0.5417 -0.1597 -0.5701
15471TIP3    H167828   1.216   1.653  15.569  0.1353  0.5586 -1.0554
15471TIP3    H267829   1.083   1.716  15.605 -0.2228 -0.7831  0.0795
15472TIP3   OH267830   4.717   5.658  13.735 -0.1105 -0.1759  0.2359
15472TIP3    H167831   4.739   5.573  13.771  3.5475 -0.1628 -1.5174
15472TIP3    H267832   4.632   5.646  13.692  1.4039 -3.7882 -2.2017
15473TIP3   OH267833   3.544   5.967   3.032  0.5985  0.0424  0.8719
15473TIP3    H167834   3.630   5.954   3.072  0.4717  0.5348  1.3166
15473TIP3    H267835   3.485   5.913   3.084  0.6905 -0.6131  0.3203
15474TIP3   OH267836   6.722   5.484  10.708 -0.4941 -0.4432  0.3279
15474TIP3    H167837   6.639   5.468  10.664 -0.1420 -1.0185 -0.1424
15474TIP3    H267838   6.781   5.416  10.674  0.4541  0.5791 -0.1044
15475TIP3   OH267839   0.722   4.835  16.889 -0.1407 -0.5906  0.5355
15475TIP3    H167840   0.672   4.812  16.967 -0.6102  1.1568  0.7852
15475TIP3    H267841   0.672   4.798  16.816 -0.3247 -1.2195  0.9795
15476TIP3   OH267842   1.018   5.529  12.914  0.9020  0.1273 -0.0741
15476TIP3    H167843   0.922   5.533  12.916  0.8284 -0.9338 -0.7973
15476TIP3    H267844   1.046   5.604  12.967 -0.3140  1.9846 -1.8763
15477TIP3   OH267845   5.218   0.363   5.594 -0.7193 -0.1751  0.5407
15477TIP3    H167846   5.242   0.387   5.683 -1.3664 -1.6874  1.1508
15477TIP3    H267847   5.181   0.275   5.601 -1.5996  0.0119 -1.0932
15478TIP3   OH267848   2.193   4.310   2.177 -0.3508 -0.0922 -0.4604
15478TIP3    H167849   2.189   4.247   2.106 -0.0825  0.2279 -0.7660
15478TIP3    H267850   2.159   4.391   2.139  1.8038  0.6685 -0.8884
15479TIP3   OH267851   3.922   3.060   1.062  0.2712  0.3250  0.1580
15479TIP3    H167852   3.989   2.992   1.070 -0.1983 -0.0238  1.3744
15479TIP3    H267853   3.879   3.042   0.978  1.6279  0.5128 -0.5996
15480TIP3   OH267854   2.985   5.315  16.177 -0.3542 -0.0439 -0.1840
15480TIP3    H167855   3.061   5.307  16.234  0.2154 -4.2639 -1.1599
15480TIP3    H267856   3.022   5.319  16.089 -1.1749 -0.8951 -0.5953
15481TIP3   OH267857   2.669   2.719  16.744  0.0060  0.8689  0.0646
15481TIP3    H167858   2.709   2.784  16.802  0.4081 -0.6044  1.5348
15481TIP3    H267859   2.705   2.738  16.658  0.9452  1.9255  0.6625
15482TIP3   OH267860   5.763   3.396   3.589 -0.5467  0.6143 -0.0070
15482TIP3    H167861   5.838   3.356   3.632  0.7663  0.7645 -2.0085
15482TIP3    H267862   5.687   3.354   3.629  0.6788 -1.4329  0.3046
15483TIP3   OH267863   3.778   4.914  16.271  0.0670 -0.0232 -0.0671
15483TIP3    H167864   3.813   5.002  16.266  0.4978 -0.1209  1.0211
15483TIP3    H267865   3.844   4.859  16.228  0.0885  0.1022 -0.1954
15484TIP3   OH267866   5.462   6.696   2.539 -0.4233 -0.2877  0.4651
15484TIP3    H167867   5.484   6.789   2.530 -0.5226 -0.1229  1.7193
15484TIP3    H267868   5.510   6.653   2.468 -0.6180  0.7503 -0.3184
15485TIP3   OH267869   0.207   3.391   0.593  0.5390 -0.4373  0.0448
15485TIP3    H167870   0.269   3.456   0.560  0.4068 -0.3238  0.0184
15485TIP3    H267871   0.169   3.431   0.671  0.1231 -0.2902 -0.2288
15486TIP3   OH267872   5.161   0.269  16.021 -0.1776  0.2007 -0.0481
15486TIP3    H167873   5.117   0.326  15.958 -1.2209 -2.9488 -2.3962
15486TIP3    H267874   5.094   0.251  16.087 -1.5375 -2.0469 -1.9162
15487TIP3   OH267875   2.621   5.187   5.935 -0.4861 -0.4590  0.2688
15487TIP3    H167876   2.540   5.153   5.972 -0.3167 -1.4728 -0.2594
15487TIP3    H267877   2.657   5.245   6.003 -2.3604  1.1922 -0.0589
15488TIP3   OH267878   0.173   4.825   2.009 -0.2269 -0.2662 -0.4596
15488TIP3    H167879   0.225   4.900   1.980 -1.2632 -0.2666 -2.4373
15488TIP3    H267880   0.237   4.756   2.025  0.7435  0.9799  1.3751
15489TIP3   OH267881   5.676   2.376   1.463 -0.1596  0.2049  0.0082
15489TIP3    H167882   5.693   2.334   1.548 -0.9007 -0.3805 -0.1210
15489TIP3    H267883   5.618   2.449   1.483 -1.3097 -0.6357 -0.1088
15490TIP3   OH267884   1.196   3.670  16.213  0.1049 -0.1377 -0.2227
15490TIP3    H167885   1.185   3.633  16.300 -0.4970  0.1225 -0.1799
15490TIP3    H267886   1.110   3.661  16.172  0.2541  0.1776 -0.6170
15491TIP3   OH267887   3.539   4.393   4.377  0.3206 -0.2722  0.0910
15491TIP3    H167888   3.544   4.408   4.283 -0.6692 -0.7166 -0.0489
15491TIP3    H267889   3.590   4.464   4.416  0.5803  0.0229 -0.7701
15492TIP3   OH267890   2.258   5.251   2.741  0.2895  0.4812 -0.5158
15492TIP3    H167891   2.235   5.209   2.823  0.9907 -3.1594 -2.0040
15492TIP3    H267892   2.178   5.296   2.713 -0.2712  0.8476  1.5646
15493TIP3   OH267893   2.151   4.224  12.306 -0.2783 -0.3616  0.2606
15493TIP3    H167894   2.172   4.148  12.360  1.2085  0.5645  1.0430
15493TIP3    H267895   2.172   4.299  12.362 -0.9408  0.6237 -0.7866
15494TIP3   OH267896   4.793   5.687  11.140 -0.7193 -0.4944  0.1277
15494TIP3    H167897   4.747   5.764  11.174  0.2775  0.3012 -0.2832
15494TIP3    H267898   4.870   5.679  11.197  0.0237 -0.2083 -0.8156
15495TIP3   OH267899   5.874   1.213   3.450  0.1555 -0.1076  0.8001
15495TIP3    H167900   5.926   1.161   3.510 -0.3554 -0.2012  1.1580
15495TIP3    H267901   5.839   1.284   3.503 -0.2347 -0.1469  0.6002
15496TIP3   OH267902   6.552   2.909   4.512  0.5658 -0.0855 -0.2394
15496TIP3    H167903   6.642   2.918   4.541  1.1313 -1.6761 -1.3303
15496TIP3    H267904   6.544   2.816   4.488 -0.6108  0.5477 -2.5432
15497TIP3   OH267905   6.254   4.810   3.410 -0.1031 -0.3066  0.5016
15497TIP3    H167906   6.308   4.809   3.331 -2.1625 -0.6063 -0.9774
15497TIP3    H267907   6.317   4.813   3.482  1.8551 -0.4669 -1.1178
15498TIP3   OH267908   5.963   5.871  12.255  0.3325  0.1544  0.5589
15498TIP3    H167909   6.012   5.953  12.243 -0.3134  0.7499  1.8003
15498TIP3    H267910   5.996   5.836  12.338 -0.7563  0.1498  0.9945
15499TIP3   OH267911   2.256   1.815   6.569 -0.2700  0.2844 -0.1735
15499TIP3    H167912   2.321   1.750   6.598  2.3093  2.4324 -0.7568
15499TIP3    H267913   2.236   1.789   6.479  0.1713 -0.1339 -0.1622
15500TIP3   OH267914   4.384   5.529   3.664  0.1366  0.8863 -0.5275
15500TIP3    H167915   4.392   5.512   3.570  1.6532  2.7270 -0.8029
15500TIP3    H267916   4.473   5.520   3.698 -0.4527 -0.1322  0.8299
15501TIP3   OH267917   2.837   1.378  11.672  0.5066  0.3026 -0.1066
15501TIP3    H167918   2.925   1.396  11.706  0.1028 -0.7223  1.6353
15501TIP3    H267919   2.779   1.393  11.747 -0.6754 -0.1761 -0.8953
15502TIP3   OH267920   1.644   0.013  13.167 -0.9410  0.3402  0.8914
15502TIP3    H167921   1.550   0.014  13.185 -1.4882  0.1703 -1.5798
15502TIP3    H267922   1.653   0.060  13.084  1.2584  0.9157  1.3889
15503TIP3   OH267923   0.113   4.562  11.178  0.1496  0.3894 -0.3455
15503TIP3    H167924   0.112   4.472  11.211  2.3663  0.9629  1.5322
15503TIP3    H267925   0.037   4.603  11.220  1.3861  0.3841  2.0583
15504TIP3   OH267926   6.685   4.210  11.157  0.4829 -0.5739 -0.7008
15504TIP3    H167927   6.718   4.168  11.078  1.5882  0.3599 -0.7619
15504TIP3    H267928   6.743   4.179  11.227 -0.0339 -0.8180 -0.3693
15505TIP3   OH267929   0.619   1.339   0.306 -0.4116 -0.0843 -0.5718
15505TIP3    H167930   0.706   1.301   0.322  1.0867  3.3960  0.5529
15505TIP3    H267931   0.565   1.305   0.378  0.1623 -1.7109 -0.8616
15506TIP3   OH267932   2.018   3.699  10.954  0.2503  0.2485  0.3848
15506TIP3    H167933   2.084   3.690  10.885 -1.0008 -0.0203 -0.8251
15506TIP3    H267934   2.068   3.713  11.034  1.8142 -1.0178 -0.3185
15507TIP3   OH267935   3.929   4.542  11.512 -0.1344 -0.1824  0.4444
15507TIP3    H167936   3.927   4.536  11.416  2.6156  0.8198  0.2227
15507TIP3    H267937   3.904   4.455  11.542 -0.8732 -0.5639 -1.1891
15508TIP3   OH267938   5.022   6.375   3.996  0.4711  0.2030  0.1644
15508TIP3    H167939   5.110   6.382   4.034  0.1706 -0.0538  0.9233
15508TIP3    H267940   4.974   6.318   4.056 -0.0073 -0.2630 -0.6365
15509TIP3   OH267941   6.403   3.321   6.301  0.1069 -0.1292  0.9322
15509TIP3    H167942   6.350   3.357   6.229  1.2678  1.3813  0.7816
15509TIP3    H267943   6.489   3.309   6.263  0.1940 -1.4361  1.5006
15510TIP3   OH267944   3.220   5.815  13.373 -0.3615 -0.4132 -0.0797
15510TIP3    H167945   3.188   5.732  13.339 -2.5154  0.5334 -0.5731
15510TIP3    H267946   3.166   5.881  13.329  0.5306  1.1875  1.1061
15511TIP3   OH267947   4.792   6.235  16.652  0.2259  0.3934 -0.2133
15511TIP3    H167948   4.863   6.294  16.626 -0.0495  0.5654 -0.5838
15511TIP3    H267949   4.715   6.268  16.606  0.1415 -0.4743 -0.7264
15512TIP3   OH267950   6.271   1.831  13.183 -0.3131  0.2417 -0.5861
15512TIP3    H167951   6.278   1.925  13.165  1.9886  0.1962 -0.2559
15512TIP3    H267952   6.226   1.795  13.106 -1.7671  1.6655 -0.4448
15513TIP3   OH267953   3.634   6.609   4.917  0.4609 -0.3983  0.0223
15513TIP3    H167954   3.595   6.664   4.985  0.2714 -0.5953  0.0724
15513TIP3    H267955   3.721   6.587   4.951  0.5165 -0.1780  0.0262
15514TIP3   OH267956   1.055   3.115   2.228  0.5547 -0.1135 -0.0741
15514TIP3    H167957   1.019   3.142   2.313  0.4336 -0.8119  0.0981
15514TIP3    H267958   1.023   3.182   2.167 -1.4450 -0.9270 -0.0115
15515TIP3   OH267959   2.634   2.033   0.972 -0.1857 -0.6993 -0.2412
15515TIP3    H167960   2.644   2.030   1.068 -0.1334  0.8690 -0.1661
15515TIP3    H267961   2.718   2.005   0.938 -0.0653 -0.8620  0.1889
15516TIP3   OH267962   1.134   2.531  10.959 -0.0977  0.2418  0.6328
15516TIP3    H167963   1.110   2.520  11.051 -1.8787  1.1564  0.3134
15516TIP3    H267964   1.144   2.626  10.948 -0.0646  0.1533 -0.1669
15517TIP3   OH267965   5.269   4.071  16.716 -0.0929  0.4040 -0.7350
15517TIP3    H167966   5.177   4.096  16.706 -0.9137 -1.7339  0.5720
15517TIP3    H267967   5.284   4.008  16.646  0.1812  0.3288 -0.6079
15518TIP3   OH267968   4.555   3.865  11.517 -0.2891 -0.1531  0.0557
15518TIP3    H167969   4.495   3.828  11.582 -1.0498  0.6242 -0.1686
15518TIP3    H267970   4.538   3.960  11.521 -1.1249 -0.1634 -1.9962
15519TIP3   OH267971   3.065   4.788   5.959  0.5917  0.6478  0.3679
15519TIP3    H167972   3.010   4.781   6.037  0.7791 -0.4180  0.4181
15519TIP3    H267973   3.010   4.754   5.888  1.1885 -0.4803  0.4290
15520TIP3   OH267974   0.731   2.614  12.279 -0.2484  0.7821 -0.4438
15520TIP3    H167975   0.738   2.689  12.338 -0.9528  1.3290 -1.0417
15520TIP3    H267976   0.822   2.591  12.260 -0.0232  1.4424 -0.2127
15521TIP3   OH267977   2.888   3.146   2.124  0.5497 -0.3458  0.0404
15521TIP3    H167978   2.903   3.212   2.192  0.2824  0.2234 -0.4410
15521TIP3    H267979   2.792   3.142   2.116  0.5265 -1.4485  0.6870
15522TIP3   OH267980   1.053   6.720   2.769  0.3557  0.1495 -0.4093
15522TIP3    H167981   1.130   6.664   2.781 -0.2327 -0.4697  0.6845
15522TIP3    H267982   0.979   6.664   2.794 -0.4070  0.8797 -0.9749
15523TIP3   OH267983   3.351   1.184   2.395  0.3761 -0.0433  0.0960
15523TIP3    H167984   3.334   1.254   2.458  0.0319 -0.7682  0.8206
15523TIP3    H267985   3.442   1.159   2.412 -0.0816 -1.0838  1.1929
15524TIP3   OH267986   2.913   4.349   3.123 -0.5194  0.5237 -0.0256
15524TIP3    H167987   2.940   4.349   3.215  0.8125 -2.8794 -0.2450
15524TIP3    H267988   2.964   4.419   3.083  3.2077 -1.4381  0.8871
15525TIP3   OH267989   4.028   3.919  13.536 -0.3494 -0.4724 -0.7044
15525TIP3    H167990   3.933   3.916  13.537 -0.3701  0.1114 -0.4641
15525TIP3    H267991   4.052   3.939  13.627  0.0725 -2.2133 -0.3891
15526TIP3   OH267992   4.688   1.239   4.322  0.0644 -0.3231  0.1370
15526TIP3    H167993   4.618   1.279   4.270  0.3623  1.2236  0.8998
15526TIP3    H267994   4.707   1.157   4.276 -1.3891 -0.1835 -0.7766
15527TIP3   OH267995   6.505   4.164   3.699  0.4064 -0.4276 -0.2521
15527TIP3    H167996   6.440   4.224   3.663 -1.9117 -1.7825  1.4294
15527TIP3    H267997   6.472   4.077   3.678  1.3379 -1.1726  1.2253
15528TIP3   OH267998   2.470   6.284   1.959  0.2976 -0.5362  0.5233
15528TIP3    H167999   2.394   6.268   1.903  0.2759 -2.7872  1.0840
15528TIP3    H268000   2.435   6.328   2.036 -0.0596  0.3841 -0.1491
15529TIP3   OH268001   6.665   6.795   0.074 -0.1003  0.0148  0.3835
15529TIP3    H168002   6.675   6.875   0.126 -2.8680  1.8285 -1.5955
15529TIP3    H268003   6.741   6.796   0.015  0.9561  0.0415  1.7002
15530TIP3   OH268004   4.969   4.860   1.555 -0.2641 -0.7210  0.0646
15530TIP3    H168005   4.958   4.954   1.544 -1.7308 -1.0327 -1.6621
15530TIP3    H268006   5.009   4.850   1.641  0.8081  1.5103 -0.1221
15531TIP3   OH268007   3.249   6.059   2.183  0.0782 -0.1189 -0.8236
15531TIP3    H168008   3.216   6.038   2.270 -1.0542 -1.4355 -1.5369
15531TIP3    H268009   3.233   6.153   2.174  1.3936  0.3186  0.8451
15532TIP3   OH268010   5.951   2.179   3.035  0.2871 -0.0674  0.0706
15532TIP3    H168011   5.991   2.259   3.069  1.5790 -0.0208 -1.4390
15532TIP3    H268012   5.968   2.182   2.940  0.5691 -2.2136  0.0034
15533TIP3   OH268013   0.556   0.041  13.957  0.6330  0.1472  0.0896
15533TIP3    H168014   0.559   0.128  13.996  0.0534  0.2464 -0.0753
15533TIP3    H268015   0.521   0.055  13.869  2.4130 -0.0040 -0.6832
15534TIP3   OH268016   1.591   5.542  10.877  0.1090 -0.6134  0.2550
15534TIP3    H168017   1.663   5.556  10.817 -0.6596  1.3824 -0.2902
15534TIP3    H268018   1.541   5.469  10.840 -0.0976  0.2888 -1.2994
15535TIP3   OH268019   0.994   5.718   0.566  0.4092 -0.1593  0.5237
15535TIP3    H168020   0.967   5.636   0.608 -0.2564 -1.1524 -1.6625
15535TIP3    H268021   1.057   5.691   0.499 -0.9226  0.8678 -1.2474
15536TIP3   OH268022   3.243   1.840  15.635 -0.7647  0.1075  0.1401
15536TIP3    H168023   3.187   1.860  15.559 -0.9933 -0.5555  0.1230
15536TIP3    H268024   3.328   1.821  15.597 -0.3300  1.7609  0.2150
15537TIP3   OH268025   5.978   1.217   6.233 -0.0162  0.0003 -0.0461
15537TIP3    H168026   5.994   1.124   6.216  1.6283  0.4318 -1.1054
15537TIP3    H268027   6.056   1.246   6.282 -0.3247  0.9090 -0.0739
15538TIP3   OH268028   4.869   3.181  15.198 -0.6802  0.2033  0.2072
15538TIP3    H168029   4.890   3.257  15.252  0.6247  1.2032 -1.5908
15538TIP3    H268030   4.798   3.212  15.141 -0.6578 -0.1759 -0.0309
15539TIP3   OH268031   1.282   2.924   4.673 -0.2745 -0.0635 -0.2488
15539TIP3    H168032   1.217   2.917   4.743  0.6462  0.5665  0.7001
15539TIP3    H268033   1.340   2.849   4.686  0.7783  0.8565  0.6346
15540TIP3   OH268034   5.386   3.466   5.582  0.1761  0.1888 -0.6531
15540TIP3    H168035   5.465   3.454   5.635 -0.5170  1.2783  0.6949
15540TIP3    H268036   5.410   3.434   5.495  1.7176 -0.5883  0.0221
15541TIP3   OH268037   0.395   1.953  16.571 -0.5782 -0.1292 -0.2183
15541TIP3    H168038   0.338   2.020  16.531  1.5617  0.1372 -3.2153
15541TIP3    H268039   0.458   2.004  16.623 -0.3737 -0.0116 -0.5786
15542TIP3   OH268040   3.594   0.391   2.405 -0.2541 -0.0940  0.2825
15542TIP3    H168041   3.503   0.389   2.378 -0.7073  2.0644  1.3680
15542TIP3    H268042   3.635   0.455   2.346  0.3207 -0.3309  0.4181
15543TIP3   OH268043   1.855   3.465  11.617 -0.3270  0.6415 -0.5585
15543TIP3    H168044   1.874   3.442  11.708  0.1342  0.4514 -0.7027
15543TIP3    H268045   1.790   3.536  11.623  0.4696  1.3416 -0.0686
15544TIP3   OH268046   1.721   1.858  12.841  0.1835  0.0875  0.3938
15544TIP3    H168047   1.758   1.937  12.800  0.0403 -0.1108 -0.1275
15544TIP3    H268048   1.763   1.786  12.794 -0.1110 -0.1431  0.4881
15545TIP3   OH268049   4.314   5.786   5.001 -0.0573 -0.7751  0.7176
15545TIP3    H168050   4.335   5.783   4.908  1.3439 -0.6016  1.0153
15545TIP3    H268051   4.381   5.733   5.043 -0.3924 -0.4600  1.6848
15546TIP3   OH268052   5.239   0.424  13.103  0.2819  1.0332  0.2059
15546TIP3    H168053   5.180   0.459  13.170  0.6768  0.6115  0.7914
15546TIP3    H268054   5.274   0.501  13.058 -0.5604  1.2947 -0.0248
15547TIP3   OH268055   6.167   4.861   5.528  0.3264 -0.6167 -0.0022
15547TIP3    H168056   6.208   4.917   5.462 -2.7495  0.4983 -1.1395
15547TIP3    H268057   6.150   4.779   5.483  1.4234 -1.1573  0.5326
15548TIP3   OH268058   3.596   3.598  16.789  0.4516  0.0023  0.8520
15548TIP3    H168059   3.595   3.568  16.879 -2.1829 -1.1415  0.5119
15548TIP3    H268060   3.566   3.689  16.793  1.2802  0.2680  1.1922
15549TIP3   OH268061   2.442   0.347   4.576 -0.1088  0.1359  0.3025
15549TIP3    H168062   2.351   0.320   4.589  0.2123  0.0016  2.5597
15549TIP3    H268063   2.447   0.435   4.614  1.0177 -0.4528  1.6110
15550TIP3   OH268064   4.787   5.396  16.141 -0.0560 -0.2117  0.2582
15550TIP3    H168065   4.716   5.397  16.206 -0.3135  0.3284 -0.0220
15550TIP3    H268066   4.809   5.304  16.131 -1.0575 -0.4327 -0.0060
15551TIP3   OH268067   3.916   4.099  15.891 -0.0374 -0.5778 -0.1343
15551TIP3    H168068   3.977   4.031  15.863  0.7910  0.1994 -0.2396
15551TIP3    H268069   3.971   4.167  15.929 -0.6673  0.8716 -1.6859
15552TIP3   OH268070   2.940   4.931  14.524  0.6407  0.4437 -0.0274
15552TIP3    H168071   2.895   4.992  14.466 -1.7536 -1.8781 -0.7813
15552TIP3    H268072   2.917   4.960  14.613 -2.1250 -0.4263 -0.3892
15553TIP3   OH268073   6.618   3.260  16.130 -0.0035  0.3247  0.1873
15553TIP3    H168074   6.673   3.189  16.163  1.1446  1.2207  0.2824
15553TIP3    H268075   6.595   3.233  16.041 -0.4284 -0.6223  0.5743
15554TIP3   OH268076   1.256   5.994   4.600  0.3912  0.2321  0.1115
15554TIP3    H168077   1.298   6.080   4.594  0.9562 -0.0923 -0.8650
15554TIP3    H268078   1.322   5.933   4.566 -0.5317 -0.4016 -0.5888
15555TIP3   OH268079   3.413   5.857  11.325 -0.1012  0.2317  0.2010
15555TIP3    H168080   3.504   5.868  11.298 -0.1007  0.5730  0.3398
15555TIP3    H268081   3.374   5.802  11.257 -0.2946  1.6699 -0.8978
15556TIP3   OH268082   0.266   6.532   2.123 -0.5856  0.0028 -0.0315
15556TIP3    H168083   0.189   6.479   2.146  0.2897 -2.4427 -2.1819
15556TIP3    H268084   0.281   6.513   2.030  2.2787  0.8486  0.1630
15557TIP3   OH268085   5.650   1.451  14.867 -0.2676 -0.0799  0.6765
15557TIP3    H168086   5.559   1.435  14.844  0.1364  0.0051 -1.0701
15557TIP3    H268087   5.698   1.377  14.830  0.4547  0.2047  1.0208
15558TIP3   OH268088   4.295   3.885   1.948 -0.4578  0.6397  0.0403
15558TIP3    H168089   4.385   3.871   1.978 -0.4676  1.4504  0.4673
15558TIP3    H268090   4.245   3.818   1.993 -0.0510  0.0942 -0.3034
15559TIP3   OH268091   3.371   2.296   1.709 -0.0726  0.1724 -0.1036
15559TIP3    H168092   3.353   2.288   1.802 -3.1814 -1.8363 -0.7070
15559TIP3    H268093   3.367   2.390   1.692  0.2058  0.5438  1.7237
15560TIP3   OH268094   3.037   2.934  16.060  0.1921  0.3138  0.5249
15560TIP3    H168095   2.978   3.004  16.032 -1.2144 -0.1324  2.2089
15560TIP3    H268096   3.124   2.971  16.050 -0.5163  2.4327  1.6484
15561TIP3   OH268097   0.328   1.863   1.086  0.3032  0.0638 -0.2577
15561TIP3    H168098   0.340   1.942   1.138  1.1819  0.5119 -1.1287
15561TIP3    H268099   0.326   1.893   0.996 -1.8527 -0.6340 -0.5024
15562TIP3   OH268100   0.728   3.077  12.452 -0.0310  0.5155 -0.2355
15562TIP3    H168101   0.763   3.124  12.376  1.3286  1.1900  0.7667
15562TIP3    H268102   0.635   3.099  12.453  0.3139  2.0747 -0.5974
15563TIP3   OH268103   5.571   0.245  10.484 -0.2292 -0.0105 -0.3907
15563TIP3    H168104   5.566   0.262  10.390 -1.1434  0.1635 -0.3191
15563TIP3    H268105   5.482   0.262  10.517 -0.2108 -1.1605  0.3152
15564TIP3   OH268106   0.196   4.341   4.690  0.6134 -1.1404  0.0729
15564TIP3    H168107   0.164   4.334   4.600  2.6704 -0.1867 -0.8081
15564TIP3    H268108   0.218   4.433   4.700  1.6282 -1.4724  1.0975
15565TIP3   OH268109   4.653   1.294   5.411  0.2386 -0.1677 -0.3214
15565TIP3    H168110   4.741   1.260   5.428  0.2675  0.8455  2.0154
15565TIP3    H268111   4.622   1.322   5.497 -1.7013  1.0796 -1.3587
15566TIP3   OH268112   3.125   5.260   3.714 -0.0235 -0.2754  0.5112
15566TIP3    H168113   3.197   5.300   3.666 -0.3720  0.4145  0.5531
15566TIP3    H268114   3.049   5.270   3.656  0.2842 -2.9036 -0.5138
15567TIP3   OH268115   1.483   6.377   1.876 -0.6136 -0.2652  0.2329
15567TIP3    H168116   1.393   6.409   1.889 -0.5128  0.0106  0.2573
15567TIP3    H268117   1.476   6.283   1.888 -0.1806  0.0370  4.4108
15568TIP3   OH268118   6.479   2.559  10.756 -0.4546 -0.0306  0.2905
15568TIP3    H168119   6.514   2.497  10.692  0.1467  0.3117  0.2806
15568TIP3    H268120   6.534   2.637  10.746 -1.4093  0.6338  0.0706
15569TIP3   OH268121   1.700   2.244  14.517  0.0797 -0.4276  0.0598
15569TIP3    H168122   1.643   2.225  14.442  1.5774  2.0134 -1.8807
15569TIP3    H268123   1.656   2.313  14.565  0.3295 -0.1142 -0.1520
15570TIP3   OH268124   2.186   5.641  15.850 -0.3409 -0.1200 -0.5043
15570TIP3    H168125   2.148   5.588  15.779 -0.1607  0.0025 -0.6921
15570TIP3    H268126   2.275   5.607  15.861  0.4040  1.3039 -1.8346
15571TIP3   OH268127   2.864   3.851   1.508 -0.2193  0.0531  0.5984
15571TIP3    H168128   2.912   3.841   1.590 -1.1327  2.0248  1.4181
15571TIP3    H268129   2.915   3.800   1.444  0.9539 -0.8440  2.1872
15572TIP3   OH268130   3.601   4.216   5.995  0.1167 -0.7445  0.4865
15572TIP3    H168131   3.636   4.302   6.020  1.0351 -1.0505  0.2673
15572TIP3    H268132   3.533   4.198   6.061  0.8264 -0.4490  1.3163
15573TIP3   OH268133   4.291   0.462   3.584  0.2294 -0.7305  0.1177
15573TIP3    H168134   4.385   0.444   3.580  0.5751  0.9214  0.0348
15573TIP3    H268135   4.270   0.497   3.497 -0.0028  0.7798  0.7407
15574TIP3   OH268136   3.605   4.378  12.408  0.0805  0.2600  0.0430
15574TIP3    H168137   3.670   4.420  12.464  1.3929 -1.7611  0.1402
15574TIP3    H268138   3.621   4.412  12.321  0.9483  0.1769  0.1636
15575TIP3   OH268139   0.630   6.633  15.254  0.6937  0.0605  0.4917
15575TIP3    H168140   0.622   6.542  15.284 -1.6621 -0.8131 -2.3351
15575TIP3    H268141   0.543   6.655  15.220  1.5067  3.0223  0.0482
15576TIP3   OH268142   3.754   6.680   0.429  0.3577  0.0867  0.1739
15576TIP3    H168143   3.754   6.775   0.436  0.5202  0.0597  0.5933
15576TIP3    H268144   3.664   6.657   0.408  0.9975  0.5788 -3.7786
15577TIP3   OH268145   4.163   0.721  14.384  0.4320 -0.2937 -0.0542
15577TIP3    H168146   4.194   0.801  14.426 -1.7901  0.8126 -0.3850
15577TIP3    H268147   4.170   0.738  14.290  1.5260 -1.1761 -0.1548
15578TIP3   OH268148   4.936   6.160   2.193  0.2425  0.0585 -0.0615
15578TIP3    H168149   4.871   6.092   2.208 -1.5509  1.8239  0.6112
15578TIP3    H268150   5.009   6.137   2.251 -0.6110 -0.9168  0.6536
15579TIP3   OH268151   2.565   5.770   2.528 -0.4984  0.6704 -0.0332
15579TIP3    H168152   2.563   5.674   2.538 -0.1533  0.7264  0.6415
15579TIP3    H268153   2.554   5.803   2.617  2.5845  1.2291  0.2535
15580TIP3   OH268154   4.441   3.357   0.866 -0.1380 -0.5207  0.1785
15580TIP3    H168155   4.534   3.355   0.843  0.8146 -1.8430  3.6010
15580TIP3    H268156   4.437   3.323   0.955 -3.6680  1.8219  1.1073
15581TIP3   OH268157   1.207   6.206  16.166  0.1661  0.1152  0.3559
15581TIP3    H168158   1.174   6.216  16.076 -0.1333 -0.0082  0.4499
15581TIP3    H268159   1.214   6.112  16.179  2.9243  0.1193 -0.5055
15582TIP3   OH268160   2.269   5.995   3.847  0.5307  0.0726 -0.4623
15582TIP3    H168161   2.299   6.079   3.812  0.4017  0.3292  0.0263
15582TIP3    H268162   2.265   5.937   3.771 -1.7739  1.1760 -1.3054
15583TIP3   OH268163   1.323   4.602  16.562 -0.3344 -0.2450  0.7798
15583TIP3    H168164   1.278   4.666  16.618 -0.9115  1.6523 -1.6930
15583TIP3    H268165   1.264   4.590  16.487  1.9544  0.1192 -1.1797
15584TIP3   OH268166   2.239   2.210   0.619 -0.1316  0.0159 -0.1774
15584TIP3    H168167   2.309   2.146   0.632  0.9166  1.3171  0.9193
15584TIP3    H268168   2.187   2.204   0.699  1.5300  2.3075  1.1982
15585TIP3   OH268169   5.394   0.611   2.059 -0.5624 -0.0379 -0.4117
15585TIP3    H168170   5.387   0.561   2.140 -1.8901  0.3338 -0.2689
15585TIP3    H268171   5.345   0.691   2.076 -0.8641  0.0477 -1.5814
15586TIP3   OH268172   0.559   0.615   4.117 -0.1506  0.0500  0.3355
15586TIP3    H168173   0.570   0.670   4.039  0.4961  0.2151  0.5344
15586TIP3    H268174   0.611   0.537   4.099 -1.2517 -0.6179 -0.0431
15587TIP3   OH268175   3.861   4.311  16.583 -0.2699  0.3062 -0.5491
15587TIP3    H168176   3.784   4.265  16.551  0.7452 -1.8973 -0.0053
15587TIP3    H268177   3.839   4.404  16.575 -2.8743 -0.2535 -0.5928
15588TIP3   OH268178   3.466   5.222  12.424  0.5163 -0.4862  0.4008
15588TIP3    H168179   3.429   5.253  12.507  0.9654 -2.0899  1.2557
15588TIP3    H268180   3.412   5.263  12.357 -0.2853  0.3420  1.5070
15589TIP3   OH268181   0.885   4.046  14.392  0.0475 -1.0405 -0.3911
15589TIP3    H168182   0.847   4.128  14.422 -2.1143 -1.9011 -0.5984
15589TIP3    H268183   0.913   4.002  14.472 -1.1531 -1.1939 -0.0370
15590TIP3   OH268184   5.794   5.422  16.439  0.2059  0.4511  0.2029
15590TIP3    H168185   5.794   5.447  16.531  1.1273  1.3311 -0.0168
15590TIP3    H268186   5.708   5.383  16.425 -0.3840  1.3408  1.1612
15591TIP3   OH268187   5.611   4.471   0.543 -0.5723  0.7586 -0.5137
15591TIP3    H168188   5.611   4.555   0.589 -0.7084  0.2836  0.3931
15591TIP3    H268189   5.608   4.494   0.450  1.1956  1.7803 -0.3579
15592TIP3   OH268190   1.698   2.201   1.572  0.6635 -0.6865 -0.4663
15592TIP3    H168191   1.648   2.119   1.575 -0.3564 -0.0755  0.3249
15592TIP3    H268192   1.760   2.194   1.645  0.4395 -0.6821 -0.2724
15593TIP3   OH268193   5.630   1.779  14.723  0.2381 -0.7695 -0.4439
15593TIP3    H168194   5.634   1.869  14.689 -1.4045 -1.5309 -2.9267
15593TIP3    H268195   5.548   1.776  14.773  1.1654 -0.4773  1.1731
15594TIP3   OH268196   3.495   3.640  14.226  0.2399 -0.1598  0.1193
15594TIP3    H168197   3.517   3.690  14.305 -0.4259 -0.4649  0.5006
15594TIP3    H268198   3.492   3.549  14.255 -0.1874 -0.2536 -0.2160
15595TIP3   OH268199   4.707   0.220   0.174 -0.1828 -0.1602 -0.2707
15595TIP3    H168200   4.762   0.261   0.240 -0.0135  1.3717 -1.3058
15595TIP3    H268201   4.769   0.193   0.105 -0.5173 -0.2183 -0.5516
15596TIP3   OH268202   1.789   6.497   2.370  0.1012 -0.5554  0.3186
15596TIP3    H168203   1.770   6.552   2.446  0.4958  0.8260 -0.5504
15596TIP3    H268204   1.813   6.412   2.407 -0.4540 -0.1378  1.6979
15597TIP3   OH268205   5.861   4.440  13.332  0.3451 -0.0825 -0.4203
15597TIP3    H168206   5.810   4.513  13.297  1.0166  0.0782 -1.0919
15597TIP3    H268207   5.814   4.361  13.304 -1.0971  0.0508  1.3813
15598TIP3   OH268208   1.845   5.047   5.889 -0.4506  0.2294  0.1442
15598TIP3    H168209   1.888   4.967   5.920 -1.7084 -0.4335  0.2505
15598TIP3    H268210   1.761   5.048   5.935 -0.0956  2.1003  0.8254
15599TIP3   OH268211   0.898   6.547  15.180 -0.3531  0.1487 -0.6294
15599TIP3    H168212   0.940   6.565  15.264  0.6605 -1.2538 -0.8010
15599TIP3    H268213   0.814   6.593  15.185  0.1840  1.0266  0.6859
15600TIP3   OH268214   6.816   4.354   4.479 -0.5335  0.1512  0.4363
15600TIP3    H168215   6.743   4.392   4.528  1.3689  0.3235  3.3317
15600TIP3    H268216   6.876   4.427   4.464  0.1530 -0.4341  0.2544
15601TIP3   OH268217   6.364   0.885  15.208 -0.4374 -0.2756 -0.2898
15601TIP3    H168218   6.459   0.882  15.197 -0.4297 -0.8878 -0.0595
15601TIP3    H268219   6.329   0.880  15.119 -0.2863 -1.5959 -0.2951
15602TIP3   OH268220   6.427   0.170   4.283  0.3825 -0.3421  0.5832
15602TIP3    H168221   6.478   0.234   4.333 -1.6642  0.1617  2.1646
15602TIP3    H268222   6.409   0.100   4.346  0.7405 -1.4455 -0.5049
15603TIP3   OH268223   5.678   2.902   5.315  0.2847 -0.5189  0.2517
15603TIP3    H168224   5.599   2.917   5.264 -0.2042  1.6780  1.5360
15603TIP3    H268225   5.666   2.954   5.394  2.2487 -1.5596  1.3237
15604TIP3   OH268226   2.172   1.367  16.991  0.5446  0.6190  0.5465
15604TIP3    H168227   2.153   1.298  16.928  0.9917  1.0826 -0.1146
15604TIP3    H268228   2.091   1.418  16.996  0.7506  1.0599 -0.2902
15605TIP3   OH268229   4.759   4.993   1.226  0.1785 -0.0965  0.0145
15605TIP3    H168230   4.674   5.013   1.264  1.1131  0.7679  1.7459
15605TIP3    H268231   4.760   5.039   1.142 -1.6822 -1.5320 -0.8822
15606TIP3   OH268232   1.310   5.038  13.797 -0.7472  0.4193  0.1000
15606TIP3    H168233   1.289   5.131  13.786 -1.7909  0.0136 -1.5059
15606TIP3    H268234   1.347   5.033  13.886  0.1044  2.4831 -0.0741
15607TIP3   OH268235   3.753   5.157  12.253  0.8377  0.5153 -0.0745
15607TIP3    H168236   3.716   5.228  12.201 -0.0144  1.7220  2.0400
15607TIP3    H268237   3.680   5.098  12.270  0.9637  0.4318  0.1954
15608TIP3   OH268238   3.793   2.864  13.386  0.5244 -0.5644 -0.3220
15608TIP3    H168239   3.730   2.914  13.334  1.1297 -0.0334 -0.5596
15608TIP3    H268240   3.856   2.830  13.322  2.0454  1.2143  0.1546
15609TIP3   OH268241   6.722   5.524   4.087 -0.2224 -0.6646  0.7230
15609TIP3    H168242   6.812   5.546   4.114 -0.6111 -1.2444  2.6024
15609TIP3    H268243   6.671   5.601   4.110 -0.1017  0.0668 -1.2504
15610TIP3   OH268244   6.327   5.234   2.177  0.2740  0.5966 -0.2245
15610TIP3    H168245   6.337   5.292   2.253 -1.3412 -0.3278  0.7432
15610TIP3    H268246   6.300   5.150   2.214  2.2748 -0.7490 -1.6203
15611TIP3   OH268247   3.833   4.345  14.677 -0.1354 -0.1807  0.5276
15611TIP3    H168248   3.797   4.273  14.626 -0.7069 -0.2965  1.0752
15611TIP3    H268249   3.764   4.367  14.739  0.1941  0.5615  0.6471
15612TIP3   OH268250   2.114   5.146  11.758  0.2075 -0.5696 -0.1004
15612TIP3    H168251   2.113   5.227  11.808  0.4348 -0.9797  0.5743
15612TIP3    H268252   2.169   5.086  11.808 -1.0678 -1.6007  0.1412
15613TIP3   OH268253   5.115   4.566   3.173 -0.0064 -0.5635  0.4011
15613TIP3    H168254   5.050   4.505   3.139 -0.5877 -0.1953  0.8292
15613TIP3    H268255   5.071   4.651   3.172  0.4756 -0.3068  0.6620
15614TIP3   OH268256   2.996   3.454  16.515 -0.0788 -0.4963 -0.0695
15614TIP3    H168257   2.945   3.374  16.529 -0.2308 -0.9199 -2.5827
15614TIP3    H268258   3.048   3.436  16.437  0.1794  1.7180 -0.4717
15615TIP3   OH268259   0.496   3.886   1.298  0.0548  0.5142 -0.1065
15615TIP3    H168260   0.477   3.937   1.219 -1.2131  1.5402  0.8110
15615TIP3    H268261   0.410   3.866   1.334  0.5745 -1.2085  0.2495
15616TIP3   OH268262   1.416   2.642   3.740 -0.7267 -0.7485 -0.1594
15616TIP3    H168263   1.446   2.637   3.649 -1.3101 -0.8961 -0.3484
15616TIP3    H268264   1.484   2.595   3.789  0.2300  0.3916 -0.3428
15617TIP3   OH268265   2.641   0.574  15.545  0.3456  0.7470 -0.6503
15617TIP3    H168266   2.735   0.571  15.526  0.2121  0.6462 -1.3463
15617TIP3    H268267   2.626   0.664  15.575  1.2469 -0.1521  2.8680
15618TIP3   OH268268   0.230   1.565  11.511  0.5833 -0.3090 -0.4966
15618TIP3    H168269   0.206   1.552  11.603 -0.2740 -0.9458 -0.7985
15618TIP3    H268270   0.161   1.622  11.476 -0.1007 -1.5202 -1.1791
15619TIP3   OH268271   1.548   4.800  15.750  0.1395 -0.1297  0.2255
15619TIP3    H168272   1.492   4.763  15.682  0.6095  3.3213 -2.3422
15619TIP3    H268273   1.491   4.807  15.827 -1.1347 -2.0072 -0.4740
15620TIP3   OH268274   6.807   2.358  11.493  0.3074 -0.3042 -0.7423
15620TIP3    H168275   6.873   2.426  11.508 -0.5201  0.0314  1.9015
15620TIP3    H268276   6.742   2.400  11.436 -0.3622  1.3426  1.1180
15621TIP3   OH268277   1.861   2.736  16.492 -0.2180  0.4502  0.0837
15621TIP3    H168278   1.912   2.759  16.414 -0.6223 -1.5530 -0.8412
15621TIP3    H268279   1.925   2.728  16.562  0.0635  3.1076  0.2425
15622TIP3   OH268280   5.153   0.245  14.386 -0.4022 -0.5448  0.2863
15622TIP3    H168281   5.146   0.236  14.481  1.6412  0.5375  0.5945
15622TIP3    H268282   5.163   0.339  14.371 -0.2516 -0.7398 -0.9647
15623TIP3   OH268283   0.241   0.387   0.260 -0.0521  0.0713 -0.6161
15623TIP3    H168284   0.247   0.384   0.164  0.2038 -1.7635 -0.5715
15623TIP3    H268285   0.331   0.375   0.289 -0.1793  0.2808 -0.1368
15624TIP3   OH268286   0.778   5.868  14.183  0.6483 -0.1197  0.3529
15624TIP3    H168287   0.716   5.864  14.256 -1.4497 -0.0507 -1.3423
15624TIP3    H268288   0.825   5.785  14.188 -0.0682 -0.4916  1.2609
15625TIP3   OH268289   4.721   4.768  11.743  0.1643  0.2058 -0.1887
15625TIP3    H168290   4.750   4.819  11.667  0.2394  1.3198  0.5658
15625TIP3    H268291   4.678   4.832  11.800 -0.1159 -0.6588  0.6010
15626TIP3   OH268292   4.418   4.288  15.053  0.7748  0.4629  0.4272
15626TIP3    H168293   4.365   4.230  14.999 -0.3921 -0.3187  2.3305
15626TIP3    H268294   4.508   4.272  15.025  0.2544 -0.3393 -0.8439
15627TIP3   OH268295   0.808   6.683  15.635  0.4207 -0.5347  0.0117
15627TIP3    H168296   0.781   6.594  15.657  1.0513 -1.1156 -1.4419
15627TIP3    H268297   0.727   6.727  15.609  0.3644 -1.2777 -1.1278
15628TIP3   OH268298   1.842   3.929   2.309 -0.2194 -0.6715  0.0386
15628TIP3    H168299   1.911   3.936   2.375  0.3624 -0.6673 -0.5579
15628TIP3    H268300   1.887   3.942   2.226 -0.9693 -0.5170 -0.3538
15629TIP3   OH268301   0.094   6.192   4.879  0.0819 -0.2937 -0.6127
15629TIP3    H168302   0.050   6.142   4.810  0.0003  0.7256 -1.3292
15629TIP3    H268303   0.037   6.268   4.893  0.7242  0.1319 -0.2814
15630TIP3   OH268304   6.215   5.419  15.938 -0.6420  0.5008 -0.1222
15630TIP3    H168305   6.199   5.350  16.002 -2.9781  0.3862 -0.7372
15630TIP3    H268306   6.311   5.421  15.928 -0.2923 -0.1878  2.5108
15631TIP3   OH268307   1.117   4.568   2.656 -0.6418  0.0146 -0.5506
15631TIP3    H168308   1.185   4.513   2.615 -0.2667 -0.7206  0.9763
15631TIP3    H268309   1.094   4.632   2.589  0.2982 -0.8258 -1.7194
15632TIP3   OH268310   0.185   1.305   5.828 -0.1565  0.2648 -0.3832
15632TIP3    H168311   0.107   1.289   5.881 -0.5282  2.6524 -0.1105
15632TIP3    H268312   0.152   1.317   5.739 -0.0967  1.0074 -0.3128
15633TIP3   OH268313   5.046   3.216   3.276  0.7522 -0.1679 -0.4533
15633TIP3    H168314   5.131   3.257   3.288  0.7733 -0.5039  0.6057
15633TIP3    H268315   4.994   3.283   3.231  0.3636  1.6372  2.4160
15634TIP3   OH268316   5.269   4.964  13.330 -0.2020  0.1505 -0.3022
15634TIP3    H168317   5.249   4.874  13.306  1.7645 -0.2262 -0.7220
15634TIP3    H268318   5.343   4.958  13.390 -2.3012  1.3393  2.6905
15635TIP3   OH268319   2.969   1.905  10.403  0.1690 -0.1943 -0.5748
15635TIP3    H168320   3.004   1.934  10.487  0.8383 -2.1392 -0.1381
15635TIP3    H268321   2.875   1.897  10.417 -0.0029  1.3222 -0.6204
15636TIP3   OH268322   0.907   4.458  15.039 -0.2236  0.7317 -0.3714
15636TIP3    H168323   0.841   4.467  14.971  1.6281 -1.8591 -2.7265
15636TIP3    H268324   0.981   4.511  15.008  0.2408  0.4715  0.2628
15637TIP3   OH268325   1.227   6.007  12.884 -0.0678  0.6181 -0.4083
15637TIP3    H168326   1.192   5.920  12.865  0.0663  0.3940  0.3573
15637TIP3    H268327   1.169   6.067  12.836 -2.0558  0.3296  1.4631
15638TIP3   OH268328   5.196   6.697  16.810  0.2869  0.5271 -0.2471
15638TIP3    H168329   5.106   6.709  16.780  0.0207 -0.3459  0.1946
15638TIP3    H268330   5.250   6.732  16.738 -0.3483 -1.1258 -1.5857
15639TIP3   OH268331   0.232   5.619  10.742  0.0135  0.4017 -0.0657
15639TIP3    H168332   0.181   5.672  10.681  0.9106 -1.4864 -2.6535
15639TIP3    H268333   0.226   5.530  10.706  2.8616 -0.3409  1.0489
15640TIP3   OH268334   5.229   4.840  16.770 -0.2958 -0.3199  0.8172
15640TIP3    H168335   5.323   4.831  16.786 -0.4124 -0.6459  1.3529
15640TIP3    H268336   5.189   4.779  16.832 -0.9330  0.9057  1.6349
15641TIP3   OH268337   4.870   3.096  12.700  0.1037 -0.0600 -0.3296
15641TIP3    H168338   4.809   3.143  12.757  0.4936  0.3410 -0.2305
15641TIP3    H268339   4.821   3.079  12.620 -1.5568 -3.5127  1.2337
15642TIP3   OH268340   4.411   4.070   3.290 -0.4763  0.4202  0.3922
15642TIP3    H168341   4.358   4.013   3.346 -0.8058  0.1511 -0.1818
15642TIP3    H268342   4.352   4.094   3.218  0.4935 -0.7974 -0.8621
15643TIP3   OH268343   0.819   1.294  13.132 -0.4898 -0.0185  0.2020
15643TIP3    H168344   0.776   1.379  13.142  1.6290  1.0407  0.8770
15643TIP3    H268345   0.878   1.306  13.058 -0.8375 -1.2359 -0.2997
15644TIP3   OH268346   6.134   2.237  16.432 -0.3566  0.3606  0.0177
15644TIP3    H168347   6.068   2.216  16.498 -0.3424 -1.1760 -0.4158
15644TIP3    H268348   6.109   2.324  16.399 -2.9238 -0.6792 -1.0196
15645TIP3   OH268349   2.023   2.643   1.643  0.2535  0.1624  0.1845
15645TIP3    H168350   2.028   2.623   1.737 -0.4005  0.6964  0.3421
15645TIP3    H268351   1.977   2.727   1.639  1.9115  1.0785 -0.5217
15646TIP3   OH268352   3.946   4.893  14.372 -0.1246 -0.3133 -0.0753
15646TIP3    H168353   3.931   4.918  14.463 -0.7922  0.4728 -0.3893
15646TIP3    H268354   3.873   4.835  14.350 -0.1059 -0.2923 -0.1955
15647TIP3   OH268355   3.419   5.382  11.434 -0.4350  1.1510  0.3964
15647TIP3    H168356   3.509   5.359  11.411 -1.0520 -0.6989 -0.3604
15647TIP3    H268357   3.406   5.346  11.522 -1.0726 -0.5375 -0.3589
15648TIP3   OH268358   5.446   3.710  16.068 -0.4529 -0.0811  0.0117
15648TIP3    H168359   5.442   3.781  16.132  1.5963  0.3715 -0.3169
15648TIP3    H268360   5.506   3.742  16.001 -2.3008 -0.6703 -2.0241
15649TIP3   OH268361   2.532   0.808  10.551 -0.4305  0.0108  0.5767
15649TIP3    H168362   2.592   0.848  10.614  0.5847 -0.9106  0.2274
15649TIP3    H268363   2.589   0.770  10.483 -1.4894  1.1209 -1.0061
15650TIP3   OH268364   5.816   6.434  13.501  0.1546 -0.0302 -0.2230
15650TIP3    H168365   5.839   6.526  13.487  0.1255  0.1669  0.9048
15650TIP3    H268366   5.725   6.427  13.472  0.9200 -0.3413 -2.7854
15651TIP3   OH268367   2.114   6.119  13.470 -0.0844  0.1974 -0.3350
15651TIP3    H168368   2.182   6.073  13.519  0.4697 -0.6280 -1.8218
15651TIP3    H268369   2.044   6.054  13.459 -1.6444  1.3148  2.0222
15652TIP3   OH268370   1.446   0.039   4.624  0.2599 -0.3960 -0.5329
15652TIP3    H168371   1.462  -0.050   4.594 -0.4282 -0.1189 -1.8121
15652TIP3    H268372   1.372   0.032   4.684  0.7607 -0.7836  0.0536
15653TIP3   OH268373   4.441   1.930  14.251  0.2866  0.4756  0.2905
15653TIP3    H168374   4.509   1.953  14.188  2.9210  0.2935  2.8980
15653TIP3    H268375   4.436   2.005  14.310 -1.0444  0.0203  0.8070
15654TIP3   OH268376   3.346   5.090  15.818  0.4539 -0.2828  0.6879
15654TIP3    H168377   3.431   5.063  15.852  1.1739  0.1678 -0.6585
15654TIP3    H268378   3.356   5.085  15.722 -0.5207  1.2589  0.4606
15655TIP3   OH268379   3.766   0.149   0.727 -0.0275 -0.2033 -0.0275
15655TIP3    H168380   3.718   0.220   0.685  1.2807  0.9425  0.3284
15655TIP3    H268381   3.811   0.104   0.656 -0.6889 -0.5540 -0.2305
15656TIP3   OH268382   1.022   2.186  10.828 -0.2231  0.0025  0.1980
15656TIP3    H168383   1.008   2.104  10.781 -1.2730  0.7720 -0.8932
15656TIP3    H268384   1.021   2.162  10.921 -1.8497 -1.0241 -0.0658
15657TIP3   OH268385   3.997   6.719   0.289  0.1288 -0.0179  0.1476
15657TIP3    H168386   4.057   6.644   0.292 -0.3794 -0.5067 -1.2381
15657TIP3    H268387   3.917   6.688   0.331  0.6724  0.5031  1.6248
15658TIP3   OH268388   5.177   4.728  11.237  0.1855  0.2859 -0.6574
15658TIP3    H168389   5.161   4.794  11.169 -1.0469 -0.5429 -1.2071
15658TIP3    H268390   5.115   4.658  11.217  2.0227 -1.4331 -0.5939
15659TIP3   OH268391   6.343   0.738  12.470  0.2323 -0.3305  0.3784
15659TIP3    H168392   6.248   0.731  12.466  0.2845 -0.8820 -0.0439
15659TIP3    H268393   6.375   0.676  12.404  0.8269  1.6544 -1.3059
15660TIP3   OH268394   6.358   2.869   2.232  0.2826  0.1354 -0.1226
15660TIP3    H168395   6.433   2.828   2.189  1.2801 -0.2701  1.8776
15660TIP3    H268396   6.300   2.796   2.255  1.6229 -0.2280  2.6045
15661TIP3   OH268397   6.033   2.658   3.287  0.2157 -0.0785  0.3667
15661TIP3    H168398   6.085   2.734   3.316 -0.1305  1.0679 -1.7964
15661TIP3    H268399   6.084   2.582   3.316  3.1352  0.9795 -1.5691
15662TIP3   OH268400   3.095   1.263   5.182  0.3963 -0.6604  0.8180
15662TIP3    H168401   3.167   1.282   5.122 -0.9739 -1.0524 -1.0283
15662TIP3    H268402   3.138   1.239   5.265  2.3895 -1.2381 -0.3309
15663TIP3   OH268403   2.377   0.723  11.433  0.2153  0.3320  0.9493
15663TIP3    H168404   2.411   0.808  11.404 -1.1324  0.0110 -1.8261
15663TIP3    H268405   2.443   0.692  11.496  1.4743  2.7559  0.9522
15664TIP3   OH268406   4.507   2.825  14.683 -0.4103  0.4711 -0.4986
15664TIP3    H168407   4.580   2.883  14.704  0.0443  0.3810 -1.7700
15664TIP3    H268408   4.486   2.844  14.592  1.2469 -2.8845 -1.7456
15665TIP3   OH268409   6.772   5.355  10.942 -0.0549 -0.0651 -0.5839
15665TIP3    H168410   6.738   5.389  10.859 -3.8044 -0.5266  0.5882
15665TIP3    H268411   6.739   5.415  11.008  1.3633 -0.6997  0.7604
15666TIP3   OH268412   0.388   5.876  11.132 -0.1359  0.0610  0.4977
15666TIP3    H168413   0.384   5.799  11.189  2.2445  0.3672  1.2067
15666TIP3    H268414   0.456   5.931  11.171  3.0961 -0.5691 -3.5012
15667TIP3   OH268415   2.789   3.269  13.573 -0.2881 -0.0025  0.3745
15667TIP3    H168416   2.835   3.186  13.558 -1.6301 -0.8669  0.7583
15667TIP3    H268417   2.822   3.299  13.658  1.6016  0.8732 -0.6276
15668TIP3   OH268418   1.223   1.504  12.539 -0.2269 -0.5428  0.1732
15668TIP3    H168419   1.202   1.469  12.626 -1.3225  2.5009  1.2834
15668TIP3    H268420   1.142   1.546  12.510 -0.0117 -1.8233 -2.5883
15669TIP3   OH268421   2.378   6.220  11.941  0.1339  0.1007 -0.4507
15669TIP3    H168422   2.371   6.126  11.925 -0.8374  0.1385 -0.3064
15669TIP3    H268423   2.287   6.251  11.940  0.2363  0.6304  1.9677
15670TIP3   OH268424   5.932   1.751  14.518 -0.7952  0.9747  0.3495
15670TIP3    H168425   5.872   1.751  14.443 -0.0616 -1.6410 -0.3251
15670TIP3    H268426   5.881   1.712  14.589  0.5475 -3.3905 -0.8058
15671TIP3   OH268427   5.313   3.809  11.567 -0.4945  0.4747  0.3406
15671TIP3    H168428   5.266   3.870  11.623  0.7916  0.8240  1.0792
15671TIP3    H268429   5.312   3.726  11.615 -0.8957  0.3100  0.0567
15672TIP3   OH268430   2.744   3.854  13.897  0.3041  0.1333 -0.0880
15672TIP3    H168431   2.673   3.790  13.892 -0.3168  0.6791  1.1862
15672TIP3    H268432   2.804   3.818  13.961 -0.2821  1.0061  0.9902
15673TIP3   OH268433   0.921   3.754   3.457  0.2750  0.4987  0.5889
15673TIP3    H168434   0.992   3.700   3.490  0.3041  0.5465  0.6047
15673TIP3    H268435   0.857   3.755   3.528 -0.7326 -1.3346 -0.2330
15674TIP3   OH268436   0.197   0.380  14.356 -0.1066 -0.2550  0.1929
15674TIP3    H168437   0.221   0.344  14.442  1.8227 -0.6932 -0.4783
15674TIP3    H268438   0.193   0.475  14.371  2.5653 -0.0853  0.3374
15675TIP3   OH268439   1.405   4.456  11.234  0.5838 -0.0549  0.6862
15675TIP3    H168440   1.478   4.446  11.173 -0.2967  0.1235 -0.4397
15675TIP3    H268441   1.375   4.546  11.221 -1.3300 -0.8312 -0.6374
15676TIP3   OH268442   1.726   5.835  10.785 -0.5045  0.1237  0.5639
15676TIP3    H168443   1.808   5.791  10.809 -0.8342 -0.7249  0.1858
15676TIP3    H268444   1.754   5.916  10.742  0.1276  0.1515  1.0148
15677TIP3   OH268445   0.255   3.856   4.149 -0.1526 -0.2737  0.0533
15677TIP3    H168446   0.261   3.771   4.104 -0.7646 -0.3695  0.1511
15677TIP3    H268447   0.186   3.903   4.103 -1.1440 -0.5636  1.1936
15678TIP3   OH268448   0.701   5.754  14.689  0.4315 -0.6895  0.2258
15678TIP3    H168449   0.628   5.738  14.748 -0.4264  2.2859  0.1117
15678TIP3    H268450   0.763   5.806  14.740  1.4853 -1.3423 -0.3441
15679TIP3   OH268451   6.640   1.500   1.934  0.4373 -0.6556 -0.1165
15679TIP3    H168452   6.571   1.541   1.882 -0.3730 -0.2502  1.2226
15679TIP3    H268453   6.621   1.406   1.929  0.0375 -0.5770 -0.0980
15680TIP3   OH268454   4.341   3.500   4.828 -0.0611  0.5914  0.0543
15680TIP3    H168455   4.300   3.511   4.914  0.3869  1.6504  0.1451
15680TIP3    H268456   4.422   3.452   4.846  0.4132  1.4845  0.3344
15681TIP3   OH268457   3.476   6.035   1.677  0.1576  0.1121  0.1207
15681TIP3    H168458   3.516   5.970   1.735 -0.2525  0.6956  1.0844
15681TIP3    H268459   3.382   6.030   1.696 -0.0911 -0.2837 -1.1291
15682TIP3   OH268460   4.356   6.362   5.603 -0.3341  0.1265  0.4464
15682TIP3    H168461   4.329   6.276   5.635 -0.0163  0.2879  1.1665
15682TIP3    H268462   4.366   6.415   5.682  0.7396  0.4586  0.1046
15683TIP3   OH268463   3.144   0.217  16.293  0.2981  0.2431  0.1573
15683TIP3    H168464   3.081   0.152  16.325  0.5818  0.0430  0.3092
15683TIP3    H268465   3.198   0.169  16.230  0.5808  0.3041  0.3537
15684TIP3   OH268466   0.058   0.336  13.732  0.0576 -0.1431 -0.4194
15684TIP3    H168467   0.049   0.430  13.741  0.2006 -0.1915  0.3301
15684TIP3    H268468   0.152   0.320  13.735  0.0025 -0.3750  0.2785
15685TIP3   OH268469   3.545   1.047   1.313 -0.0922 -0.5785  0.1852
15685TIP3    H168470   3.564   1.024   1.222  0.7549 -0.2792  0.2749
15685TIP3    H268471   3.461   1.092   1.309  0.0717 -0.3168 -0.4910
15686TIP3   OH268472   1.243   4.924   3.038 -0.1528 -0.1067  0.1323
15686TIP3    H168473   1.237   4.988   3.110  1.1957 -0.4713  0.5975
15686TIP3    H268474   1.205   4.844   3.075 -0.9310  0.1294 -0.1217
15687TIP3   OH268475   6.009   5.174  15.972  0.7659 -0.6628 -0.0994
15687TIP3    H168476   6.086   5.194  16.025 -0.1434  1.1452  0.6523
15687TIP3    H268477   5.951   5.249  15.986 -1.2048 -2.0415 -0.5081
15688TIP3   OH268478   2.618   0.761   3.233  0.3287 -0.4497 -0.1237
15688TIP3    H168479   2.545   0.754   3.171 -0.0811 -2.2813  0.5251
15688TIP3    H268480   2.602   0.845   3.278 -0.4818 -0.0621 -1.0825
15689TIP3   OH268481   0.634   1.983   3.979  0.1743  0.2160 -0.1955
15689TIP3    H168482   0.729   1.985   3.977  0.1845  0.4031  0.2678
15689TIP3    H268483   0.611   1.894   4.004  0.2343  0.2356 -0.0708
15690TIP3   OH268484   4.244   3.315  12.899  0.5374 -0.1122 -0.2512
15690TIP3    H168485   4.314   3.364  12.856  1.8451 -0.6315  1.2221
15690TIP3    H268486   4.178   3.381  12.919  1.5671  0.7847  0.2785
15691TIP3   OH268487   0.745   5.847   3.117  0.1001 -0.0660  0.2455
15691TIP3    H168488   0.673   5.861   3.178  0.0864 -0.8657  0.4349
15691TIP3    H268489   0.814   5.809   3.171  1.1248  1.7934  0.3142
15692TIP3   OH268490   3.317   6.311  11.208  0.1915 -0.5463  0.6149
15692TIP3    H168491   3.376   6.381  11.238  1.4113 -0.8535 -0.9516
15692TIP3    H268492   3.230   6.341  11.235  0.8716  0.7110  1.5481
15693TIP3   OH268493   1.454   3.477  14.117  0.5874  0.5261 -0.1256
15693TIP3    H168494   1.373   3.513  14.081  0.9764  1.0931 -0.4348
15693TIP3    H268495   1.425   3.428  14.195  0.1090  2.0075  0.6702
15694TIP3   OH268496   0.731   6.590  14.200  0.6886 -0.0509 -0.2182
15694TIP3    H168497   0.732   6.615  14.108  1.5549 -2.6671 -1.0168
15694TIP3    H268498   0.650   6.540  14.210  0.4549  0.4569  0.5504
15695TIP3   OH268499   3.401   4.186  15.610  0.1175 -0.0435 -0.0482
15695TIP3    H168500   3.347   4.152  15.681 -0.7923 -1.1852 -1.2423
15695TIP3    H268501   3.395   4.120  15.541  1.7652  0.5713 -0.8316
15696TIP3   OH268502   4.056   4.395  16.303 -0.4399 -0.6276  0.5723
15696TIP3    H168503   4.127   4.446  16.342 -0.6070 -0.6132  0.8608
15696TIP3    H268504   3.978   4.449  16.315 -0.1048  0.5659 -2.0629
15697TIP3   OH268505   6.167   3.884   5.400  0.7618  0.5271  0.0023
15697TIP3    H168506   6.151   3.878   5.306 -0.6961 -2.2450  0.3129
15697TIP3    H268507   6.196   3.796   5.425 -0.5576  0.6735  2.3814
15698TIP3   OH268508   1.171   1.116  11.441 -0.0616 -0.3395  0.2829
15698TIP3    H168509   1.123   1.082  11.516  0.3012 -0.8297  0.2950
15698TIP3    H268510   1.262   1.121  11.471  0.1387 -0.8437 -0.2217
15699TIP3   OH268511   2.446   3.650   1.415  0.3900  0.0308  0.3357
15699TIP3    H168512   2.365   3.605   1.391 -0.2240  0.2034  1.9976
15699TIP3    H268513   2.512   3.581   1.419 -0.1558 -0.4595  1.0967
15700TIP3   OH268514   5.935   6.203  16.205  0.1638  0.0592 -0.6869
15700TIP3    H168515   5.927   6.129  16.265 -2.0723  0.5113 -0.3516
15700TIP3    H268516   5.978   6.271  16.258  1.5625 -0.7141 -0.7779
15701TIP3   OH268517   6.448   4.495  13.665  0.5675  0.4784 -0.0306
15701TIP3    H168518   6.414   4.511  13.577 -0.2498  1.3194  0.4322
15701TIP3    H268519   6.372   4.499  13.722  0.9596 -0.8973  0.6451
15702TIP3   OH268520   2.359   1.079   3.892 -0.5231  0.1331 -0.3840
15702TIP3    H168521   2.278   1.130   3.887 -0.0140  1.0284  0.2616
15702TIP3    H268522   2.367   1.053   3.983  0.3798  0.8460 -0.2429
15703TIP3   OH268523   0.015   1.694  11.200 -0.1156  0.0872 -0.0729
15703TIP3    H168524   0.099   1.720  11.162 -0.7066  1.3113 -0.5768
15703TIP3    H268525  -0.023   1.635  11.136  1.2470 -2.1914  1.0908
15704TIP3   OH268526   3.659   2.256   3.565  0.3359 -0.2507  0.4386
15704TIP3    H168527   3.682   2.168   3.593  0.7222  0.2274  1.6744
15704TIP3    H268528   3.676   2.256   3.470  1.4596 -1.1398  0.6181
15705TIP3   OH268529   1.432   2.576  12.710 -0.3824  0.9634 -0.3038
15705TIP3    H168530   1.443   2.596  12.803 -0.9093  0.0560 -0.0329
15705TIP3    H268531   1.417   2.481  12.707  0.5265  0.8243 -1.3957
15706TIP3   OH268532   3.889   2.668  14.547 -0.4240  0.0132 -0.2095
15706TIP3    H168533   3.905   2.730  14.476  1.6962 -1.1574 -0.8541
15706TIP3    H268534   3.920   2.713  14.626  0.4323  0.0786 -0.5708
15707TIP3   OH268535   4.279   6.040   2.423 -0.5609 -0.1520 -0.2128
15707TIP3    H168536   4.185   6.055   2.413 -0.4311  1.0483  0.1981
15707TIP3    H268537   4.289   5.945   2.418 -2.3159 -0.7250  3.5752
15708TIP3   OH268538   0.202   0.360  15.140 -0.6107 -0.8407  0.4912
15708TIP3    H168539   0.177   0.446  15.174  0.7899  0.7024 -2.0808
15708TIP3    H268540   0.187   0.300  15.214 -0.9988  1.6723  2.6054
15709TIP3   OH268541   1.686   3.350   3.267  0.2047 -0.3082  0.2540
15709TIP3    H168542   1.711   3.262   3.239  2.6276  0.2201  0.6015
15709TIP3    H268543   1.763   3.385   3.311 -1.1883  1.4597  1.4769
15710TIP3   OH268544   5.643   1.061   3.417 -0.1734 -0.0519 -0.1532
15710TIP3    H168545   5.642   1.060   3.321  2.4421 -0.5925 -0.2290
15710TIP3    H268546   5.692   1.140   3.440 -2.0309  0.8888  0.8416
15711TIP3   OH268547   1.351   0.675   5.424 -0.4643 -0.4937 -0.6908
15711TIP3    H168548   1.336   0.739   5.494 -2.4737 -0.1885 -1.3383
15711TIP3    H268549   1.283   0.693   5.359  1.7054 -0.3273 -3.1023
15712TIP3   OH268550   5.011   4.676   3.489  0.2617  0.4144 -0.0129
15712TIP3    H168551   5.096   4.716   3.472  1.2565 -1.2205  0.8343
15712TIP3    H268552   4.954   4.749   3.513  1.4270  1.5310 -0.5287
15713TIP3   OH268553   2.446   4.079   0.524  0.7332 -0.1088 -0.0582
15713TIP3    H168554   2.477   3.995   0.490  0.3662  0.5006 -2.0284
15713TIP3    H268555   2.522   4.116   0.570  1.1044 -1.1886  0.2282
15714TIP3   OH268556   3.151   2.430  12.156 -0.2498 -0.3876 -0.2905
15714TIP3    H168557   3.177   2.523  12.158  1.7322 -0.8770 -0.8599
15714TIP3    H268558   3.136   2.408  12.247 -1.4955  0.6709 -0.2098
15715TIP3   OH268559   1.558   2.149  16.097  0.1373  0.2619 -0.0540
15715TIP3    H168560   1.643   2.140  16.139 -0.4388 -0.6288  0.9968
15715TIP3    H268561   1.511   2.069  16.122 -0.5916  0.1662 -1.6043
15716TIP3   OH268562   5.132   2.141   5.879 -0.0428  0.1178  0.1704
15716TIP3    H168563   5.126   2.081   5.953 -0.3880  0.0025  0.0534
15716TIP3    H268564   5.129   2.229   5.918 -0.8631  0.0600  0.2516
15717TIP3   OH268565   6.390   4.893  13.778  0.2711 -0.4408  0.6205
15717TIP3    H168566   6.485   4.880  13.779  0.3803  0.3199  1.2216
15717TIP3    H268567   6.359   4.837  13.707  1.1123 -1.0682  0.7226
15718TIP3   OH268568   5.297   3.440  13.535 -0.1886 -0.3644  0.2342
15718TIP3    H168569   5.380   3.392  13.543 -0.6186 -1.1245  0.2658
15718TIP3    H268570   5.317   3.528  13.565  0.7484 -0.3827 -0.2946
15719TIP3   OH268571   1.907   5.456   0.525  0.2568 -0.0551  0.1698
15719TIP3    H168572   1.947   5.405   0.454 -0.7455  0.0326 -0.4887
15719TIP3    H268573   1.857   5.392   0.575  0.1040  0.0577  0.1607
15720TIP3   OH268574   4.932   2.606   2.070  0.6206 -0.2820 -0.4037
15720TIP3    H168575   4.915   2.556   1.990  0.7462 -1.8403  0.4873
15720TIP3    H268576   5.028   2.607   2.078  0.5960 -1.4855  0.4757
15721TIP3   OH268577   5.088   6.600  14.404  0.1840 -0.0136 -0.3271
15721TIP3    H168578   5.134   6.545  14.342 -2.4488 -1.3156 -1.2814
15721TIP3    H268579   5.003   6.616  14.363 -0.6784  1.2801  1.8029
15722TIP3   OH268580   6.414   6.486   4.151  0.2808  0.2258 -0.2558
15722TIP3    H168581   6.340   6.425   4.147  0.7165 -0.3731  0.6274
15722TIP3    H268582   6.383   6.557   4.208 -0.0612  0.6136 -0.9144
15723TIP3   OH268583   1.073   0.240   3.639  0.1093 -0.4463  0.6765
15723TIP3    H168584   1.048   0.331   3.626 -0.1360 -0.5254  0.5974
15723TIP3    H268585   1.140   0.224   3.572  0.6925 -0.1121  1.1672
15724TIP3   OH268586   4.559   6.079  12.742 -0.0698  0.2250 -0.3707
15724TIP3    H168587   4.639   6.098  12.694  1.0283  1.6088  1.8660
15724TIP3    H268588   4.577   5.998  12.789 -0.2941  0.1148 -0.4701
15725TIP3   OH268589   0.777   1.460  12.682 -0.2925  0.2508  0.2106
15725TIP3    H168590   0.701   1.427  12.634 -0.0509  0.0852 -0.0554
15725TIP3    H268591   0.742   1.533  12.734 -1.0073 -0.8986  1.4225
15726TIP3   OH268592   0.758   2.638  15.374 -0.0908 -0.1487 -0.8011
15726TIP3    H168593   0.833   2.697  15.370  1.0456 -1.0128  3.0847
15726TIP3    H268594   0.788   2.557  15.335  0.5368 -0.0523 -0.5256
15727TIP3   OH268595   0.214   0.183   3.012 -0.2448 -0.1386 -0.0738
15727TIP3    H168596   0.139   0.139   3.053 -0.3539  0.4941  0.4102
15727TIP3    H268597   0.283   0.179   3.077  0.2181 -0.8937 -0.5950
15728TIP3   OH268598   1.480   3.533  12.599 -0.1685  0.3959 -0.3475
15728TIP3    H168599   1.430   3.454  12.623  0.3464  0.7044  1.9526
15728TIP3    H268600   1.565   3.522  12.643  0.2798  1.7624 -0.8217
15729TIP3   OH268601   4.372   4.267  13.644  0.1769  0.0977 -0.0210
15729TIP3    H168602   4.321   4.296  13.720 -2.2875 -2.4596 -0.5040
15729TIP3    H268603   4.420   4.190  13.675 -1.3827 -1.3931 -1.1023
15730TIP3   OH268604   3.186   4.060  16.823  0.5797 -0.1463  0.3049
15730TIP3    H168605   3.259   4.069  16.884  0.5093 -1.0076  0.5215
15730TIP3    H268606   3.119   4.119  16.857  0.8618  0.0260  0.5660
15731TIP3   OH268607   3.045   4.573  15.382 -0.1187 -0.2166  0.4669
15731TIP3    H168608   3.004   4.497  15.342  0.3084 -0.1826 -0.0440
15731TIP3    H268609   3.128   4.584  15.334 -0.2822  0.6998  0.3770
15732TIP3   OH268610   2.721   0.938  13.508  0.6883 -0.2774 -0.4063
15732TIP3    H168611   2.683   1.025  13.510 -3.6702 -1.9515  0.6502
15732TIP3    H268612   2.683   0.897  13.431  1.2870 -1.8013  0.0638
15733TIP3   OH268613   2.285   3.845  12.619 -0.6892 -0.7172  0.5787
15733TIP3    H168614   2.202   3.797  12.612 -0.9566 -0.4399  1.6517
15733TIP3    H268615   2.341   3.790  12.673  0.2078 -1.3556 -0.9141
15734TIP3   OH268616   2.183   6.335  16.880  0.0089  0.1319  0.0099
15734TIP3    H168617   2.095   6.309  16.909 -0.2854  0.1108 -0.8638
15734TIP3    H268618   2.239   6.318  16.956 -0.6993 -0.0915  0.4982
15735TIP3   OH268619   0.932   0.475   0.467 -0.2962  0.6274 -0.0935
15735TIP3    H168620   0.998   0.535   0.502  0.9309 -0.3718 -0.6001
15735TIP3    H268621   0.924   0.407   0.533  1.2674 -0.7159 -1.2202
15736TIP3   OH268622   1.311   2.204   4.963 -0.0202  0.1976  0.1925
15736TIP3    H168623   1.319   2.128   5.020 -0.5792  0.2500  0.3487
15736TIP3    H268624   1.364   2.272   5.005 -0.6030  0.3012  0.7689
15737TIP3   OH268625   6.072   4.750  16.633 -0.0414  0.1710  0.3054
15737TIP3    H168626   6.115   4.759  16.548 -0.2334  1.2975  0.3202
15737TIP3    H268627   6.116   4.814  16.689  1.2244 -1.6540  1.5497
15738TIP3   OH268628   4.460   5.504   2.300  0.3531 -0.2584  0.0131
15738TIP3    H168629   4.445   5.422   2.253  1.5961  0.0179 -0.9282
15738TIP3    H268630   4.528   5.483   2.364  1.1931  0.1865 -0.7144
15739TIP3   OH268631   5.876   6.736   4.965 -0.1344 -0.2709 -0.4398
15739TIP3    H168632   5.963   6.697   4.969  0.1079  0.1789 -1.1819
15739TIP3    H268633   5.876   6.803   5.033 -0.5305 -1.4892  0.7979
15740TIP3   OH268634   6.453   5.773  14.212  0.1259 -0.5118 -0.5087
15740TIP3    H168635   6.372   5.823  14.219  1.2932  1.3537  0.8330
15740TIP3    H268636   6.425   5.683  14.200 -2.1084  0.2846 -1.8723
15741TIP3   OH268637   1.952   6.358   3.636 -0.3026  0.1011  0.1549
15741TIP3    H168638   1.912   6.377   3.721 -2.6201  2.5733 -1.3277
15741TIP3    H268639   1.895   6.292   3.596  0.8047 -1.0870  0.4569
15742TIP3   OH268640   1.146   4.077   0.886  0.0931  0.1595  0.0754
15742TIP3    H168641   1.239   4.094   0.872 -0.4378  3.5336 -0.2310
15742TIP3    H268642   1.126   4.118   0.970 -1.7274  3.0996 -1.5784
15743TIP3   OH268643   6.745   4.241   4.877  0.4373  0.3256  0.0873
15743TIP3    H168644   6.700   4.313   4.834 -0.6915 -0.1807  0.3807
15743TIP3    H268645   6.734   4.257   4.970  1.1980  0.3869  0.1764
15744TIP3   OH268646   2.578   2.298  16.750  0.1329  0.0450 -0.5397
15744TIP3    H168647   2.510   2.236  16.724 -0.2671  0.9719 -1.7838
15744TIP3    H268648   2.548   2.333  16.834 -0.2486 -0.5490 -0.4293
15745TIP3   OH268649   1.052   3.762  13.463  0.0050  0.0920  0.0583
15745TIP3    H168650   1.049   3.827  13.533 -0.0264  0.7020 -0.4937
15745TIP3    H268651   1.042   3.678  13.507 -0.1445  0.4752  0.7669
15746TIP3   OH268652   3.775   3.501   2.364  0.0011  0.0572  0.1306
15746TIP3    H168653   3.812   3.588   2.350 -0.3549  0.1881 -0.0060
15746TIP3    H268654   3.724   3.509   2.445  0.1407 -0.0800  0.2326
15747TIP3   OH268655   6.573   6.162  16.170  0.7015 -0.1186 -0.3212
15747TIP3    H168656   6.570   6.076  16.212  0.4758 -0.2045 -0.5097
15747TIP3    H268657   6.562   6.225  16.242 -1.6298 -0.2994 -0.4415
15748TIP3   OH268658   1.203   1.491  12.796 -0.0470  0.2025  0.3803
15748TIP3    H168659   1.130   1.477  12.856 -1.3580 -1.3340 -1.4490
15748TIP3    H268660   1.275   1.519  12.852 -1.4451 -0.2648  2.5333
15749TIP3   OH268661   0.787   0.133   1.623 -0.2708  0.6393  0.0573
15749TIP3    H168662   0.705   0.112   1.579  1.2696 -3.4913 -1.3253
15749TIP3    H268663   0.798   0.228   1.610 -4.1215  1.1139 -0.7549
15750TIP3   OH268664   3.634   2.954  16.033  0.2117 -0.2340 -0.8553
15750TIP3    H168665   3.588   3.031  16.000  1.7013  1.0375 -0.1001
15750TIP3    H268666   3.619   2.956  16.127  0.3849 -0.7860 -0.8149
15751TIP3   OH268667   3.086   3.757  13.426  0.0404 -0.2439  0.1428
15751TIP3    H168668   3.045   3.840  13.452  0.9736  0.1211  0.4818
15751TIP3    H268669   3.066   3.698  13.499  1.0777  0.2584  0.8547
15752TIP3   OH268670   6.112   3.878   5.142  0.1571  0.6994  0.1506
15752TIP3    H168671   6.106   3.783   5.134 -0.2391  0.7611 -0.3403
15752TIP3    H268672   6.076   3.911   5.059 -1.8737  1.3401  1.2308
15753TIP3   OH268673   6.325   1.154  11.802  0.0956 -0.7154 -0.8158
15753TIP3    H168674   6.353   1.178  11.891 -0.3095  0.4822 -0.9900
15753TIP3    H268675   6.238   1.116  11.813  0.1281 -0.7509 -0.6816
15754TIP3   OH268676   0.469   3.235   3.587 -0.4484 -0.1411  0.2395
15754TIP3    H168677   0.425   3.316   3.560  0.6812 -0.2066 -2.0483
15754TIP3    H268678   0.398   3.175   3.610 -1.3418  1.0545  0.7067
15755TIP3   OH268679   4.122   6.605   0.652 -0.5412  0.6257  0.3860
15755TIP3    H168680   4.175   6.620   0.573  0.0895 -0.8718  0.4913
15755TIP3    H268681   4.047   6.554   0.620 -1.1606  1.4507  0.4928
15756TIP3   OH268682   4.965   5.130   0.137 -0.4712  0.1787  0.4392
15756TIP3    H168683   4.911   5.060   0.100  0.4787  0.5876 -1.9242
15756TIP3    H268684   4.918   5.211   0.115  0.0173  0.4254  0.2857
15757TIP3   OH268685   4.190   0.008  15.546 -0.0146 -0.5035 -0.1103
15757TIP3    H168686   4.219   0.095  15.574 -0.0210 -0.6154  0.2473
15757TIP3    H268687   4.151   0.022  15.460 -0.0999 -0.1365 -0.0135
15758TIP3   OH268688   3.308   6.626  14.403 -0.2111 -0.0229  0.9195
15758TIP3    H168689   3.282   6.534  14.408 -0.0473 -0.1792 -0.5987
15758TIP3    H268690   3.255   6.662  14.332  1.4349  0.4439 -0.1198
15759TIP3   OH268691   2.643   5.240   6.321  0.0297  0.4338  0.0811
15759TIP3    H168692   2.551   5.214   6.315 -0.1834  1.3087 -0.6017
15759TIP3    H268693   2.675   5.195   6.399 -0.7366 -0.5898 -0.1751
15760TIP3   OH268694   6.443   6.640  15.157  0.2541 -0.3263 -1.2025
15760TIP3    H168695   6.402   6.702  15.217 -0.2662  0.0635 -1.9418
15760TIP3    H268696   6.399   6.556  15.176  0.1185 -0.2130 -1.0140
15761TIP3   OH268697   4.745   1.164  10.443  0.0347  0.1937 -0.2215
15761TIP3    H168698   4.789   1.126  10.367  0.6502  0.6495 -0.1013
15761TIP3    H268699   4.783   1.119  10.518 -0.7200 -0.4031 -0.1817
15762TIP3   OH268700   5.510   3.006  16.228 -0.2105 -0.0196 -0.2967
15762TIP3    H168701   5.509   3.003  16.132  0.8302 -0.2590 -0.3129
15762TIP3    H268702   5.599   3.032  16.250 -0.4212 -0.0419  0.6155
15763TIP3   OH268703   0.479   0.749  15.761 -0.1935 -0.2726 -0.0499
15763TIP3    H168704   0.494   0.656  15.747 -1.4366 -0.4373 -0.3563
15763TIP3    H268705   0.498   0.762  15.854  1.0423 -0.5915 -0.2318
15764TIP3   OH268706   0.242   4.239  13.252  0.2642 -0.0423  0.3481
15764TIP3    H168707   0.243   4.322  13.300  1.0578  0.3031 -0.2333
15764TIP3    H268708   0.203   4.262  13.167  0.3330 -0.2977  0.2474
15765TIP3   OH268709   3.535   3.259   3.777 -0.2088 -0.4193  0.1967
15765TIP3    H168710   3.487   3.182   3.809  0.5737 -0.2980  1.7373
15765TIP3    H268711   3.549   3.241   3.684 -3.5618 -0.2804 -0.4614
15766TIP3   OH268712   4.536   6.066   5.801  0.1579  0.6801  0.3261
15766TIP3    H168713   4.573   6.116   5.874 -0.0038 -0.6872  1.3825
15766TIP3    H268714   4.493   5.991   5.842  1.4711 -1.0434 -1.2217
15767TIP3   OH268715   2.136   3.392   0.715 -0.5036 -0.0414  0.4914
15767TIP3    H168716   2.211   3.451   0.713  0.2041 -0.9331 -0.2626
15767TIP3    H268717   2.172   3.305   0.696 -1.3848 -0.8873  2.4000
15768TIP3   OH268718   0.581   4.267   2.321 -0.4518 -0.0965 -0.1163
15768TIP3    H168719   0.654   4.302   2.373  0.0593 -1.0772 -0.1467
15768TIP3    H268720   0.609   4.179   2.297 -0.6955  0.3143 -2.0424
15769TIP3   OH268721   2.417   5.329  14.239  0.1902  0.4038  0.2708
15769TIP3    H168722   2.385   5.282  14.316 -1.6667 -0.7744 -1.1217
15769TIP3    H268723   2.396   5.271  14.165  0.1579  2.3027 -1.2901
15770TIP3   OH268724   2.056   5.617   1.270  0.1149 -0.3421  0.2031
15770TIP3    H168725   2.146   5.584   1.270  0.8876  1.6297  0.7441
15770TIP3    H268726   2.008   5.555   1.325  0.6175 -2.5975 -1.7422
15771TIP3   OH268727   4.166   0.852  11.412  0.1627  0.2654 -0.5714
15771TIP3    H168728   4.117   0.817  11.486  1.6475 -0.3343  0.1693
15771TIP3    H268729   4.151   0.790  11.341  0.7729 -0.5599 -0.0004
15772TIP3   OH268730   0.934   2.736   1.644 -0.2789 -0.0592  0.0325
15772TIP3    H168731   0.861   2.786   1.681 -1.3294 -1.5202 -0.0080
15772TIP3    H268732   0.932   2.652   1.691  1.0550 -0.3223 -0.3406
15773TIP3   OH268733   4.369   3.705  11.676 -0.1989  0.1034 -0.9025
15773TIP3    H168734   4.361   3.745  11.762  2.8951  1.1218 -0.9529
15773TIP3    H268735   4.391   3.613  11.693  1.1138  0.4616 -0.5088
15774TIP3   OH268736   0.527   5.958   5.484  0.2558  0.0179 -0.1900
15774TIP3    H168737   0.597   5.935   5.545 -0.6150 -0.9347  0.4929
15774TIP3    H268738   0.522   5.885   5.423 -0.1208  0.0846 -0.2458
15775TIP3   OH268739   6.767   3.479   4.954  0.6552  0.8049 -0.5477
15775TIP3    H168740   6.749   3.431   5.035  3.5972  1.8180  0.8422
15775TIP3    H268741   6.694   3.455   4.896  0.4606 -3.0958  0.9713
15776TIP3   OH268742   0.135   5.632   1.244 -0.3508  0.6707  0.5313
15776TIP3    H168743   0.043   5.608   1.254 -0.2354  0.1772  0.3927
15776TIP3    H268744   0.142   5.662   1.153  0.0663 -1.2540 -0.1023
15777TIP3   OH268745   0.170   1.835   0.524  0.2493  0.0112  0.4588
15777TIP3    H168746   0.176   1.927   0.550  0.8720 -0.1529  0.9171
15777TIP3    H268747   0.077   1.813   0.534 -0.0032  0.7348 -0.1838
15778TIP3   OH268748   2.371   5.538   0.549  0.0142 -0.9960  0.1560
15778TIP3    H168749   2.277   5.527   0.567 -0.1515  0.4634  0.3133
15778TIP3    H268750   2.375   5.564   0.457 -0.0313  1.8356  0.8632
15779TIP3   OH268751   0.999   0.136   4.961  0.1691 -0.5251 -0.4211
15779TIP3    H168752   0.919   0.160   4.913  0.1412  0.3573  0.0599
15779TIP3    H268753   0.969   0.074   5.027 -0.6271  1.7549  1.5043
15780TIP3   OH268754   2.049   0.436   0.258 -0.0821  0.1295 -0.3247
15780TIP3    H168755   2.074   0.357   0.209  0.3781 -0.0504  0.1962
15780TIP3    H268756   2.116   0.500   0.234  0.9609 -0.3708  1.1194
15781TIP3   OH268757   1.511   4.830  16.928  0.4457  0.0520 -1.2594
15781TIP3    H168758   1.467   4.750  16.959 -0.2678  0.4499 -1.2220
15781TIP3    H268759   1.478   4.842  16.839  2.1636 -0.8508 -2.0698
15782TIP3   OH268760   2.894   6.551   1.511 -0.0662  0.0451  0.2638
15782TIP3    H168761   2.897   6.559   1.607  0.4818  1.4421  0.1528
15782TIP3    H268762   2.802   6.535   1.492 -0.1362 -0.5703  1.0347
15783TIP3   OH268763   0.208   4.749  11.477 -0.5248  0.4197  0.2896
15783TIP3    H168764   0.162   4.832  11.462 -1.1930 -0.0502 -0.2851
15783TIP3    H268765   0.140   4.682  11.475  0.2981 -0.4860 -2.2601
15784TIP3   OH268766   5.012   1.747   3.383 -0.0177  0.3962 -0.1882
15784TIP3    H168767   5.042   1.836   3.404 -0.6717  0.5352  0.1807
15784TIP3    H268768   5.006   1.747   3.287  0.6931  0.5078 -0.2432
15785TIP3   OH268769   0.684   6.210  11.763  0.1482  0.2081  0.2575
15785TIP3    H168770   0.743   6.177  11.695  1.8289  0.1937  1.6448
15785TIP3    H268771   0.717   6.298  11.783  0.9946 -0.5332  2.4292
15786TIP3   OH268772   2.151   4.922   1.202 -0.2729 -0.2178 -0.0049
15786TIP3    H168773   2.113   4.898   1.118  2.1410  0.2545 -1.2996
15786TIP3    H268774   2.103   5.001   1.228 -0.7133 -0.0790 -1.1785
15787TIP3   OH268775   2.949   6.464  16.872  0.0981  0.3169  0.3084
15787TIP3    H168776   3.006   6.541  16.880  2.1289 -1.0212 -0.3389
15787TIP3    H268777   2.938   6.452  16.778 -3.6327  2.0679  0.3441
15788TIP3   OH268778   0.685   2.947   4.163  0.2599 -0.1694  0.4875
15788TIP3    H168779   0.697   3.022   4.105  0.3836  0.2630  1.0650
15788TIP3    H268780   0.752   2.959   4.231  0.0370 -0.6031  0.7840
15789TIP3   OH268781   6.792   6.563   4.976 -0.1102  0.3743  0.4079
15789TIP3    H168782   6.737   6.504   4.924  0.9879  0.7601 -1.2322
15789TIP3    H268783   6.729   6.621   5.020 -1.0607  0.1015 -0.5497
15790TIP3   OH268784   4.068   6.288  13.644 -0.7577  0.7765 -0.0114
15790TIP3    H168785   4.048   6.198  13.669  1.5263  0.8246  2.2921
15790TIP3    H268786   3.982   6.332  13.644 -1.5665 -0.6333  2.1770
15791TIP3   OH268787   4.508   5.929  14.706 -0.2664  0.2254 -0.4969
15791TIP3    H168788   4.589   5.880  14.693  0.9036  1.5752  1.2242
15791TIP3    H268789   4.468   5.891  14.784 -0.6427  0.4053 -0.5941
15792TIP3   OH268790   1.466   1.402  15.558  0.5743 -0.1812 -0.2347
15792TIP3    H168791   1.446   1.404  15.465 -0.2491 -0.9779 -0.0910
15792TIP3    H268792   1.558   1.373  15.562  2.5832  4.9849 -0.9633
15793TIP3   OH268793   1.197   6.803  10.974 -0.4861  0.5896 -0.5078
15793TIP3    H168794   1.111   6.844  10.963 -0.6846  1.0120  1.9041
15793TIP3    H268795   1.253   6.873  11.008 -0.4768 -0.6471  2.3937
15794TIP3   OH268796   4.736   5.078  12.124  0.0700 -0.1710  0.3597
15794TIP3    H168797   4.789   5.125  12.188 -1.5170 -0.2643  1.8232
15794TIP3    H268798   4.665   5.038  12.176 -1.3626 -0.1558 -1.4662
15795TIP3   OH268799   2.423   1.926   5.355  0.3826  0.0601  0.6786
15795TIP3    H168800   2.352   1.973   5.399  0.1937  0.0531  0.3892
15795TIP3    H268801   2.437   1.976   5.274  0.9101  0.2329  0.8706
15796TIP3   OH268802   5.431   3.019  15.557 -0.3030 -0.5627  0.3108
15796TIP3    H168803   5.336   3.025  15.549 -0.4804 -0.5137  2.1540
15796TIP3    H268804   5.446   2.985  15.645  1.4062  0.4830  0.4674
15797TIP3   OH268805   6.615   3.289   2.249  0.1809 -0.6908  0.4971
15797TIP3    H168806   6.604   3.223   2.318  0.2876  0.1049  1.3005
15797TIP3    H268807   6.640   3.239   2.172  0.7982 -1.5428  1.2188
15798TIP3   OH268808   2.492   6.555  13.435 -0.1572 -0.2851 -0.2077
15798TIP3    H168809   2.554   6.482  13.430  0.2308 -0.0611  0.9813
15798TIP3    H268810   2.541   6.624  13.481 -1.0616  0.1299  0.1480
15799TIP3   OH268811   6.816   6.078   4.410  0.1458 -0.3509 -0.3498
15799TIP3    H168812   6.805   6.017   4.337  0.2312 -1.4032  0.4893
15799TIP3    H268813   6.866   6.028   4.475  0.4867  0.7251  0.2379
15800TIP3   OH268814   2.553   5.263   2.042 -0.1862 -0.5136  0.1996
15800TIP3    H168815   2.493   5.189   2.030 -0.4555 -0.2438 -0.1305
15800TIP3    H268816   2.512   5.334   1.993 -0.6838  0.2705  1.6968
15801TIP3   OH268817   3.653   2.405  10.707 -0.1117  0.3006  0.4030
15801TIP3    H168818   3.610   2.323  10.684  0.2955 -0.0337  0.8104
15801TIP3    H268819   3.719   2.380  10.772  1.8900  0.5178 -1.4261
15802TIP3   OH268820   1.648   4.160   3.279 -0.0685  0.0222  0.0229
15802TIP3    H168821   1.557   4.173   3.304  0.1445  0.4271  0.6048
15802TIP3    H268822   1.681   4.095   3.341  0.7287  1.7262  1.5121
15803TIP3   OH268823   2.728   3.688   1.227 -0.6337  0.6539  0.2501
15803TIP3    H168824   2.647   3.728   1.195  0.0628  0.8302 -1.3556
15803TIP3    H268825   2.722   3.597   1.199 -1.2391  0.0939  2.0438
15804TIP3   OH268826   5.428   1.216  16.684  0.6930  0.3884  0.2132
15804TIP3    H168827   5.520   1.220  16.660  1.6570  0.6667  3.4822
15804TIP3    H268828   5.419   1.136  16.736 -0.5715  1.0315  1.0554
15805TIP3   OH268829   4.015   3.516  15.636  1.2966  0.2778 -0.5741
15805TIP3    H168830   3.936   3.550  15.593  0.1074 -1.0799  0.4306
15805TIP3    H268831   3.987   3.498  15.726  2.6786 -0.5390 -0.2790
15806TIP3   OH268832   3.343   1.997  10.571  0.2255 -0.0802  0.0404
15806TIP3    H168833   3.248   1.990  10.560  0.1455  2.4223 -1.7568
15806TIP3    H268834   3.360   2.091  10.576  2.5818 -0.4886  0.9063
15807TIP3   OH268835   4.226   5.040  13.187  0.4856 -0.4763 -0.3946
15807TIP3    H168836   4.211   5.134  13.175  2.1418 -0.3397 -1.9312
15807TIP3    H268837   4.293   5.035  13.255 -1.1844 -0.7112  1.3060
15808TIP3   OH268838   2.324   3.839   5.666 -0.2215 -0.1869  0.2965
15808TIP3    H168839   2.333   3.914   5.608 -1.2286 -0.4518 -0.2150
15808TIP3    H268840   2.243   3.796   5.639  0.0232 -1.1215  0.9727
15809TIP3   OH268841   3.435   0.338   1.078 -0.4936 -0.1208 -0.1376
15809TIP3    H168842   3.377   0.332   1.153  1.7206 -0.9555  1.6130
15809TIP3    H268843   3.424   0.255   1.031 -0.7479 -0.2546  0.1625
15810TIP3   OH268844   1.590   4.773   4.216  0.0462 -0.0300 -0.3298
15810TIP3    H168845   1.540   4.722   4.152 -1.1475  1.7967 -0.9222
15810TIP3    H268846   1.657   4.818   4.164  0.5058 -0.2728  0.0493
15811TIP3   OH268847   5.341   0.951   3.557  0.0574 -0.0632 -0.2961
15811TIP3    H168848   5.249   0.922   3.556  0.4410 -1.3333 -0.1825
15811TIP3    H268849   5.383   0.900   3.488  0.5581  0.9910 -0.7967
15812TIP3   OH268850   6.296   1.989   1.147 -0.1560 -0.8514 -0.5791
15812TIP3    H168851   6.314   1.998   1.054  0.7218 -0.8682 -0.4194
15812TIP3    H268852   6.229   2.055   1.166 -0.5264 -1.0305 -1.2709
15813TIP3   OH268853   3.768   0.745   0.143  0.4248  0.0016 -0.0738
15813TIP3    H168854   3.735   0.659   0.116 -0.5337  1.2686 -3.3340
15813TIP3    H268855   3.708   0.808   0.104  1.6813  2.2476  1.3731
15814TIP3   OH268856   6.801   4.666   0.572  0.0281  0.3635  0.1165
15814TIP3    H168857   6.824   4.756   0.592 -1.1162  0.7985 -0.4122
15814TIP3    H268858   6.847   4.614   0.637 -0.7251  1.4715  1.5988
15815TIP3   OH268859   0.691   1.669   4.391  0.3511  0.0210 -0.0164
15815TIP3    H168860   0.612   1.667   4.444 -0.6829  0.1491 -1.4923
15815TIP3    H268861   0.739   1.590   4.417 -0.4709 -0.2970  0.5786
15816TIP3   OH268862   3.293   3.970  15.772 -0.1907 -0.1587 -0.0620
15816TIP3    H168863   3.220   3.944  15.716 -0.5190 -0.7158  0.6184
15816TIP3    H268864   3.255   3.976  15.860 -0.0140  2.1005 -0.0907
15817TIP3   OH268865   1.639   1.810   5.586 -0.1431  0.4471  0.2601
15817TIP3    H168866   1.571   1.766   5.637 -2.1192  2.0476 -0.8573
15817TIP3    H268867   1.636   1.767   5.500 -0.1607  0.9098  0.0280
15818TIP3   OH268868   0.850   4.645   4.438 -0.5026 -0.3251 -0.7316
15818TIP3    H168869   0.936   4.604   4.435 -0.3411 -0.1384  0.8667
15818TIP3    H268870   0.790   4.578   4.404  0.1086 -0.9064 -0.6798
15819TIP3   OH268871   3.504   3.436  10.550 -0.3398  0.2313  0.3699
15819TIP3    H168872   3.484   3.457  10.459 -0.6879 -1.1742  0.0928
15819TIP3    H268873   3.529   3.343  10.548 -2.5662 -0.4928  2.0102
15820TIP3   OH268874   6.645   2.048   5.761  0.1726 -0.3357  0.2520
15820TIP3    H168875   6.712   2.116   5.766  0.4893 -0.6295  0.0846
15820TIP3    H268876   6.678   1.987   5.695 -0.6769 -0.0342 -0.4712
15821TIP3   OH268877   6.666   3.448  13.119 -0.0004  0.5825  0.7328
15821TIP3    H168878   6.711   3.375  13.161 -0.8945  0.3591  1.3443
15821TIP3    H268879   6.655   3.421  13.028 -0.2864 -0.0448  0.9450
15822TIP3   OH268880   3.930   3.379  16.069  0.4122  0.8400  0.0263
15822TIP3    H168881   3.939   3.470  16.098 -0.6859  1.3672 -1.2033
15822TIP3    H268882   3.890   3.334  16.143  3.0798  0.7752  1.5678
15823TIP3   OH268883   3.078   3.969   3.985  0.4456  0.3052 -0.2628
15823TIP3    H168884   3.139   3.920   3.930  2.1105  0.1436  1.6073
15823TIP3    H268885   3.022   3.902   4.024 -0.6512  0.4096 -1.5526
15824TIP3   OH268886   3.902   3.005   4.072  0.2400  0.0844  0.8890
15824TIP3    H168887   3.925   2.912   4.076 -0.4265 -0.0871  0.8591
15824TIP3    H268888   3.860   3.023   4.156  0.8319  0.4926  1.1047
15825TIP3   OH268889   4.595   2.099   3.669  0.0358 -0.1163 -0.2365
15825TIP3    H168890   4.635   2.012   3.670 -2.5102 -1.4301  2.6933
15825TIP3    H268891   4.636   2.145   3.742 -1.8577 -0.6174  1.2216
15826TIP3   OH268892   6.091   5.880  15.432 -0.0655 -0.2761  0.5748
15826TIP3    H168893   6.020   5.830  15.392  0.1438 -1.3140  1.4298
15826TIP3    H268894   6.133   5.818  15.491  2.1184  0.0577 -0.5512
15827TIP3   OH268895   3.177   2.605  11.006 -0.0355  0.0170 -0.0158
15827TIP3    H168896   3.253   2.565  11.048 -0.8379 -0.3331  1.1763
15827TIP3    H268897   3.165   2.688  11.052 -1.7679 -1.0002  1.5350
15828TIP3   OH268898   0.078   4.422  14.468  0.0569 -0.2055  0.3020
15828TIP3    H168899   0.065   4.516  14.458  1.5781 -0.0562 -0.7300
15828TIP3    H268900   0.067   4.388  14.379  1.7040 -0.6609  0.2379
15829TIP3   OH268901   5.565   6.451   1.637 -0.2984 -0.0674  0.0207
15829TIP3    H168902   5.538   6.359   1.640 -0.6930  0.0518  0.1658
15829TIP3    H268903   5.655   6.448   1.603 -0.7004 -0.4263 -1.0653
15830TIP3   OH268904   3.584   4.937  12.779  0.3512 -0.3361 -0.3789
15830TIP3    H168905   3.537   4.915  12.859 -1.7723  0.0189 -1.4750
15830TIP3    H268906   3.598   5.031  12.784  1.1713 -0.4601  0.0131
15831TIP3   OH268907   4.171   4.369   3.496  0.8405 -0.2582  0.0969
15831TIP3    H168908   4.202   4.432   3.561 -2.0885  2.1306 -0.6242
15831TIP3    H268909   4.192   4.409   3.412 -0.0852 -0.7612 -0.3859
15832TIP3   OH268910   1.370   0.594   4.790  0.0716  0.4557  0.0933
15832TIP3    H168911   1.413   0.626   4.869 -0.0591  2.9662 -0.7587
15832TIP3    H268912   1.387   0.500   4.789  0.9537  0.5293  2.5325
15833TIP3   OH268913   6.764   5.786   5.125 -0.0983 -0.4532 -1.0517
15833TIP3    H168914   6.680   5.823   5.099 -0.5336  1.2758  2.3020
15833TIP3    H268915   6.827   5.857   5.115  0.6400 -1.1725 -1.7486
15834TIP3   OH268916   2.525   5.576  11.342  0.0457 -0.4686 -0.6075
15834TIP3    H168917   2.527   5.512  11.413  1.4715  1.2091  0.9786
15834TIP3    H268918   2.432   5.586  11.321 -0.2519 -2.6304 -0.5785
15835TIP3   OH268919   5.303   5.861  16.350  0.0670  0.0560 -0.1773
15835TIP3    H168920   5.286   5.862  16.445  0.6788  0.4682 -0.0722
15835TIP3    H268921   5.360   5.785  16.337 -0.8386 -0.6082 -0.3648
15836TIP3   OH268922   2.809   1.540  16.054  0.0528  0.4622 -0.0793
15836TIP3    H168923   2.829   1.451  16.084 -1.0776  0.3156  0.2796
15836TIP3    H268924   2.809   1.533  15.959  0.2457  0.1400 -0.0607
15837TIP3   OH268925   0.415   2.956  13.042 -0.1755  0.0641 -0.6343
15837TIP3    H168926   0.348   2.961  12.974 -0.2391  0.6123 -0.5314
15837TIP3    H268927   0.487   3.009  13.009 -0.4436  0.8419 -0.0120
15838TIP3   OH268928   4.020   1.325  14.656 -0.0237  0.2403  0.5050
15838TIP3    H168929   4.049   1.257  14.595 -1.0743 -0.8598  1.1913
15838TIP3    H268930   3.998   1.400  14.599 -3.3341 -1.5453 -0.8523
15839TIP3   OH268931   1.743   1.663   4.379 -0.3531  0.0014 -0.1816
15839TIP3    H168932   1.723   1.732   4.315 -0.1033 -0.3718 -0.6729
15839TIP3    H268933   1.830   1.686   4.412 -0.6007  0.3496  0.2394
15840TIP3   OH268934   1.747   1.228   3.049 -0.2053  0.4781  0.4050
15840TIP3    H168935   1.745   1.197   3.140 -0.5873  1.2123  0.6611
15840TIP3    H268936   1.771   1.152   2.998 -0.3820 -0.0492  1.0896
15841TIP3   OH268937   1.836   2.079  12.713  0.1679  0.5483 -0.1838
15841TIP3    H168938   1.894   2.114  12.645 -0.1003  0.0455 -0.6851
15841TIP3    H268939   1.774   2.150  12.730  0.4115  0.7812 -0.2549
15842TIP3   OH268940   0.859   1.343   5.175  0.1028  0.8947  0.4776
15842TIP3    H168941   0.811   1.286   5.115  3.1088 -1.7737  0.3351
15842TIP3    H268942   0.868   1.426   5.128 -0.0552 -0.1947 -1.5728
15843TIP3   OH268943   0.108   0.495  15.550  0.3000  0.1595  0.4766
15843TIP3    H168944   0.051   0.485  15.473  0.3215  1.7217  0.2357
15843TIP3    H268945   0.078   0.575  15.592  1.8414  0.6239  0.7582
15844TIP3   OH268946   3.355   1.934  14.492  0.5237  0.6590 -0.0211
15844TIP3    H168947   3.446   1.941  14.463  1.0992 -0.4256  1.3820
15844TIP3    H268948   3.360   1.888  14.576 -1.3562  0.2650 -0.0748
15845TIP3   OH268949   1.285   1.631  13.380 -0.0304 -0.3725  0.3416
15845TIP3    H168950   1.237   1.555  13.346  0.5616 -0.6780  0.1852
15845TIP3    H268951   1.372   1.598  13.400  0.0735  0.1458  0.7761
15846TIP3   OH268952   5.726   0.670  13.239 -0.3973 -0.8266 -0.2880
15846TIP3    H168953   5.686   0.667  13.326 -1.3463  0.3237 -0.6500
15846TIP3    H268954   5.651   0.672  13.179  0.2415 -1.0243 -1.1009
15847TIP3   OH268955   0.362   4.482   0.220  0.3308  0.3180  0.1507
15847TIP3    H168956   0.444   4.532   0.217 -0.0869  1.0273  0.3382
15847TIP3    H268957   0.339   4.480   0.313 -0.5750  1.3186 -0.0308
15848TIP3   OH268958   6.695   3.063  11.262 -0.6122 -0.4526 -0.4136
15848TIP3    H168959   6.685   2.998  11.331 -1.3729 -0.0414 -0.1222
15848TIP3    H268960   6.637   3.135  11.288  1.6332  1.1976  0.2885
15849TIP3   OH268961   0.044   3.690   1.923 -0.2602  0.3279  0.0448
15849TIP3    H168962  -0.035   3.676   1.976  0.2898 -0.4009  0.7102
15849TIP3    H268963   0.097   3.751   1.975 -0.5506  1.1381 -0.5916
15850TIP3   OH268964   1.016   3.506  12.917  0.3089 -0.0081 -0.7126
15850TIP3    H168965   1.019   3.417  12.954 -1.0415  0.1295 -0.1861
15850TIP3    H268966   1.049   3.562  12.988 -0.3963  0.0587 -0.4276
15851TIP3   OH268967   3.534   3.074   4.165  0.4801  0.2379  0.3780
15851TIP3    H168968   3.589   3.051   4.241  1.6843 -1.3110 -0.8674
15851TIP3    H268969   3.595   3.114   4.103  0.0041 -0.5864 -0.6490
15852TIP3   OH268970   6.069   3.835  11.508 -0.3486  0.3748  0.0001
15852TIP3    H168971   6.046   3.847  11.416  1.7283 -2.0436 -0.9386
15852TIP3    H268972   6.106   3.747  11.512 -0.4350  0.3755  3.1956
15853TIP3   OH268973   6.656   6.372  13.207 -0.0119 -0.1032  0.1168
15853TIP3    H168974   6.620   6.321  13.135  1.4563  0.7273 -1.2674
15853TIP3    H268975   6.750   6.359  13.201  0.1176 -0.9690  2.6753
15854TIP3   OH268976   3.259   0.326  11.506  0.2134  0.9946 -0.1473
15854TIP3    H168977   3.258   0.384  11.430 -3.2000 -0.8362 -1.7310
15854TIP3    H268978   3.187   0.357  11.561  1.0720  0.8037  1.1094
15855TIP3   OH268979   3.402   2.326  11.605  0.3752 -0.8256 -0.1365
15855TIP3    H168980   3.310   2.300  11.610  0.6104 -1.8637 -0.9099
15855TIP3    H268981   3.400   2.416  11.574 -0.3801 -0.9833 -0.5627
15856TIP3   OH268982   0.942   0.819   0.056 -0.2599 -0.0491  0.3950
15856TIP3    H168983   0.939   0.728   0.087  0.6942  0.0602  0.8444
15856TIP3    H268984   0.954   0.812  -0.038  0.3647 -0.4072  0.4896
15857TIP3   OH268985   5.021   5.872   5.575  0.0746 -0.0413  0.4088
15857TIP3    H168986   4.950   5.823   5.617  1.0374  0.1858  2.4259
15857TIP3    H268987   4.984   5.959   5.561 -0.2291 -0.0912  0.8817
15858TIP3   OH268988   0.427   4.912   6.359  0.8241 -0.4036  0.1689
15858TIP3    H168989   0.339   4.882   6.382  0.4136  0.6159 -0.0151
15858TIP3    H268990   0.467   4.837   6.314 -0.7370 -0.1865 -1.7342
15859TIP3   OH268991   6.461   3.769   4.776  0.2267  0.6817  0.4417
15859TIP3    H168992   6.399   3.698   4.759  1.9364 -0.5389 -1.1067
15859TIP3    H268993   6.514   3.738   4.849  2.8338 -1.0767 -1.9984
15860TIP3   OH268994   3.452   2.839   1.620 -0.1417  0.2020  0.3392
15860TIP3    H168995   3.534   2.887   1.626 -0.7063  1.2267  0.1763
15860TIP3    H268996   3.390   2.902   1.584 -0.5781 -1.0848 -1.2780
15861TIP3   OH268997   2.538   2.610  13.926 -0.0023  0.0373 -0.2737
15861TIP3    H168998   2.504   2.670  13.993 -2.3171 -1.2158 -0.2193
15861TIP3    H268999   2.579   2.668  13.861  1.7508  1.3232  1.8444
15862TIP3   OH269000   1.360   4.514  13.677 -0.1516  0.1505  0.7349
15862TIP3    H169001   1.359   4.609  13.664 -1.5915  0.4978  2.8344
15862TIP3    H269002   1.328   4.479  13.594  1.7202  1.3638 -0.5811
15863TIP3   OH269003   6.442   3.485  14.132  0.2176 -0.2167  0.8224
15863TIP3    H169004   6.460   3.396  14.162 -1.0226 -0.7397  0.0986
15863TIP3    H269005   6.416   3.532  14.211 -1.3906 -1.1296  0.8693
15864TIP3   OH269006   4.494   0.675  14.793  0.5550 -0.2626  0.1833
15864TIP3    H169007   4.543   0.755  14.808  3.0525 -1.9818  1.7937
15864TIP3    H269008   4.558   0.613  14.759 -0.8170 -2.2199  0.9849
15865TIP3   OH269009   0.573   2.984  11.536 -0.3612 -0.2837  0.1922
15865TIP3    H169010   0.538   3.018  11.618  1.3103  0.0214  0.8202
15865TIP3    H269011   0.667   3.003  11.540 -0.1687 -0.6606 -1.5983
15866TIP3   OH269012   4.797   5.167   0.702  0.3103  0.0070  0.6492
15866TIP3    H169013   4.892   5.166   0.717  0.1787 -0.2752  1.5063
15866TIP3    H269014   4.764   5.238   0.757 -0.1440 -0.8488  1.5232
15867TIP3   OH269015   0.117   2.852  12.568  0.3659 -0.0614 -0.2678
15867TIP3    H169016   0.050   2.793  12.533 -1.4394  2.2475 -0.9822
15867TIP3    H269017   0.120   2.831  12.661 -2.3128  0.5068  0.0507
15868TIP3   OH269018   0.343   5.401  14.052 -0.2503  0.7083 -0.0774
15868TIP3    H169019   0.290   5.338  14.099 -0.3701  2.0765  1.7384
15868TIP3    H269020   0.425   5.355  14.032 -1.3063 -0.7932 -1.1704
15869TIP3   OH269021   1.213   5.660   3.593  0.3243 -0.1466  0.1407
15869TIP3    H169022   1.172   5.578   3.566  1.6365 -0.6103 -0.5657
15869TIP3    H269023   1.191   5.722   3.524 -0.6978  0.1218  0.6926
15870TIP3   OH269024   0.405   2.894   0.683  0.3285 -0.5324 -0.2996
15870TIP3    H169025   0.353   2.974   0.686  1.3267  0.1373 -0.3230
15870TIP3    H269026   0.451   2.898   0.599  0.0073 -1.3975 -0.5394
15871TIP3   OH269027   2.005   0.429  15.896  0.4745 -0.6626 -0.2108
15871TIP3    H169028   2.004   0.417  15.991 -1.0455  0.4437 -0.0687
15871TIP3    H269029   1.964   0.514  15.881  1.4844 -0.4036 -1.8208
15872TIP3   OH269030   5.325   1.703  14.768  0.2887 -0.4613  0.0371
15872TIP3    H169031   5.313   1.707  14.673  1.2711  0.2337 -0.0715
15872TIP3    H269032   5.314   1.793  14.798 -0.7511 -0.7927  0.6910
15873TIP3   OH269033   4.524   5.265  12.463  0.4911  0.3804 -0.8708
15873TIP3    H169034   4.594   5.303  12.409  0.5090  0.7819 -0.5695
15873TIP3    H269035   4.472   5.341  12.491 -0.4214  0.0335 -1.5819
15874TIP3   OH269036   6.697   0.826  12.207 -0.3391  0.1841  0.2756
15874TIP3    H169037   6.681   0.801  12.116 -0.5555 -0.3445  0.4513
15874TIP3    H269038   6.781   0.873  12.205 -0.5607  0.5581 -0.2572
15875TIP3   OH269039   5.781   4.998   1.181  0.1189  0.0442  0.1597
15875TIP3    H169040   5.851   4.975   1.120  0.7506  2.6989 -0.2103
15875TIP3    H269041   5.715   5.042   1.127 -1.4760 -1.5636  0.6700
15876TIP3   OH269042   5.386   4.628  12.037  0.1213  0.2686  0.4992
15876TIP3    H169043   5.399   4.714  11.997 -1.5196 -0.2226 -1.2155
15876TIP3    H269044   5.382   4.568  11.963  0.0622 -1.1440  1.6093
15877TIP3   OH269045   4.410   3.102   4.014  0.0187 -0.3448  0.1309
15877TIP3    H169046   4.441   3.189   4.037  1.4598 -0.8440  0.1614
15877TIP3    H269047   4.447   3.085   3.927 -1.8887 -0.1674 -0.7884
15878TIP3   OH269048   2.651   0.995   6.499  0.3697 -0.3351  0.0804
15878TIP3    H169049   2.706   0.917   6.499  1.8843  0.6823 -0.0558
15878TIP3    H269050   2.654   1.026   6.408  0.3474  0.2430  0.2713
15879TIP3   OH269051   1.633   6.815   3.316 -0.9001  0.3147 -0.0697
15879TIP3    H169052   1.685   6.882   3.360  1.6033 -0.4162 -1.7292
15879TIP3    H269053   1.606   6.755   3.387  2.4936 -0.5114  0.6821
15880TIP3   OH269054   6.502   2.161   2.504  0.0218 -0.2192 -0.2807
15880TIP3    H169055   6.464   2.129   2.422 -0.4400 -1.6445  0.4520
15880TIP3    H269056   6.591   2.126   2.506  0.0852 -0.0582 -0.2482
15881TIP3   OH269057   1.610   0.356  12.582 -0.4452 -0.2429 -0.0495
15881TIP3    H169058   1.576   0.381  12.668  0.1378 -0.6034  0.2912
15881TIP3    H269059   1.532   0.349  12.527 -0.9013 -0.7933  0.6491
15882TIP3   OH269060   6.176   4.614  15.845 -1.2714 -0.5159  0.4364
15882TIP3    H169061   6.182   4.519  15.854 -0.3438 -0.3794  1.5541
15882TIP3    H269062   6.259   4.639  15.804 -1.3504 -0.1568  0.4933
15883TIP3   OH269063   6.150   0.193  15.105 -0.9508 -0.3204  0.5058
15883TIP3    H169064   6.085   0.244  15.153 -0.2080  0.3839  0.7939
15883TIP3    H269065   6.150   0.232  15.017  1.3233  1.8974  1.3578
15884TIP3   OH269066   5.193   5.856  11.477  0.0738 -0.5706  0.6931
15884TIP3    H169067   5.208   5.771  11.434 -1.1578 -0.4106 -0.1160
15884TIP3    H269068   5.108   5.847  11.519  0.5463 -0.1725  1.7819
15885TIP3   OH269069   4.386   0.446   0.875  0.0744  0.4553 -0.4560
15885TIP3    H169070   4.345   0.395   0.805 -3.4626 -0.3347  1.9475
15885TIP3    H269071   4.345   0.533   0.869  0.0894  0.5263  0.3167
15886TIP3   OH269072   6.096   4.674   2.616  0.1593  0.0420  0.3110
15886TIP3    H169073   6.130   4.751   2.571 -0.5246 -0.5846 -1.3558
15886TIP3    H269074   6.144   4.601   2.576 -1.5403 -0.6645 -0.5390
15887TIP3   OH269075   0.433   0.328   5.706 -0.5272 -0.4085 -0.3021
15887TIP3    H169076   0.526   0.328   5.684 -0.2956 -0.4907  0.6060
15887TIP3    H269077   0.409   0.420   5.711 -0.3996 -0.3793 -0.2011
15888TIP3   OH269078   3.958   0.876  16.127  0.4422  0.8256 -0.7165
15888TIP3    H169079   3.877   0.872  16.176  0.7024 -0.9291 -0.3837
15888TIP3    H269080   4.016   0.931  16.179 -0.6979  2.6283 -1.2727
15889TIP3   OH269081   5.515   3.566  12.451 -0.1256 -0.1083  0.2442
15889TIP3    H169082   5.560   3.571  12.366 -1.4410  0.8963 -0.4349
15889TIP3    H269083   5.489   3.475  12.459 -2.6522  0.2970 -1.9420
15890TIP3   OH269084   0.260   1.178  15.181  0.0265 -0.0700  0.0798
15890TIP3    H169085   0.253   1.085  15.206 -0.0242 -0.4266 -1.2040
15890TIP3    H269086   0.225   1.225  15.257 -0.4645 -1.1220  0.5384
15891TIP3   OH269087   3.628   6.649   3.817  0.1460  0.0166  0.0293
15891TIP3    H169088   3.571   6.613   3.749 -0.8528 -1.5518  1.6120
15891TIP3    H269089   3.716   6.619   3.793 -0.1398 -0.2288 -0.7467
15892TIP3   OH269090   0.010   5.468   3.780  0.2138  0.5082  0.5175
15892TIP3    H169091  -0.041   5.547   3.798 -1.1441  0.1436 -1.5019
15892TIP3    H269092  -0.045   5.416   3.722  1.9243 -1.0135  0.1776
15893TIP3   OH269093   0.790   6.710  13.661 -0.5740 -0.2244  0.2537
15893TIP3    H169094   0.710   6.709  13.607  0.0774 -2.9717 -0.8753
15893TIP3    H269095   0.826   6.797  13.649 -3.6344  1.3275  1.2593
15894TIP3   OH269096   5.137   0.182  14.688  0.1957 -0.5834 -0.2900
15894TIP3    H169097   5.099   0.095  14.678  1.8111 -1.3246 -0.3000
15894TIP3    H269098   5.217   0.167  14.739 -0.4015  1.1377  1.2698
15895TIP3   OH269099   0.227   6.060  15.077  0.1721  0.7140 -0.1382
15895TIP3    H169100   0.174   6.040  15.155 -0.3345  0.2044 -0.6066
15895TIP3    H269101   0.290   6.126  15.108 -0.7392  1.3434  0.4306
15896TIP3   OH269102   0.351   4.260   5.250  0.6054 -0.2687  0.4834
15896TIP3    H169103   0.441   4.293   5.250  0.5158  0.0351 -0.7915
15896TIP3    H269104   0.307   4.311   5.319  1.3941 -0.4324  1.1291
15897TIP3   OH269105   5.688   4.054  15.753 -0.0000 -0.4002 -0.0966
15897TIP3    H169106   5.641   4.016  15.828 -0.1700  1.0410  0.5552
15897TIP3    H269107   5.630   4.041  15.679 -0.2577 -0.9899  0.2003
15898TIP3   OH269108   3.135   0.550   4.289 -0.1020 -0.2395 -0.1560
15898TIP3    H169109   3.067   0.506   4.238  0.0369  0.9016 -1.3868
15898TIP3    H269110   3.204   0.569   4.225  0.5049  0.3777  0.6624
15899TIP3   OH269111   4.882   6.380   1.035 -0.0614  0.1030 -0.5242
15899TIP3    H169112   4.978   6.378   1.032 -0.1015 -1.6692 -2.5547
15899TIP3    H269113   4.858   6.464   0.994  0.5741  1.4348  1.6511
15900TIP3   OH269114   4.382   4.835   3.404  0.1843  0.0508  0.0375
15900TIP3    H169115   4.292   4.865   3.389  0.8006  1.3431 -1.4203
15900TIP3    H269116   4.391   4.832   3.499 -1.7242 -1.2348  0.2220
15901TIP3   OH269117   6.452   6.431  12.801 -0.0700  0.2224 -0.2020
15901TIP3    H169118   6.370   6.413  12.846  0.0241  2.3831  0.9488
15901TIP3    H269119   6.518   6.431  12.870  0.6513  0.0367 -0.8818
15902TIP3   OH269120   0.562   4.862  13.051 -0.5894  0.5043  0.4980
15902TIP3    H169121   0.503   4.918  13.001 -0.1965 -0.2779 -0.8887
15902TIP3    H269122   0.583   4.913  13.129 -2.0615  1.3217  0.3897
15903TIP3   OH269123   5.540   3.161  11.099  0.5318 -0.3963 -0.0342
15903TIP3    H169124   5.623   3.156  11.146  0.5575  0.0743 -0.0219
15903TIP3    H269125   5.492   3.231  11.143  0.0991 -0.7103  0.0016
15904TIP3   OH269126   1.289   3.528   1.793  0.0237 -0.6317  0.4670
15904TIP3    H169127   1.281   3.616   1.831  0.7367  0.3487 -1.5105
15904TIP3    H269128   1.378   3.500   1.814  0.2135 -0.3451  0.0622
15905TIP3   OH269129   1.503   3.339  15.848  0.3875 -0.5075 -0.3977
15905TIP3    H169130   1.595   3.332  15.826  0.6555  0.0528  0.5040
15905TIP3    H269131   1.500   3.325  15.943 -0.0965  2.2283  0.0810
15906TIP3   OH269132   6.793   2.736   1.730  0.2596 -0.3080 -0.1772
15906TIP3    H169133   6.827   2.654   1.694  0.2993 -0.9069  1.1309
15906TIP3    H269134   6.731   2.707   1.798  1.4292  0.7127  1.3871
15907TIP3   OH269135   3.569   1.343  13.955 -0.8174 -0.0811 -0.2666
15907TIP3    H169136   3.547   1.406  14.024  0.2966  1.5097 -1.3199
15907TIP3    H269137   3.536   1.382  13.875  1.2877 -0.0328 -1.1619
15908TIP3   OH269138   2.761   4.024   5.570 -0.0145 -0.1913  0.3343
15908TIP3    H169139   2.819   3.953   5.600 -1.6404 -1.7029  0.0438
15908TIP3    H269140   2.680   4.011   5.619 -0.4332  1.3445  0.0845
15909TIP3   OH269141   4.259   0.792  13.414  0.2960 -0.2453  0.2094
15909TIP3    H169142   4.223   0.743  13.340  0.2591  0.2610 -0.1151
15909TIP3    H269143   4.248   0.734  13.489  0.7499 -0.9522 -0.2599
15910TIP3   OH269144   1.917   4.175  15.447 -0.0041 -0.1715  0.2444
15910TIP3    H169145   1.927   4.081  15.460  1.1148  0.0575  1.2667
15910TIP3    H269146   2.005   4.205  15.424 -0.8339  0.2806 -2.7631
15911TIP3   OH269147   4.540   5.235   0.570  0.2998 -0.0392 -0.2022
15911TIP3    H169148   4.516   5.312   0.622  1.1447 -0.3398  0.6614
15911TIP3    H269149   4.634   5.224   0.586  0.1167 -1.4529 -0.0458
15912TIP3   OH269150   2.661   1.197   0.935 -0.6465  0.2273  0.3167
15912TIP3    H169151   2.619   1.193   1.020 -0.0720 -0.6269  0.5738
15912TIP3    H269152   2.706   1.112   0.926 -0.1618  0.5590 -0.5445
15913TIP3   OH269153   6.338   0.840   5.334 -0.0434  0.3902  0.4883
15913TIP3    H169154   6.304   0.918   5.378  0.6287  2.3726 -2.2493
15913TIP3    H269155   6.266   0.777   5.337 -0.7344  1.1785  2.4460
15914TIP3   OH269156   4.932   6.547   2.888 -0.2588  0.0882  0.1390
15914TIP3    H169157   5.026   6.554   2.906 -0.0609  0.9590 -1.0755
15914TIP3    H269158   4.891   6.607   2.951  0.0270 -0.0028  0.4138
15915TIP3   OH269159   0.643   5.258   0.368  0.2894 -0.4135  0.3400
15915TIP3    H169160   0.627   5.346   0.333  0.4959 -1.0261 -1.3979
15915TIP3    H269161   0.561   5.235   0.412 -0.7067 -0.2999 -1.3592
15916TIP3   OH269162   4.626   2.626   2.558 -0.9060  0.5075  0.4253
15916TIP3    H169163   4.592   2.582   2.480 -1.0031  0.4595  0.4959
15916TIP3    H269164   4.699   2.571   2.586  0.0853  1.2983 -0.4918
15917TIP3   OH269165   4.967   2.590   4.095 -0.1020  0.2952 -0.4342
15917TIP3    H169166   4.992   2.581   4.187  1.1236  1.6386 -0.6052
15917TIP3    H269167   4.933   2.680   4.088 -0.2167  0.1958 -1.2791
15918TIP3   OH269168   2.493   2.823   6.480  0.5116  0.5820 -0.0969
15918TIP3    H169169   2.537   2.755   6.429  0.8134  1.0902 -0.5263
15918TIP3    H269170   2.565   2.869   6.524  0.4294  1.4873 -0.8864
15919TIP3   OH269171   6.369   0.544  16.553  0.1814 -0.5925 -0.1062
15919TIP3    H169172   6.329   0.537  16.467  0.8132  0.1333 -0.4693
15919TIP3    H269173   6.325   0.478  16.606 -1.3065 -0.0101 -0.5664
15920TIP3   OH269174   2.247   5.851   0.654 -0.1545 -0.2031 -0.1738
15920TIP3    H169175   2.278   5.785   0.591  0.1202  0.8559 -1.1807
15920TIP3    H269176   2.236   5.802   0.736  0.0190 -1.5024 -0.8953
15921TIP3   OH269177   5.494   1.899  16.978 -0.2782  0.2881 -0.1809
15921TIP3    H169178   5.446   1.913  16.896  1.3134 -1.1301 -1.4498
15921TIP3    H269179   5.573   1.952  16.969 -0.6418  1.0374  0.9757
15922TIP3   OH269180   0.224   6.163  11.459  0.0520  0.0174  0.0017
15922TIP3    H169181   0.229   6.071  11.483 -0.2418 -0.0834 -0.3153
15922TIP3    H269182   0.134   6.175  11.429 -0.1690  0.6098  0.8568
15923TIP3   OH269183   4.347   2.235   0.564  0.2500 -0.4550 -0.0545
15923TIP3    H169184   4.398   2.313   0.584 -0.9292  0.0172  1.2531
15923TIP3    H269185   4.400   2.163   0.600  0.9887 -0.1993 -0.6034
15924TIP3   OH269186   0.269   3.450   4.266  0.0076 -0.2495 -0.4424
15924TIP3    H169187   0.245   3.471   4.357  2.8475  3.5406 -0.2663
15924TIP3    H269188   0.194   3.479   4.214 -1.1980 -1.4152  0.5781
15925TIP3   OH269189   2.576   1.981  15.798 -0.2068  0.2827  0.1922
15925TIP3    H169190   2.621   1.909  15.844 -2.8774 -1.8942 -0.3042
15925TIP3    H269191   2.570   2.051  15.863  0.6759 -0.7405  1.4287
15926TIP3   OH269192   5.119   0.142   3.131  0.3948 -0.1800  0.1224
15926TIP3    H169193   5.057   0.150   3.058 -0.6824  0.3315  1.0534
15926TIP3    H269194   5.132   0.231   3.162 -1.4924 -0.5851  2.3720
15927TIP3   OH269195   2.728   0.943   2.670  0.0738 -0.1536  0.3945
15927TIP3    H169196   2.756   1.032   2.689  1.0739 -0.3533 -0.0606
15927TIP3    H269197   2.639   0.952   2.634  0.6821  0.7915 -0.9648
15928TIP3   OH269198   4.746   0.210   3.858 -0.0113 -0.1087  0.5568
15928TIP3    H169199   4.743   0.114   3.853  1.7424 -0.1947  0.7796
15928TIP3    H269200   4.734   0.229   3.952  1.4441 -0.2166  0.7785
15929TIP3   OH269201   1.247   4.538  13.339 -0.0647 -0.2917  0.1556
15929TIP3    H169202   1.293   4.619  13.319  0.4496  0.2361  3.1110
15929TIP3    H269203   1.154   4.563  13.343  0.1205  0.2679  1.3662
15930TIP3   OH269204   6.215   3.693  12.807  0.4432 -0.8122  0.2559
15930TIP3    H169205   6.216   3.625  12.874  1.8741  0.7352  1.8850
15930TIP3    H269206   6.164   3.764  12.845 -1.5534 -1.0835 -1.6563
15931TIP3   OH269207   2.919   2.818   2.797 -0.4205 -0.1304  0.4581
15931TIP3    H169208   2.939   2.905   2.762 -0.2442 -0.8208 -1.2224
15931TIP3    H269209   2.885   2.769   2.723  1.1723 -2.0625  0.9208
15932TIP3   OH269210   5.033   3.560  16.118  0.4076 -0.3707 -0.1599
15932TIP3    H169211   5.110   3.506  16.135 -0.8938 -3.2244 -2.4848
15932TIP3    H269212   5.052   3.604  16.035  0.8524  1.7487  0.9923
15933TIP3   OH269213   5.415   3.515  11.609 -0.0508  0.0689 -0.1982
15933TIP3    H169214   5.505   3.487  11.593 -0.2593  0.0444 -1.4758
15933TIP3    H269215   5.363   3.435  11.603 -0.2021  0.1473  0.0784
15934TIP3   OH269216   0.191   3.623   2.562  0.2834 -0.0951 -0.2737
15934TIP3    H169217   0.151   3.588   2.642  0.4622  0.6327  0.1471
15934TIP3    H269218   0.121   3.625   2.498 -0.0248 -0.0844  0.0619
15935TIP3   OH269219   2.642   6.489   3.881 -0.3551 -0.4561 -0.6676
15935TIP3    H169220   2.564   6.544   3.885  0.1980  0.3311 -0.0920
15935TIP3    H269221   2.609   6.399   3.879 -1.2910 -0.2915  2.2109
15936TIP3   OH269222   6.640   3.651  12.160  0.1531 -0.6017  0.3945
15936TIP3    H169223   6.601   3.564  12.162 -2.0145  0.1422 -2.3907
15936TIP3    H269224   6.731   3.637  12.136 -0.9474 -2.0762 -3.5694
15937TIP3   OH269225   2.231   5.933  12.244  0.3968 -0.2825  0.4030
15937TIP3    H169226   2.257   5.987  12.319 -0.3731 -0.5223  0.8565
15937TIP3    H269227   2.313   5.915  12.198  0.6424  1.5101  0.0682
15938TIP3   OH269228   0.953   0.767  11.041 -0.0765  0.1793 -0.0462
15938TIP3    H169229   0.966   0.672  11.031 -1.6588 -0.4172  2.5307
15938TIP3    H269230   1.037   0.799  11.072 -0.6438 -1.2861  3.4991
15939TIP3   OH269231   1.714   0.555  16.752 -0.0008 -0.3019  0.1341
15939TIP3    H169232   1.760   0.503  16.686 -1.0644 -1.5931  0.3774
15939TIP3    H269233   1.752   0.528  16.835 -0.1159 -0.2189  0.2147
15940TIP3   OH269234   4.204   1.832  16.975 -0.0756 -0.0864 -0.2401
15940TIP3    H169235   4.219   1.892  17.049 -1.9269 -0.2826  0.3323
15940TIP3    H269236   4.142   1.878  16.919 -1.6295 -1.4602  0.2757
15941TIP3   OH269237   4.410   5.235   3.627 -0.4733  0.6939 -0.5012
15941TIP3    H169238   4.329   5.186   3.615 -1.2028  1.9818 -1.1114
15941TIP3    H269239   4.401   5.311   3.569  0.3598  1.8326  0.7855
15942TIP3   OH269240   4.861   4.803   2.774  0.7032 -0.6125 -0.0004
15942TIP3    H169241   4.952   4.824   2.795  0.6734 -1.6193  1.2844
15942TIP3    H269242   4.833   4.872   2.714  1.7591  0.7531  1.0161
15943TIP3   OH269243   5.727   1.318  14.102 -0.3839 -0.4904  0.6056
15943TIP3    H169244   5.786   1.302  14.176  1.3488 -0.1723 -0.6645
15943TIP3    H269245   5.738   1.241  14.046  0.0088  0.2980 -0.4065
15944TIP3   OH269246   4.578   0.742  13.430  0.0090  0.0934  0.5041
15944TIP3    H169247   4.544   0.720  13.517 -0.1484 -0.3711  0.3267
15944TIP3    H269248   4.585   0.658  13.385  1.0998  0.2157  0.4271
15945TIP3   OH269249   1.807   6.217   4.532  0.1783  0.1920 -0.0831
15945TIP3    H169250   1.747   6.146   4.507  0.7711  0.2508 -1.7943
15945TIP3    H269251   1.754   6.274   4.588 -0.8989 -0.5840 -0.2692
15946TIP3   OH269252   6.485   5.110  12.350  0.1807  0.3044  1.0514
15946TIP3    H169253   6.440   5.120  12.265 -0.1627  0.8237  1.2877
15946TIP3    H269254   6.567   5.158  12.340 -0.2103  1.0248  1.2651
15947TIP3   OH269255   4.340   1.561  16.520  0.2287  0.5665  0.1851
15947TIP3    H169256   4.349   1.607  16.437 -0.6136  0.5975  0.0963
15947TIP3    H269257   4.378   1.474  16.505  1.4085  1.0565  0.2153
15948TIP3   OH269258   4.824   2.853   5.102 -0.3440  0.6641  0.2771
15948TIP3    H169259   4.787   2.912   5.168 -0.3196  0.9799  0.0128
15948TIP3    H269260   4.918   2.866   5.110 -0.3558  1.0016 -0.0870
15949TIP3   OH269261   1.762   6.423   4.276 -0.1076 -0.4101 -0.4641
15949TIP3    H169262   1.810   6.489   4.326 -1.3128 -0.2553  0.5245
15949TIP3    H269263   1.823   6.350   4.269  0.8220  0.3507 -0.5585
15950TIP3   OH269264   0.653   1.532   1.561 -0.4148 -0.0141 -0.4710
15950TIP3    H169265   0.730   1.522   1.505  0.4507  2.0744  0.2229
15950TIP3    H269266   0.595   1.589   1.510  0.4456  2.0276  0.7083
15951TIP3   OH269267   0.133   1.574  15.177 -0.3267 -0.3340 -0.3718
15951TIP3    H169268   0.152   1.521  15.100  2.4684  2.1553 -1.5924
15951TIP3    H269269   0.142   1.513  15.251 -2.8096 -2.7226 -1.8428
15952TIP3   OH269270   3.125   1.677   2.886 -0.2603  0.4557  0.1361
15952TIP3    H169271   3.151   1.768   2.874 -1.1199  0.5977 -0.7844
15952TIP3    H269272   3.064   1.660   2.815  1.6093 -1.5348 -1.1365
15953TIP3   OH269273   0.162   2.770  16.571  0.6541 -0.4922 -0.0026
15953TIP3    H169274   0.156   2.730  16.485 -1.9359 -0.7828  0.2496
15953TIP3    H269275   0.182   2.862  16.554 -0.3369 -0.4378 -0.9571
15954TIP3   OH269276   5.485   3.756  15.376  0.3150  0.3498  0.0929
15954TIP3    H169277   5.431   3.748  15.454 -2.2622  0.0069 -1.6180
15954TIP3    H269278   5.526   3.669  15.366 -1.4131 -0.4606 -0.3121
15955TIP3   OH269279   4.533   5.672  10.812  0.0288  0.2053  0.2890
15955TIP3    H169280   4.472   5.739  10.778 -1.0600 -1.1643 -0.5665
15955TIP3    H269281   4.620   5.705  10.788 -0.6066  0.0084 -2.7546
15956TIP3   OH269282   6.683   0.556  13.216 -0.1170 -0.4103 -0.0099
15956TIP3    H169283   6.741   0.554  13.140  0.7715  0.8940  0.5918
15956TIP3    H269284   6.681   0.465  13.248  1.1923 -0.5817 -0.3531
15957TIP3   OH269285   6.675   5.007   4.781 -0.4238  0.2395  0.1021
15957TIP3    H169286   6.608   4.999   4.850 -0.6378 -1.3580 -0.2654
15957TIP3    H269287   6.726   4.927   4.787  1.3086  1.3033  0.1648
15958TIP3   OH269288   3.899   1.641  16.161 -0.4450  0.2165  0.6629
15958TIP3    H169289   3.855   1.708  16.213 -1.1100  0.7577 -0.5290
15958TIP3    H269290   3.838   1.624  16.089  0.8900  0.3042 -0.5393
15959TIP3   OH269291   2.275   4.073   6.519 -0.1016 -0.2330 -0.0537
15959TIP3    H169292   2.211   4.022   6.568 -0.5570 -1.7383 -2.0959
15959TIP3    H269293   2.226   4.110   6.446  1.0992 -0.5080 -1.0450
15960TIP3   OH269294   1.047   2.214  16.545  0.4014  0.4697 -0.4824
15960TIP3    H169295   1.096   2.139  16.510  0.5665  0.8317 -1.0358
15960TIP3    H269296   1.046   2.199  16.639  0.8076 -0.0096 -0.5446
15961TIP3   OH269297   4.464   0.090   4.515  0.5605  0.6103 -0.5520
15961TIP3    H169298   4.445   0.031   4.588 -0.4847  0.4572 -0.9275
15961TIP3    H269299   4.416   0.053   4.441  2.1029  0.4178 -1.4892
15962TIP3   OH269300   4.650   3.691   1.468 -1.0482 -0.3158  0.7578
15962TIP3    H169301   4.622   3.600   1.478 -1.9839 -0.0794  0.4339
15962TIP3    H269302   4.571   3.742   1.485 -1.2394  0.3331 -1.6728
15963TIP3   OH269303   4.337   6.387  15.360  0.0560 -0.6846 -0.0454
15963TIP3    H169304   4.374   6.350  15.280 -0.2893  0.1453 -0.6013
15963TIP3    H269305   4.334   6.481  15.344  0.7961 -0.4012  1.2928
15964TIP3   OH269306   2.002   2.879  16.011 -0.1993  0.0702  0.0120
15964TIP3    H169307   2.005   2.954  15.952 -0.6106 -1.0046 -1.4296
15964TIP3    H269308   2.087   2.837  15.999 -0.1230  0.0787  0.5187
15965TIP3   OH269309   6.065   4.282  15.336 -0.6143  0.4457 -0.6745
15965TIP3    H169310   5.972   4.271  15.359 -0.9610 -3.4956 -3.1283
15965TIP3    H269311   6.112   4.243  15.408 -0.8313  1.6233  0.1420
15966TIP3   OH269312   4.102   4.242  16.067 -0.2689 -0.0218  0.2689
15966TIP3    H169313   4.078   4.298  16.141 -2.1527  1.2786 -1.2125
15966TIP3    H269314   4.196   4.254  16.057 -0.1609  0.5633  1.8162
15967TIP3   OH269315   5.549   6.111   5.794 -0.0813 -0.1797  1.0020
15967TIP3    H169316   5.476   6.166   5.821 -0.5544 -1.1216  1.7271
15967TIP3    H269317   5.527   6.024   5.828  0.2604 -0.9996 -0.7578
15968TIP3   OH269318   3.996   3.222  13.513  0.0377  0.4672  0.0277
15968TIP3    H169319   3.937   3.146  13.509  0.3441  0.2262 -0.0296
15968TIP3    H269320   3.942   3.296  13.488 -0.0559  0.1353 -0.7942
15969TIP3   OH269321   6.285   0.336   2.093  0.0636 -0.1412 -0.2676
15969TIP3    H169322   6.252   0.403   2.153 -2.3854  0.0287 -1.6614
15969TIP3    H269323   6.245   0.255   2.123  0.8377 -0.5071 -0.1997
15970TIP3   OH269324   3.557   6.373   4.402  0.1158  0.0574 -1.1901
15970TIP3    H169325   3.508   6.391   4.322  1.8069  0.7426 -2.1255
15970TIP3    H269326   3.599   6.456   4.424 -1.3114  0.2531  1.1913
15971TIP3   OH269327   6.448   2.554   1.704  0.3243  0.1636 -0.3343
15971TIP3    H169328   6.407   2.625   1.753 -0.5614  0.4264 -1.4176
15971TIP3    H269329   6.508   2.514   1.766 -0.7652  0.4781  0.9769
15972TIP3   OH269330   1.583   4.681  14.672  0.2525 -0.3045  0.0118
15972TIP3    H169331   1.492   4.667  14.700  0.1320 -0.0509 -0.2518
15972TIP3    H269332   1.606   4.766  14.709  0.1773 -0.0857 -0.4340
15973TIP3   OH269333   4.720   1.344  16.221  0.1824  0.2439 -0.1031
15973TIP3    H169334   4.795   1.289  16.242 -2.4669 -3.2670  1.1783
15973TIP3    H269335   4.676   1.357  16.305 -0.0987  3.2565 -0.6193
15974TIP3   OH269336   3.696   2.317   3.314 -0.0500  0.4992  0.2907
15974TIP3    H169337   3.627   2.292   3.253 -0.3255  1.7185  0.0904
15974TIP3    H269338   3.720   2.406   3.289  0.9212  0.4512  0.9825
15975TIP3   OH269339   3.966   0.838  12.330  0.2154  0.4471 -0.0109
15975TIP3    H169340   3.976   0.769  12.264 -0.2663  0.1531  0.2241
15975TIP3    H269341   4.056   0.864  12.350  0.5950 -2.0114  1.8909
15976TIP3   OH269342   5.237   5.069  14.211 -0.9277  0.1121  0.5075
15976TIP3    H169343   5.277   5.145  14.169 -1.2729 -0.5176 -1.0114
15976TIP3    H269344   5.282   4.993  14.174 -4.1180 -0.7030 -2.1777
15977TIP3   OH269345   3.995   6.142   3.843  0.0072  0.7500 -0.4982
15977TIP3    H169346   3.972   6.235   3.846 -0.5883  0.6678 -1.8405
15977TIP3    H269347   3.953   6.104   3.920 -1.4170  1.2491 -0.9963
15978TIP3   OH269348   0.304   2.263  10.645  0.6884  0.3099 -0.3197
15978TIP3    H169349   0.237   2.225  10.702  0.5375  0.1575 -0.5942
15978TIP3    H269350   0.262   2.343  10.610  0.4473 -0.0650 -0.9052
15979TIP3   OH269351   1.214   3.707  13.056 -0.1699 -0.1872 -0.5981
15979TIP3    H169352   1.202   3.784  13.001  0.1684  0.0863 -0.2975
15979TIP3    H269353   1.284   3.658  13.015  0.5172  0.3377 -0.0759
15980TIP3   OH269354   3.032   6.352   4.126  0.6170 -0.5943 -0.6050
15980TIP3    H169355   2.978   6.370   4.050 -0.0829  0.8672  0.1807
15980TIP3    H269356   2.970   6.344   4.199  1.3571 -0.1826  0.0949
15981TIP3   OH269357   0.967   2.288   0.925  0.5423  0.7533  0.4791
15981TIP3    H169358   1.008   2.323   0.846 -2.4272 -0.4223 -1.7847
15981TIP3    H269359   0.927   2.364   0.967  0.6964  1.1601 -0.1040
15982TIP3   OH269360   3.878   4.808  15.624  0.0853 -0.4996  0.0611
15982TIP3    H169361   3.970   4.785  15.615  0.1476  0.2301 -1.5147
15982TIP3    H269362   3.877   4.882  15.685  0.7324  0.5491 -1.1618
15983TIP3   OH269363   5.814   1.791  13.422 -0.5076 -0.4638  0.1835
15983TIP3    H169364   5.875   1.833  13.362 -0.6286  0.0202  0.4030
15983TIP3    H269365   5.734   1.779  13.370 -1.1227  1.2990  0.6614
15984TIP3   OH269366   3.785   2.426  11.307 -0.0968  0.2876 -0.3547
15984TIP3    H169367   3.861   2.479  11.283  0.3297 -0.3851 -0.5258
15984TIP3    H269368   3.735   2.417  11.226 -0.7384  1.3175 -0.0867
15985TIP3   OH269369   1.845   1.207   3.778 -0.0432  0.1838  0.1150
15985TIP3    H169370   1.752   1.186   3.776 -0.1114  0.5125 -0.4609
15985TIP3    H269371   1.887   1.133   3.734 -0.1682  0.6542 -0.8265
15986TIP3   OH269372   1.431   0.190   1.444 -0.1420 -0.0916 -0.1051
15986TIP3    H169373   1.422   0.240   1.525  0.5398 -0.9033  0.4854
15986TIP3    H269374   1.466   0.253   1.381  1.8066 -0.0546  0.9298
15987TIP3   OH269375   0.445   2.935   3.862  0.1618 -0.2007 -0.8325
15987TIP3    H169376   0.407   2.850   3.839 -1.6999  0.1895  0.5197
15987TIP3    H269377   0.519   2.913   3.919 -0.6301 -0.9618 -0.0405
15988TIP3   OH269378   6.301   3.250   5.450  0.1578  0.5237 -0.5112
15988TIP3    H169379   6.208   3.271   5.441 -0.0611 -0.1516  0.0362
15988TIP3    H269380   6.332   3.236   5.361  0.2930  2.9704 -0.8940
15989TIP3   OH269381   5.155   3.293  16.484 -0.0457 -0.9462 -0.5691
15989TIP3    H169382   5.219   3.311  16.552  0.5053  2.4655 -1.7666
15989TIP3    H269383   5.196   3.226  16.429  2.1776  0.4857 -0.7863
15990TIP3   OH269384   4.413   2.786  13.200 -0.4360  0.0435  0.0288
15990TIP3    H169385   4.362   2.759  13.123  0.8605 -0.3249 -0.7520
15990TIP3    H269386   4.349   2.797  13.269 -1.6454  0.3216 -1.0980
15991TIP3   OH269387   4.204   4.526  12.151  0.1414  0.2437 -0.1662
15991TIP3    H169388   4.253   4.575  12.084  2.1089  0.4484  1.3244
15991TIP3    H269389   4.237   4.561  12.234 -1.2752 -0.9198  0.9247
15992TIP3   OH269390   1.322   2.498  12.412  0.0855 -0.2046 -0.2656
15992TIP3    H169391   1.240   2.451  12.396 -0.1864  0.5509 -1.1433
15992TIP3    H269392   1.370   2.491  12.330  0.4742  0.2163 -0.0760
15993TIP3   OH269393   6.503   4.823  10.746 -0.2218  0.4651 -0.3378
15993TIP3    H169394   6.419   4.810  10.791 -0.0732 -0.9386 -0.4360
15993TIP3    H269395   6.487   4.897  10.688 -1.0128  1.0215  0.5502
15994TIP3   OH269396   1.950   1.364   3.534 -0.6429  0.2850 -0.2191
15994TIP3    H169397   1.879   1.334   3.591 -0.3487 -1.1549 -0.5842
15994TIP3    H269398   1.934   1.458   3.525 -1.6768  0.2451  0.8546
15995TIP3   OH269399   2.632   3.672   5.613  0.2255 -0.4222 -0.2328
15995TIP3    H169400   2.682   3.707   5.538  0.8743 -0.3532  0.2270
15995TIP3    H269401   2.548   3.646   5.575  1.2216 -2.1732 -1.3804
15996TIP3   OH269402   3.496   6.626   0.354  0.1794  0.0390  0.0928
15996TIP3    H169403   3.510   6.628   0.259  0.7098 -0.2986  0.1577
15996TIP3    H269404   3.428   6.560   0.367 -1.2175  1.3788 -0.1945
15997TIP3   OH269405   4.824   2.392  15.392  0.3958  0.1200  0.0519
15997TIP3    H169406   4.829   2.298  15.409  0.9612  0.2084  0.4147
15997TIP3    H269407   4.912   2.415  15.362  0.0487  0.3935 -0.7947
15998TIP3   OH269408   0.526   0.609   2.892 -0.2455 -0.0430  0.5346
15998TIP3    H169409   0.517   0.549   2.818  0.8751 -0.3372  0.6180
15998TIP3    H269410   0.614   0.645   2.883 -0.8180  1.4476  0.6054
15999TIP3   OH269411   6.085   6.581   0.247  0.1024 -0.0968  0.0013
15999TIP3    H169412   6.129   6.498   0.265 -0.4332 -0.6500 -1.1538
15999TIP3    H269413   6.084   6.626   0.332  1.7092 -0.6165  0.3414
16000TIP3   OH269414   4.163   0.214   3.653 -0.3332 -0.1233  0.3495
16000TIP3    H169415   4.222   0.289   3.648 -0.3715 -0.1362 -0.7401
16000TIP3    H269416   4.122   0.221   3.739 -0.5504  1.2779  0.1592
16001TIP3   OH269417   5.233   4.660   2.687 -0.4414  0.0890 -0.5134
16001TIP3    H169418   5.181   4.602   2.743 -0.5851 -0.7612 -1.5008
16001TIP3    H269419   5.277   4.601   2.626  0.5330  0.9201 -0.6392
16002TIP3   OH269420   5.313   2.458  15.656 -0.2138 -0.7074 -0.4302
16002TIP3    H169421   5.223   2.444  15.624 -1.2687  1.9542  1.0601
16002TIP3    H269422   5.337   2.544  15.623  1.1875 -0.6878  0.5577
16003TIP3   OH269423   4.569   5.258   2.263 -0.6525  0.0014 -0.2269
16003TIP3    H169424   4.523   5.177   2.241  0.7306 -0.7642 -0.3978
16003TIP3    H269425   4.661   5.235   2.259 -0.2382  0.7828  2.8176
16004TIP3   OH269426   5.988   4.321  14.327  0.2915 -0.0696 -0.0083
16004TIP3    H169427   5.983   4.290  14.236  0.5000 -1.6751  0.4826
16004TIP3    H269428   5.910   4.374  14.339  0.0938 -0.1026 -1.0378
16005TIP3   OH269429   2.784   5.592   3.972 -0.1141 -0.1780 -0.2679
16005TIP3    H169430   2.816   5.599   4.062  2.4150 -1.1967 -0.9915
16005TIP3    H269431   2.838   5.653   3.923 -0.8087 -0.3406 -1.2599
16006TIP3   OH269432   6.245   0.222  16.168  0.0884  0.0944  0.5415
16006TIP3    H169433   6.329   0.222  16.121 -0.1289  0.0164  0.1476
16006TIP3    H269434   6.268   0.201  16.258  0.5168  0.2712  0.4772
16007TIP3   OH269435   2.980   3.869   5.277  0.0967  0.1508  0.0276
16007TIP3    H169436   2.985   3.858   5.372  2.2578 -3.1870 -0.3182
16007TIP3    H269437   2.933   3.952   5.265 -2.0070 -0.2570  3.9123
16008TIP3   OH269438   4.591   5.667   0.454 -0.3584 -0.4182  0.2037
16008TIP3    H169439   4.627   5.735   0.511 -1.1608  0.2678 -0.0919
16008TIP3    H269440   4.620   5.585   0.493  0.7754  0.0956  0.4645
16009TIP3   OH269441   4.848   0.841  14.613  0.0559  0.6350  0.5263
16009TIP3    H169442   4.862   0.832  14.518  1.1553  1.5343  0.5850
16009TIP3    H269443   4.913   0.906  14.641 -1.0554  1.2938  1.6969
16010TIP3   OH269444   6.801   6.466   4.340 -0.1109  0.0776  0.2200
16010TIP3    H169445   6.876   6.411   4.366  1.2511  1.4485 -0.6387
16010TIP3    H269446   6.743   6.407   4.293  0.9076 -0.8151  0.0487
16011TIP3   OH269447   0.497   4.693  14.596 -0.2568  0.0415  0.2674
16011TIP3    H169448   0.582   4.736  14.584  0.0281 -0.6483 -0.2533
16011TIP3    H269449   0.473   4.662  14.508 -3.3981  4.3870 -0.7462
16012TIP3   OH269450   4.834   4.594  15.003 -0.7375 -0.1852 -0.7691
16012TIP3    H169451   4.899   4.577  15.071 -1.6482 -2.1017 -0.3202
16012TIP3    H269452   4.750   4.599  15.050 -1.2228 -0.2369 -1.6082
16013TIP3   OH269453   4.444   1.342   4.226  0.1518  0.4554 -0.4623
16013TIP3    H169454   4.394   1.301   4.155 -2.0881  0.7258  0.8658
16013TIP3    H269455   4.383   1.347   4.299  2.0611  1.1284  1.1996
16014TIP3   OH269456   6.622   5.416  13.774  0.0061 -0.3249 -0.2066
16014TIP3    H169457   6.534   5.440  13.803  0.0785  0.3751 -0.5471
16014TIP3    H269458   6.649   5.487  13.716  1.4758  0.3483  1.2191
16015TIP3   OH269459   6.186   1.750  15.833  0.1601 -0.0309 -0.3060
16015TIP3    H169460   6.261   1.774  15.779 -0.1796 -0.7343 -1.1107
16015TIP3    H269461   6.110   1.788  15.788 -0.1625 -0.9182 -0.5406
16016TIP3   OH269462   2.299   0.161   2.927 -0.5343 -0.1722  0.3608
16016TIP3    H169463   2.275   0.123   3.012  1.5700  0.4546  1.3015
16016TIP3    H269464   2.305   0.255   2.944 -1.2585  0.0988 -0.8035
16017TIP3   OH269465   3.519   4.419   4.087  0.3885  0.2384  0.2851
16017TIP3    H169466   3.571   4.441   4.010  2.5726 -3.9925  0.2650
16017TIP3    H269467   3.446   4.367   4.053 -0.2002  0.6262  0.9059
16018TIP3   OH269468   2.760   5.439   6.005 -0.1332 -0.2596 -0.6784
16018TIP3    H169469   2.818   5.496   5.954 -0.3848  1.0982  0.4903
16018TIP3    H269470   2.672   5.464   5.978 -0.2734  0.5565  0.4634
16019TIP3   OH269471   5.666   0.602  15.663  0.3546  0.0792 -0.7097
16019TIP3    H169472   5.688   0.657  15.737  1.7359  0.3591 -1.3066
16019TIP3    H269473   5.590   0.551  15.692 -0.6732  1.9367  0.0225
16020TIP3   OH269474   4.512   4.320   4.888  0.1808 -0.0889 -0.0205
16020TIP3    H169475   4.486   4.245   4.942 -2.3615  0.1299 -0.8239
16020TIP3    H269476   4.490   4.397   4.941 -0.7271  0.0958 -0.6318
16021TIP3   OH269477   0.787   4.168   6.537  0.1495  0.4767  0.0709
16021TIP3    H169478   0.814   4.088   6.582 -0.0924 -0.0581 -0.7160
16021TIP3    H269479   0.849   4.179   6.466 -0.3515  0.4865 -0.3737
16022TIP3   OH269480   2.806   5.514   0.987 -0.3560  0.1515 -0.1791
16022TIP3    H169481   2.786   5.421   1.003 -0.5046  0.5059  2.0252
16022TIP3    H269482   2.881   5.513   0.927 -2.0435 -1.3115 -2.4584
16023TIP3   OH269483   5.130   0.300  11.898  0.4037  0.1439  0.8257
16023TIP3    H169484   5.047   0.345  11.882  0.4037 -0.0030  0.4041
16023TIP3    H269485   5.116   0.256  11.982 -0.6990 -1.5293 -0.1613
16024TIP3   OH269486   1.762   6.544   5.467  0.1356  0.3930  0.3626
16024TIP3    H169487   1.788   6.636   5.477 -0.1268  0.4770  0.2760
16024TIP3    H269488   1.812   6.497   5.534  0.4128  0.5721  0.2844
16025TIP3   OH269489   6.402   2.060   5.102  0.7106  0.1933  0.3063
16025TIP3    H169490   6.437   2.035   5.017  0.0362  0.0988  0.0502
16025TIP3    H269491   6.435   1.993   5.163 -0.0754 -0.6498 -0.1599
16026TIP3   OH269492   1.367   1.472   4.727 -0.6841 -0.0208 -0.4884
16026TIP3    H169493   1.392   1.563   4.740 -0.1694 -0.3126  0.6520
16026TIP3    H269494   1.314   1.449   4.803  1.0583 -1.3004  0.4163
16027TIP3   OH269495   1.584   6.236  15.008  0.1364 -0.4244 -0.6253
16027TIP3    H169496   1.644   6.252  15.080 -0.9938 -0.8307  0.4289
16027TIP3    H269497   1.558   6.324  14.979 -2.1753 -0.1590  1.8724
16028TIP3   OH269498   1.644   4.974  14.752 -0.0743 -0.2251 -0.7107
16028TIP3    H169499   1.593   5.021  14.818  0.8889  0.0782 -0.1542
16028TIP3    H269500   1.675   5.043  14.692 -0.5376 -0.4410 -1.2135
16029TIP3   OH269501   3.215   6.456  12.718  0.0909  0.3776  0.4762
16029TIP3    H169502   3.238   6.402  12.793  0.0668  0.4200  0.5151
16029TIP3    H269503   3.264   6.538  12.731 -0.0258  0.4404  0.5207
16030TIP3   OH269504   2.545   0.571  12.533  0.4064 -0.2446  0.3692
16030TIP3    H169505   2.627   0.592  12.488  0.1445  0.7069  0.3324
16030TIP3    H269506   2.477   0.581  12.467  0.1984 -0.5565  0.5286
16031TIP3   OH269507   5.691   0.273  13.275  0.3677 -0.5657 -0.3720
16031TIP3    H169508   5.783   0.282  13.248  0.1291 -1.6216 -1.6083
16031TIP3    H269509   5.671   0.181  13.262 -1.1744 -0.1492 -1.1382
16032TIP3   OH269510   2.311   2.574  14.800  0.2921  0.2963  0.3045
16032TIP3    H169511   2.392   2.621  14.822  2.2225 -1.0263 -3.1782
16032TIP3    H269512   2.333   2.523  14.722 -3.9520 -0.1836 -0.8386
16033TIP3   OH269513   4.115   5.660   3.016 -0.1787 -0.2644  0.0217
16033TIP3    H169514   4.088   5.708   2.939 -0.4711  0.1440  0.3721
16033TIP3    H269515   4.208   5.680   3.027  0.2043 -1.3945 -0.9893
16034TIP3   OH269516   5.198   2.815   4.069  0.3687 -0.5181 -0.7523
16034TIP3    H169517   5.206   2.880   3.999  1.5533 -0.7030 -0.8073
16034TIP3    H269518   5.266   2.750   4.050  0.2274 -0.9542  0.1695
16035TIP3   OH269519   1.613   4.405  13.781 -0.9525  0.1140  0.5699
16035TIP3    H169520   1.528   4.439  13.753 -0.3128  0.3115 -1.2935
16035TIP3    H269521   1.674   4.476  13.763 -0.2968 -0.2261  1.3873
16036TIP3   OH269522   1.979   0.590  12.990 -0.2498  0.0767 -0.0268
16036TIP3    H169523   1.922   0.637  12.929 -0.0168 -0.0651 -0.3528
16036TIP3    H269524   1.974   0.641  13.071  1.6781  1.9392 -0.9735
16037TIP3   OH269525   2.679   4.814  11.651 -0.7664  0.1696  0.2836
16037TIP3    H169526   2.669   4.719  11.654  0.2201  0.0696  2.8952
16037TIP3    H269527   2.589   4.847  11.642 -1.2334 -0.9720  0.5561
16038TIP3   OH269528   4.883   2.357   4.855  0.0755  0.2373 -0.5004
16038TIP3    H169529   4.806   2.375   4.801 -0.9893 -0.9612  0.5761
16038TIP3    H269530   4.923   2.443   4.870 -0.7220  0.8056 -1.5212
16039TIP3   OH269531   0.008   3.377   4.433 -0.1515  0.2253  0.2340
16039TIP3    H169532  -0.044   3.300   4.411 -0.6191  0.4459  0.5451
16039TIP3    H269533  -0.051   3.451   4.415 -0.1722  0.4537  1.1721
16040TIP3   OH269534   6.663   6.523  14.703  0.1837 -0.5481 -0.0076
16040TIP3    H169535   6.585   6.574  14.682 -0.0333 -0.4837  0.9052
16040TIP3    H269536   6.638   6.432  14.685 -0.7670 -0.7423  2.0371
16041TIP3   OH269537   5.065   5.267   5.611 -0.6607 -0.1399  0.3044
16041TIP3    H169538   4.998   5.323   5.649 -1.5866 -0.2580 -1.1094
16041TIP3    H269539   5.032   5.178   5.623 -0.4629 -0.2372  0.1323
16042TIP3   OH269540   1.890   0.678   0.092 -0.2285  0.3353 -0.3422
16042TIP3    H169541   1.891   0.670   0.187 -0.6376  2.0927 -0.1570
16042TIP3    H269542   1.979   0.705   0.070 -0.4735  1.2447 -0.2876
16043TIP3   OH269543   4.197   2.762  15.238 -0.5001 -0.4756 -0.3502
16043TIP3    H169544   4.207   2.792  15.329  1.1041 -0.0138 -0.6468
16043TIP3    H269545   4.118   2.806  15.207 -0.4243  0.2764  0.4773
16044TIP3   OH269546   3.326   4.657  15.448 -0.3812 -0.4462 -0.4901
16044TIP3    H169547   3.417   4.649  15.476 -0.3813 -2.7506 -0.9083
16044TIP3    H269548   3.275   4.657  15.529 -0.0610 -0.4156 -0.2896
16045TIP3   OH269549   5.182   5.140  16.820 -0.2252  0.2608  0.3081
16045TIP3    H169550   5.272   5.116  16.795 -0.8904  0.0854 -2.2980
16045TIP3    H269551   5.192   5.215  16.878  1.6540 -1.1488  1.9508
16046TIP3   OH269552   0.683   0.749   3.883  0.3085 -0.6051  0.3341
16046TIP3    H169553   0.627   0.748   3.805 -0.4331 -0.0225  0.8388
16046TIP3    H269554   0.693   0.842   3.903  0.0289 -0.7617  1.2463
16047TIP3   OH269555   6.263   4.875   4.313  0.1761  0.0913 -0.1702
16047TIP3    H169556   6.323   4.803   4.330 -0.9620 -0.5410  1.4418
16047TIP3    H269557   6.184   4.833   4.279  0.3384  0.8293 -1.5129
16048TIP3   OH269558   5.859   0.683   0.430 -0.3403  0.4571 -0.2763
16048TIP3    H169559   5.864   0.588   0.440 -1.8136  0.2804 -0.9965
16048TIP3    H269560   5.839   0.697   0.338 -3.2641  1.2820  0.3678
16049TIP3   OH269561   3.814   4.074   3.457 -0.4496 -0.1153  0.1783
16049TIP3    H169562   3.842   4.122   3.535  1.0050 -0.4822 -0.0786
16049TIP3    H269563   3.857   4.120   3.385  2.0324 -2.4225  0.0124
16050TIP3   OH269564   4.015   4.237   5.326  0.1173  0.3035  0.1580
16050TIP3    H169565   3.935   4.289   5.336 -0.6979 -1.0404  1.0408
16050TIP3    H269566   4.070   4.288   5.268 -1.8904  0.7364 -1.4963
16051TIP3   OH269567   3.890   6.221  16.031  0.8758  0.3848  0.1420
16051TIP3    H169568   3.870   6.239  15.939 -1.6953  0.0827  0.5638
16051TIP3    H269569   3.984   6.203  16.032  1.2109  1.5923 -2.2101
16052TIP3   OH269570   6.785   1.295  11.103 -0.1970  0.1714  0.9006
16052TIP3    H169571   6.691   1.283  11.095 -0.5467  2.1525  1.6016
16052TIP3    H269572   6.816   1.215  11.146 -1.7131 -0.0330  1.6649
16053TIP3   OH269573   0.041   1.048  11.808  0.5510 -0.5812  0.2033
16053TIP3    H169574   0.105   1.105  11.851 -1.0367  0.8693  0.7495
16053TIP3    H269575   0.001   1.103  11.741  0.7071 -1.8499 -0.9947
16054TIP3   OH269576   4.686   3.329  13.363 -0.3831  0.6200 -0.5991
16054TIP3    H169577   4.621   3.261  13.348  0.0733  0.2183 -0.7946
16054TIP3    H269578   4.646   3.409  13.331 -0.3382  0.1796 -1.7947
16055TIP3   OH269579   5.176   1.792  16.102 -0.1132 -0.1020  0.1379
16055TIP3    H169580   5.167   1.863  16.038  1.2546  0.4965  0.5689
16055TIP3    H269581   5.136   1.716  16.060 -2.2521  1.0538 -0.0689
16056TIP3   OH269582   2.740   0.610   6.416  0.3030 -0.0266 -0.0471
16056TIP3    H169583   2.813   0.672   6.414 -0.2726  0.7431  1.2673
16056TIP3    H269584   2.662   0.665   6.426 -0.3497 -0.9003 -0.2229
16057TIP3   OH269585   0.366   6.108   3.885  0.3190 -0.6207  0.2779
16057TIP3    H169586   0.408   6.180   3.931 -1.7207  1.1466 -0.4316
16057TIP3    H269587   0.335   6.050   3.955  1.2073 -0.3560  0.9055
16058TIP3   OH269588   0.209   1.017  15.999  0.1569 -0.1299  0.2257
16058TIP3    H169589   0.302   1.007  15.977  0.3737 -0.2531  1.1628
16058TIP3    H269590   0.183   1.099  15.957  1.1394  0.7995  1.3549
16059TIP3   OH269591   2.389   4.725   3.569  0.3344 -0.3508  0.3789
16059TIP3    H169592   2.401   4.805   3.620  2.4518 -0.2455 -0.2202
16059TIP3    H269593   2.400   4.753   3.478  1.6750 -1.4072  0.2017
16060TIP3   OH269594   3.234   4.571   3.815  0.3138  0.3866  0.5226
16060TIP3    H169595   3.280   4.628   3.876 -0.1132 -0.1329  1.3547
16060TIP3    H269596   3.145   4.564   3.851  0.3012 -0.6406  0.3472
16061TIP3   OH269597   1.473   0.576  13.639  0.2989  0.3099  0.6660
16061TIP3    H169598   1.413   0.633  13.687 -0.8786  0.3452 -0.7622
16061TIP3    H269599   1.527   0.536  13.706 -0.3132  1.4468  1.8842
16062TIP3   OH269600   6.455   2.856   3.110  0.2841  0.4154 -0.1582
16062TIP3    H169601   6.378   2.857   3.054  0.0307 -2.0846  0.0069
16062TIP3    H269602   6.426   2.814   3.191  2.3443 -3.6912 -1.2458
16063TIP3   OH269603   0.154   3.466  15.535 -0.1179 -0.2162  0.5438
16063TIP3    H169604   0.075   3.464  15.589 -1.0602  1.3300 -0.6732
16063TIP3    H269605   0.158   3.556  15.502  1.4602 -0.6097 -0.4423
16064TIP3   OH269606   4.697   3.878  12.221  0.3292  0.0987 -0.4798
16064TIP3    H169607   4.732   3.790  12.235 -0.5920 -0.0419  1.1803
16064TIP3    H269608   4.631   3.868  12.153 -1.6468 -1.0561  1.4845
16065TIP3   OH269609   3.501   5.163  11.146 -0.0768 -0.0833  0.0826
16065TIP3    H169610   3.405   5.162  11.150 -0.4103  4.6043 -0.4345
16065TIP3    H269611   3.520   5.189  11.056  1.5654  0.8819  0.6700
16066TIP3   OH269612   3.033   6.700   3.019  0.4087  0.2896 -0.6952
16066TIP3    H169613   3.112   6.682   3.069  0.4725  1.1904 -0.4521
16066TIP3    H269614   2.962   6.689   3.082  0.5432  2.2605 -0.1354
16067TIP3   OH269615   4.220   1.161  16.768  0.3854 -0.0388  0.1413
16067TIP3    H169616   4.193   1.192  16.855 -0.2182 -2.0636  0.7125
16067TIP3    H269617   4.282   1.091  16.786 -0.4832 -1.1365 -1.0327
16068TIP3   OH269618   4.152   4.991   2.078 -0.8348 -0.3146  0.0822
16068TIP3    H169619   4.138   5.071   2.028 -1.3442  1.0193  2.2382
16068TIP3    H269620   4.114   5.009   2.164 -0.5106 -2.7029  0.8090
16069TIP3   OH269621   1.978   1.826   2.182 -0.0982  0.1724 -0.6228
16069TIP3    H169622   2.012   1.742   2.212  0.1122  0.3944 -0.2256
16069TIP3    H269623   1.937   1.807   2.098 -0.5274 -0.4209 -0.2806
16070TIP3   OH269624   2.830   0.349  16.384  0.0394  0.1387  0.0664
16070TIP3    H169625   2.908   0.400  16.405  0.9452 -1.4278  0.7249
16070TIP3    H269626   2.856   0.295  16.309 -0.6418  0.0844 -0.1410
16071TIP3   OH269627   1.134   1.261   0.141  0.2681 -0.9591  0.0984
16071TIP3    H169628   1.193   1.270   0.215 -0.0937 -1.3840  0.4431
16071TIP3    H269629   1.140   1.169   0.116 -0.1209 -0.9716  0.0378
16072TIP3   OH269630   0.115   1.423  14.157 -0.2638 -0.2890 -0.1862
16072TIP3    H169631   0.162   1.460  14.232 -0.1001  0.1286 -0.4908
16072TIP3    H269632   0.057   1.358  14.195 -0.7194  0.4379  0.3950
16073TIP3   OH269633   3.351   4.067  14.723  0.2837 -0.0961  0.0645
16073TIP3    H169634   3.255   4.062  14.719  0.2191  0.6537  0.4762
16073TIP3    H269635   3.375   4.129  14.654  0.5043 -0.5375 -0.2611
16074TIP3   OH269636   1.364   2.424  13.557 -0.0491  0.4477 -0.2129
16074TIP3    H169637   1.280   2.428  13.602 -0.0864  1.8217 -0.3615
16074TIP3    H269638   1.343   2.397  13.468 -0.4047  1.2674 -0.3867
16075TIP3   OH269639   3.515   3.049  16.898  0.2314  0.2635  0.0440
16075TIP3    H169640   3.546   2.966  16.935 -0.7816 -0.3702 -0.4604
16075TIP3    H269641   3.474   3.095  16.971  1.4538  0.6845  0.5007
16076TIP3   OH269642   1.316   0.198   0.216 -0.0894 -0.1436  0.6298
16076TIP3    H169643   1.361   0.211   0.132 -1.4886  1.1049  0.0323
16076TIP3    H269644   1.310   0.103   0.225 -0.0520 -0.3023 -0.7692
16077TIP3   OH269645   6.231   1.970   3.792 -0.0171  0.2321 -0.2459
16077TIP3    H169646   6.174   1.905   3.833 -0.4811  0.9490  0.2644
16077TIP3    H269647   6.204   2.054   3.830 -0.6500  0.9667 -2.2182
16078TIP3   OH269648   1.988   0.791   2.079  0.2425  0.8897 -0.1523
16078TIP3    H169649   2.030   0.834   2.154  0.7090 -0.9551  0.6918
16078TIP3    H269650   1.904   0.760   2.113  0.0954  0.7759 -0.6198
16079TIP3   OH269651   5.458   5.162   3.048  0.5743  0.0328  0.3965
16079TIP3    H169652   5.415   5.108   2.981  0.5780  0.4301  0.0684
16079TIP3    H269653   5.386   5.207   3.092  0.6146  0.2816  0.2110
16080TIP3   OH269654   6.633   5.168  11.609 -0.0702  0.1410 -0.4068
16080TIP3    H169655   6.594   5.081  11.606 -1.5235  0.7598 -0.3187
16080TIP3    H269656   6.727   5.153  11.596  0.0273 -1.6367  1.7861
16081TIP3   OH269657   1.831   5.047  13.111  0.0554  0.6690  0.4062
16081TIP3    H169658   1.835   5.095  13.029 -0.6930  0.8800  0.4812
16081TIP3    H269659   1.918   5.008  13.121 -0.2325 -0.4842 -1.1556
16082TIP3   OH269660   5.079   3.260   1.972 -0.2775  0.1978  0.4600
16082TIP3    H169661   5.172   3.270   1.954 -0.6521  1.7945 -0.8380
16082TIP3    H269662   5.068   3.291   2.062  0.3757  0.4436  0.4537
16083TIP3   OH269663   1.352   0.619   0.247 -0.6265 -0.0500 -0.3324
16083TIP3    H169664   1.398   0.672   0.312 -0.6216 -2.1942  1.5397
16083TIP3    H269665   1.421   0.576   0.197 -0.6044 -0.5812  0.1498
16084TIP3   OH269666   3.905   1.365   1.716 -0.3116 -0.2388  0.2149
16084TIP3    H169667   3.856   1.284   1.702  1.9690 -2.1540  2.3211
16084TIP3    H269668   3.958   1.348   1.794  2.7035  2.0484 -1.0942
16085TIP3   OH269669   2.230   3.089  14.619  0.6532  0.5290 -0.1536
16085TIP3    H169670   2.323   3.068  14.617  0.4888 -0.4841  1.2918
16085TIP3    H269671   2.226   3.184  14.629  1.4978  0.6914 -1.1751
16086TIP3   OH269672   4.476   1.005  10.750  0.5153  0.2351  0.5815
16086TIP3    H169673   4.549   0.949  10.724 -0.8583 -0.9714 -0.9031
16086TIP3    H269674   4.466   1.068  10.678  0.3849  0.6996  0.9971
16087TIP3   OH269675   3.617   0.691  13.681  0.3670  0.7843 -0.0243
16087TIP3    H169676   3.546   0.755  13.691  0.0528  0.3385  0.7157
16087TIP3    H269677   3.674   0.729  13.614 -0.9192  0.8388 -1.1455
16088TIP3   OH269678   4.411   4.689   1.251  0.6311  0.1893 -0.2341
16088TIP3    H169679   4.425   4.739   1.332 -1.3527  1.0940 -0.3885
16088TIP3    H269680   4.432   4.751   1.181  0.4116  0.0448 -0.4272
16089TIP3   OH269681   3.816   3.935   6.561 -0.1256  0.1668  0.3739
16089TIP3    H169682   3.799   4.026   6.535 -1.1912 -0.5112 -1.5240
16089TIP3    H269683   3.888   3.907   6.504 -1.1221 -0.7469 -0.4650
16090TIP3   OH269684   0.765   6.163  15.472 -0.6611 -0.1597 -0.5886
16090TIP3    H169685   0.678   6.124  15.482  0.3196 -2.3317  0.1010
16090TIP3    H269686   0.819   6.093  15.436  0.8617  1.1093 -0.9013
16091TIP3   OH269687   5.853   1.483  16.866 -0.0668  0.1403  0.3504
16091TIP3    H169688   5.933   1.432  16.861 -0.3786 -0.2466 -0.9023
16091TIP3    H269689   5.783   1.419  16.871 -0.4138  0.4388 -0.4742
16092TIP3   OH269690   4.042   4.753   5.291 -0.3853 -0.5114 -0.1442
16092TIP3    H169691   4.133   4.782   5.290 -0.0222 -1.4204  1.8522
16092TIP3    H269692   3.996   4.821   5.341 -0.7244 -0.3020 -0.7319
16093TIP3   OH269693   3.546   0.975  14.322  0.1106 -0.3272 -0.0758
16093TIP3    H169694   3.575   1.019  14.243  0.3265  1.6499  1.0421
16093TIP3    H269695   3.454   1.000  14.331  0.1578 -0.3269  0.4396
16094TIP3   OH269696   1.480   4.194   5.296 -0.7479 -0.2199  0.0721
16094TIP3    H169697   1.551   4.150   5.249 -1.8590 -2.5239  0.4400
16094TIP3    H269698   1.495   4.287   5.278  1.5085 -0.7109 -1.0380
16095TIP3   OH269699   0.085   3.294   3.843 -0.1224 -0.2041  0.5072
16095TIP3    H169700   0.110   3.275   3.753  1.0259  1.1499  0.5138
16095TIP3    H269701   0.020   3.363   3.836 -2.1749 -2.0230  0.6223
16096TIP3   OH269702   1.947   2.686  12.720 -0.3733 -0.5300  0.1665
16096TIP3    H169703   1.999   2.630  12.778  2.9633 -1.7279 -3.5466
16096TIP3    H269704   1.874   2.631  12.693 -1.5960 -0.1830  2.4699
16097TIP3   OH269705   5.941   0.012   0.069 -0.1506 -0.4732 -0.4570
16097TIP3    H169706   5.907  -0.058   0.012 -1.0351 -0.6288  0.2521
16097TIP3    H269707   6.034  -0.011   0.081 -0.3598 -1.3693 -0.4629
16098TIP3   OH269708   3.525   1.451   5.038  0.2840  0.3990  0.4045
16098TIP3    H169709   3.577   1.406   4.971  2.0938  0.3478  1.7535
16098TIP3    H269710   3.584   1.458   5.113 -1.5774  0.6829  1.9230
16099TIP3   OH269711   6.706   3.562  14.062 -0.1003 -0.1663 -0.0070
16099TIP3    H169712   6.707   3.632  13.996  1.2548  0.2148  0.3934
16099TIP3    H269713   6.617   3.564  14.097  0.0608  1.8164  0.4392
16100TIP3   OH269714   2.224   2.751  11.581  0.2337 -0.3449  0.1302
16100TIP3    H169715   2.310   2.722  11.549  0.3332  0.6732 -0.5775
16100TIP3    H269716   2.193   2.812  11.514 -0.2117  0.7274  1.2859
16101TIP3   OH269717   0.550   1.918   3.120  0.0448 -0.4848 -0.7087
16101TIP3    H169718   0.627   1.952   3.074  1.3868 -1.4926  0.6776
16101TIP3    H269719   0.553   1.959   3.207 -0.3713 -1.3528 -0.2686
16102TIP3   OH269720   2.682   1.056  13.006 -0.2032 -0.3807 -0.5545
16102TIP3    H169721   2.619   1.121  13.036  0.1668 -0.1399 -0.3027
16102TIP3    H269722   2.632   0.974  13.003 -0.5699 -0.1612 -0.5146
16103TIP3   OH269723   4.717   5.611  10.455 -0.0208 -0.2450 -0.3568
16103TIP3    H169724   4.767   5.677  10.504 -0.1746 -0.5148  0.1674
16103TIP3    H269725   4.626   5.629  10.477 -0.0152 -1.3213  0.7010
16104TIP3   OH269726   2.997   4.263  14.909 -0.5230  0.1180 -0.5466
16104TIP3    H169727   2.909   4.225  14.907 -1.1265  1.4158  0.2487
16104TIP3    H269728   3.016   4.284  14.818 -1.9538  1.8038 -0.5051
16105TIP3   OH269729   1.922   2.001  16.240  0.1197  0.4540 -0.7827
16105TIP3    H169730   1.988   1.932  16.243  0.2642  0.6046 -0.3935
16105TIP3    H269731   1.839   1.954  16.228  0.3315  0.2916 -1.6796
16106TIP3   OH269732   2.093   4.679   1.052  0.3471  0.2610 -0.5544
16106TIP3    H169733   2.077   4.679   0.958  0.1176  1.6809 -0.5409
16106TIP3    H269734   2.006   4.678   1.091  0.3715  1.4366 -0.4067
16107TIP3   OH269735   2.708   1.793  15.944  0.6857  0.3708  0.4344
16107TIP3    H169736   2.747   1.771  16.029  0.3153  1.2119  0.8339
16107TIP3    H269737   2.636   1.731  15.935  1.1109 -0.1327  0.4420
16108TIP3   OH269738   3.052   1.589  13.229 -0.1194  0.5125  0.1860
16108TIP3    H169739   3.063   1.601  13.135 -0.4720 -0.1726  0.0546
16108TIP3    H269740   2.959   1.602  13.245 -0.0119  0.9442  0.4937
16109TIP3   OH269741   2.642   0.106   6.315  0.1530 -0.2532 -0.0043
16109TIP3    H169742   2.590   0.170   6.364  1.2206  1.8153 -1.4023
16109TIP3    H269743   2.718   0.089   6.370 -0.8684 -1.5713  1.0563
16110TIP3   OH269744   3.060   3.121  12.494  0.1053  0.0666  0.5289
16110TIP3    H169745   2.984   3.077  12.455  0.2122 -0.1879  0.6082
16110TIP3    H269746   3.031   3.146  12.582 -0.2372  0.9045  0.1958
16111TIP3   OH269747   6.497   2.429  14.277  0.0856 -0.9501 -1.1989
16111TIP3    H169748   6.534   2.343  14.256  0.4629 -0.8499 -0.9481
16111TIP3    H269749   6.489   2.429  14.373 -2.3180 -1.6939 -1.3292
16112TIP3   OH269750   0.218   0.648  16.147 -0.2103 -0.1987  0.1298
16112TIP3    H169751   0.209   0.609  16.235  0.8708 -0.3713  0.1815
16112TIP3    H269752   0.195   0.577  16.088  2.1237 -1.1197  0.2136
16113TIP3   OH269753   6.244   1.169  13.350 -0.0301 -0.5467  0.0621
16113TIP3    H169754   6.218   1.186  13.441  2.1496 -0.6628  0.7525
16113TIP3    H269755   6.339   1.176  13.350 -0.0043  0.1805 -2.3883
16114TIP3   OH269756   3.561   4.877  16.405  0.1842  0.2795 -0.0148
16114TIP3    H169757   3.587   4.921  16.486 -1.7002  1.2804  0.1039
16114TIP3    H269758   3.624   4.907  16.340 -0.0002  1.7911  0.4662
16115TIP3   OH269759   4.319   6.429   2.757 -0.0082 -0.0492  0.5168
16115TIP3    H169760   4.402   6.417   2.710 -1.3223 -2.1550 -1.4747
16115TIP3    H269761   4.293   6.519   2.738  0.9545  0.0655 -0.3260
16116TIP3   OH269762   4.999   2.910  16.466  0.1276 -0.3408 -0.3791
16116TIP3    H169763   4.918   2.862  16.451  0.2869 -0.6310 -0.3202
16116TIP3    H269764   4.973   2.986  16.518  0.1758 -1.4249  1.2929
16117TIP3   OH269765   3.328   4.865   2.193 -0.0111 -0.3088 -0.1286
16117TIP3    H169766   3.299   4.894   2.280 -1.2304 -0.0641 -0.6011
16117TIP3    H269767   3.247   4.844   2.146  0.6369 -0.5232 -1.1831
16118TIP3   OH269768   6.455   4.964   0.175  0.2128  0.2109  0.7011
16118TIP3    H169769   6.490   4.875   0.167  0.4883  0.3671  0.1833
16118TIP3    H269770   6.520   5.020   0.133 -0.5226  0.5287 -0.0298
16119TIP3   OH269771   5.809   6.523  10.654  0.1816  0.3258 -0.5469
16119TIP3    H169772   5.727   6.518  10.605 -0.2519  0.7850  0.1124
16119TIP3    H269773   5.855   6.597  10.614  0.0480  0.3881 -0.5897
16120TIP3   OH269774   0.503   1.002  16.089  0.0216  0.1318 -0.4213
16120TIP3    H169775   0.471   0.912  16.082  2.3040 -0.8330  0.4420
16120TIP3    H269776   0.548   1.017  16.006  0.0654  0.3048 -0.3648
16121TIP3   OH269777   1.402   6.634  14.354  0.3098 -0.1428  0.4815
16121TIP3    H169778   1.381   6.592  14.437 -0.4651 -0.9428 -0.1017
16121TIP3    H269779   1.386   6.567  14.288 -0.4580  0.8946 -0.4336
16122TIP3   OH269780   0.516   2.495  13.274 -0.3426  0.2565  0.2082
16122TIP3    H169781   0.611   2.487  13.285  0.2361  2.3446 -2.3035
16122TIP3    H269782   0.488   2.552  13.346  0.4054  0.1209  0.6208
16123TIP3   OH269783   5.750   2.838   6.068  0.3649  0.5353 -0.5617
16123TIP3    H169784   5.698   2.879   5.999 -1.3660  0.8746  0.8776
16123TIP3    H269785   5.691   2.775   6.109  2.1208 -1.4442 -0.9116
16124TIP3   OH269786   5.713   2.964  12.684  0.4622 -0.1768 -0.1584
16124TIP3    H169787   5.738   3.045  12.729  2.5108 -1.2240  0.6815
16124TIP3    H269788   5.658   2.917  12.747  2.4847 -1.1720  0.9262
16125TIP3   OH269789   5.080   3.639  10.823 -0.1626  0.3570 -0.0000
16125TIP3    H169790   5.043   3.685  10.899 -3.0132  1.5043 -1.9121
16125TIP3    H269791   5.135   3.705  10.781 -0.0997  0.3282  0.0357
16126TIP3   OH269792   5.466   5.893   1.204 -0.0232 -0.0960  0.5326
16126TIP3    H169793   5.533   5.892   1.272  0.5272  0.4254  0.0116
16126TIP3    H269794   5.450   5.800   1.185  0.4449 -0.2300  0.7683
16127TIP3   OH269795   0.661   0.124  16.494 -0.0194  0.5152  0.2748
16127TIP3    H169796   0.645   0.214  16.465 -0.8603 -0.1529 -1.5124
16127TIP3    H269797   0.723   0.089  16.431  0.0473 -0.2656  0.7588
16128TIP3   OH269798   3.705   1.582   0.746 -0.4721  0.0419  0.2609
16128TIP3    H169799   3.677   1.556   0.834  0.0862  0.0170  0.4372
16128TIP3    H269800   3.723   1.500   0.702 -1.0364  0.0438  0.0250
16129TIP3   OH269801   5.461   5.797  12.709  0.0020  0.2793 -0.0315
16129TIP3    H169802   5.475   5.887  12.737 -0.8478  0.3154  0.2765
16129TIP3    H269803   5.542   5.774  12.662  0.3892  1.0556  0.2432
16130TIP3   OH269804   0.242   5.793  16.671 -0.1244 -0.4321  0.3190
16130TIP3    H169805   0.200   5.724  16.722  1.4153 -1.7920 -0.1690
16130TIP3    H269806   0.302   5.836  16.732 -1.6606  1.0794  0.8429
16131TIP3   OH269807   6.256   3.210  14.044  0.4874  0.0024 -0.3199
16131TIP3    H169808   6.252   3.234  14.136 -2.1564 -1.5316  0.0593
16131TIP3    H269809   6.214   3.284  13.999  1.6519  0.6863 -0.3305
16132TIP3   OH269810   6.661   3.261   3.168 -0.5894 -0.1753  0.4553
16132TIP3    H169811   6.706   3.342   3.148  0.0905 -0.4483  0.8324
16132TIP3    H269812   6.607   3.243   3.091  0.8892 -0.4806 -0.5515
16133TIP3   OH269813   1.364   2.104  12.206 -0.1714 -0.5065  0.8262
16133TIP3    H169814   1.451   2.141  12.194 -0.5716  0.1870 -0.0068
16133TIP3    H269815   1.376   2.036  12.272  1.0383 -0.5704  0.5576
16134TIP3   OH269816   2.505   1.271   4.232 -0.3841  0.7347  0.0426
16134TIP3    H169817   2.533   1.326   4.159  1.7052  0.0554  0.2470
16134TIP3    H269818   2.524   1.324   4.310  3.7115 -0.8402  0.3828
16135TIP3   OH269819   3.349   1.513  15.575  0.2938 -0.0044  0.8083
16135TIP3    H169820   3.259   1.515  15.541  0.6994  1.2050 -0.2715
16135TIP3    H269821   3.382   1.601  15.561  1.3636 -0.1756  2.0487
16136TIP3   OH269822   4.216   5.774   3.696  0.6708 -0.1533  0.2888
16136TIP3    H169823   4.281   5.705   3.683  0.6176  0.1191 -1.5600
16136TIP3    H269824   4.135   5.727   3.717  0.5720 -0.7072 -1.2144
16137TIP3   OH269825   3.835   2.589  15.788  0.6261 -0.0760  0.5449
16137TIP3    H169826   3.928   2.584  15.762  0.2655  0.9306 -1.0722
16137TIP3    H269827   3.802   2.500  15.773  1.7574 -1.0008  3.0804
16138TIP3   OH269828   4.989   2.101   3.794  0.8956  0.3610  0.6858
16138TIP3    H169829   4.900   2.136   3.808  0.6444  0.5315 -1.1792
16138TIP3    H269830   5.034   2.170   3.746  1.5860 -0.3309  0.3347
16139TIP3   OH269831   1.180   1.151  14.220 -0.0346 -0.1770 -0.0308
16139TIP3    H169832   1.165   1.139  14.126  0.0945  1.2639 -0.2600
16139TIP3    H269833   1.268   1.186  14.226 -0.3158  0.4463  0.5605
16140TIP3   OH269834   3.130   5.604   0.797 -0.8748 -0.3717  0.3918
16140TIP3    H169835   3.049   5.611   0.746 -1.0983  1.1920  0.9219
16140TIP3    H269836   3.199   5.634   0.737 -1.1096  1.2584  0.9039
16141TIP3   OH269837   2.509   1.051   2.571 -0.8849  0.4278  0.1455
16141TIP3    H169838   2.518   1.139   2.537  1.0379  0.0419 -0.4783
16141TIP3    H269839   2.433   1.055   2.629 -1.1922  2.3266 -0.3288
16142TIP3   OH269840   3.893   2.557  16.632  0.4819 -0.1663  0.3138
16142TIP3    H169841   3.905   2.638  16.584 -0.3622  0.0512  0.4520
16142TIP3    H269842   3.908   2.580  16.723  1.1988 -0.3817  0.2538
16143TIP3   OH269843   6.610   1.581  11.938 -0.1608 -0.7291 -0.0256
16143TIP3    H169844   6.656   1.522  11.879 -0.1370 -1.1439  0.4048
16143TIP3    H269845   6.517   1.558  11.928 -0.4696  0.9984 -1.9005
16144TIP3   OH269846   3.042   3.256   1.840  0.5872 -0.0117  0.0091
16144TIP3    H169847   3.060   3.348   1.856  0.9190  0.2336 -1.5855
16144TIP3    H269848   2.963   3.237   1.890  0.8088  0.9856  0.7584
16145TIP3   OH269849   2.253   5.026   0.844  0.0268 -0.2036 -0.4422
16145TIP3    H169850   2.252   5.105   0.789 -0.1990  0.3974  0.4115
16145TIP3    H269851   2.194   5.047   0.917 -0.0760 -1.1855 -0.2346
16146TIP3   OH269852   1.432   6.437  16.506 -0.0131  0.2769 -0.4506
16146TIP3    H169853   1.429   6.362  16.448  1.0299  0.9747 -1.4566
16146TIP3    H269854   1.347   6.437  16.550  0.5615 -2.4524  0.8601
16147TIP3   OH269855   4.474   4.400   1.444  0.7403  0.0371 -0.1784
16147TIP3    H169856   4.399   4.437   1.397 -0.5544 -1.8727  0.2813
16147TIP3    H269857   4.473   4.445   1.529 -2.0289 -2.1785  1.1609
16148TIP3   OH269858   0.304   1.774   5.562  0.1889 -0.2955 -0.3188
16148TIP3    H169859   0.265   1.719   5.629  0.7469 -0.0320  0.2275
16148TIP3    H269860   0.363   1.715   5.514  1.2466 -0.0445  0.6516
16149TIP3   OH269861   1.726   1.605   2.183  0.2051 -0.0699 -0.0619
16149TIP3    H169862   1.743   1.569   2.096  0.4549 -0.9328  0.3345
16149TIP3    H269863   1.634   1.587   2.200 -0.2191  1.3853 -0.7292
16150TIP3   OH269864   4.442   6.483   0.125 -0.0779 -0.0651  0.5258
16150TIP3    H169865   4.499   6.497   0.201  0.0247 -3.8660  1.3374
16150TIP3    H269866   4.354   6.475   0.161 -0.7232  2.2771 -0.3403
16151TIP3   OH269867   0.650   4.248  10.940  0.3096 -0.2119  0.2387
16151TIP3    H169868   0.661   4.264  10.846  1.0041 -1.0651  0.1698
16151TIP3    H269869   0.581   4.183  10.946 -0.5789  0.7110  0.3948
16152TIP3   OH269870   4.943   0.217   3.417 -0.0362 -0.3979 -0.0963
16152TIP3    H169871   4.984   0.300   3.392  1.0160 -0.7495  0.3935
16152TIP3    H269872   4.923   0.227   3.510  0.5988 -0.8830  0.1005
16153TIP3   OH269873   6.606   2.937   5.925  0.3473  0.0883 -0.4086
16153TIP3    H169874   6.666   3.011   5.917 -0.8393  1.1584  0.1935
16153TIP3    H269875   6.646   2.881   5.992  0.8600  0.6095 -0.2669
16154TIP3   OH269876   1.174   0.758  14.832 -0.7857  0.4778  0.6570
16154TIP3    H169877   1.097   0.802  14.797 -0.9792  0.0566  0.5492
16154TIP3    H269878   1.139   0.685  14.883 -0.4198 -1.1684 -1.3225
16155TIP3   OH269879   3.921   3.243   0.771 -0.3596 -0.1743  0.0609
16155TIP3    H169880   3.859   3.314   0.784  0.2031  0.3579 -0.0953
16155TIP3    H269881   3.949   3.219   0.860 -2.0195 -1.5540  0.2452
16156TIP3   OH269882   4.468   3.894   4.955 -0.9326  0.0910 -0.9655
16156TIP3    H169883   4.539   3.832   4.939 -0.7064  0.3163 -0.8426
16156TIP3    H269884   4.419   3.897   4.873 -0.3252  0.5422 -1.3186
16157TIP3   OH269885   4.916   3.800   0.137 -0.1445  0.0014  0.0777
16157TIP3    H169886   4.918   3.724   0.080  0.7385  1.0102 -1.3192
16157TIP3    H269887   4.975   3.778   0.210  1.8975  0.1387 -1.4492
16158TIP3   OH269888   6.365   2.513   3.724  0.4334 -0.0865  0.2376
16158TIP3    H169889   6.313   2.487   3.800  1.5507 -0.4245  0.9089
16158TIP3    H269890   6.408   2.432   3.696  0.6595  0.2027 -0.2667
16159TIP3   OH269891   1.707   5.711  14.161 -0.0707 -0.2943  0.3484
16159TIP3    H169892   1.789   5.742  14.120 -0.6315  0.0753 -0.5315
16159TIP3    H269893   1.649   5.693  14.087 -0.7380 -0.7032  0.9601
16160TIP3   OH269894   5.271   0.660   5.039  0.2418  0.7041  0.4180
16160TIP3    H169895   5.295   0.752   5.038  1.9478  0.3113  1.4243
16160TIP3    H269896   5.286   0.630   4.949  3.0598  0.6482  0.8327
16161TIP3   OH269897   5.282   4.612   5.018 -0.0983 -0.8368  0.3642
16161TIP3    H169898   5.361   4.561   5.033 -0.0902 -0.8024  0.4393
16161TIP3    H269899   5.276   4.670   5.094 -0.5608 -1.3061  0.6957
16162TIP3   OH269900   4.705   6.710   5.136 -0.7039  0.0796 -0.2978
16162TIP3    H169901   4.616   6.705   5.172 -1.0500 -0.6603 -1.1973
16162TIP3    H269902   4.693   6.749   5.049 -0.2258 -0.5268 -0.6407
16163TIP3   OH269903   3.663   4.310  14.871  0.0459  0.0192  0.6549
16163TIP3    H169904   3.601   4.376  14.840  0.1293 -0.9622 -1.8288
16163TIP3    H269905   3.609   4.233  14.891  0.0783  0.4060  2.4541
16164TIP3   OH269906   4.222   6.576  11.216 -0.4578  0.2627 -0.3272
16164TIP3    H169907   4.293   6.572  11.153  0.5851  1.1041  0.7601
16164TIP3    H269908   4.165   6.647  11.185 -1.8731 -1.5555 -2.1890
16165TIP3   OH269909   3.583   0.292   2.856  0.3045  0.2813 -0.5608
16165TIP3    H169910   3.566   0.229   2.785 -0.0308 -1.2018  0.7874
16165TIP3    H269911   3.672   0.323   2.839  0.3975 -0.3844 -1.3675
16166TIP3   OH269912   6.627   6.783  13.463  0.0667  0.3218 -0.1483
16166TIP3    H169913   6.673   6.816  13.386  0.8118 -0.4482 -0.0569
16166TIP3    H269914   6.673   6.824  13.537  0.9060 -0.7657 -0.0397
16167TIP3   OH269915   3.969   3.238   4.395  0.1654  0.3904  0.1033
16167TIP3    H169916   4.027   3.271   4.463 -0.0685 -0.9515  0.9874
16167TIP3    H269917   4.024   3.178   4.344  0.2753  1.2085 -0.7861
16168TIP3   OH269918   4.021   4.594   4.787 -0.5519 -0.0946  0.3035
16168TIP3    H169919   4.010   4.662   4.720  0.7853  0.2676  0.4360
16168TIP3    H269920   3.966   4.623   4.860 -0.6453  0.4066  0.0371
16169TIP3   OH269921   1.456   1.333   1.440 -0.1226  0.2836 -0.4658
16169TIP3    H169922   1.520   1.275   1.397 -0.7475 -0.5051 -0.3484
16169TIP3    H269923   1.488   1.421   1.420  0.3157 -0.0789 -1.4760
16170TIP3   OH269924   1.548   4.500   5.708  0.2064 -0.0477  0.3406
16170TIP3    H169925   1.453   4.502   5.698 -0.0056 -0.6301  1.9640
16170TIP3    H269926   1.564   4.537   5.794  1.3713 -1.0426  0.5883
16171TIP3   OH269927   5.611   0.934  16.834  0.0382 -0.1605  0.7081
16171TIP3    H169928   5.584   0.995  16.764 -0.5885 -0.1770  0.9314
16171TIP3    H269929   5.645   0.858  16.787 -1.6503 -0.7628  0.3692
16172TIP3   OH269930   0.530   1.697  12.511  0.2370 -0.4524  0.2333
16172TIP3    H169931   0.450   1.662  12.474 -0.0264  0.6007 -0.2212
16172TIP3    H269932   0.514   1.791  12.519  2.5897  0.4176 -3.0983
16173TIP3   OH269933   1.715   5.393   3.310 -0.0396 -0.0854  0.0017
16173TIP3    H169934   1.639   5.349   3.347 -0.0128  1.1630  1.6205
16173TIP3    H269935   1.789   5.363   3.364  0.2936  0.3817 -0.1878
16174TIP3   OH269936   5.034   1.601   4.632  0.2921  0.5807 -0.6395
16174TIP3    H169937   5.050   1.569   4.721  0.5814 -0.0732 -0.9204
16174TIP3    H269938   5.118   1.636   4.604  0.1559  0.9466 -0.5927
16175TIP3   OH269939   2.742   0.011  15.943 -0.1988 -0.0369  0.3089
16175TIP3    H169940   2.790   0.024  15.861  0.8621 -0.9361  0.7626
16175TIP3    H269941   2.679  -0.059  15.922 -0.4059  0.2152  0.0789
16176TIP3   OH269942   3.403   5.252   3.568 -0.1557 -0.1655  0.3978
16176TIP3    H169943   3.468   5.307   3.612  0.9252 -0.7891 -0.3673
16176TIP3    H269944   3.342   5.314   3.527  0.5467  0.4511  0.2666
16177TIP3   OH269945   6.681   2.565   1.190 -0.0537  0.3989  0.0926
16177TIP3    H169946   6.668   2.562   1.285  1.4937  0.6939  0.3394
16177TIP3    H269947   6.769   2.529   1.177  0.0635  1.0955 -1.1570
16178TIP3   OH269948   6.446   0.204   0.135 -0.4431  0.1360  0.2413
16178TIP3    H169949   6.521   0.165   0.181 -1.8209 -0.2104  2.3115
16178TIP3    H269950   6.383   0.133   0.126 -0.4900  0.3600 -1.7172
16179TIP3   OH269951   4.336   3.915   4.710  0.0256  0.7167 -0.6777
16179TIP3    H169952   4.240   3.907   4.713  0.0715  0.3244 -0.1257
16179TIP3    H269953   4.351   4.008   4.696 -0.4375  0.7948 -0.6892
16180TIP3   OH269954   1.519   4.979   1.000 -0.2778  0.0826 -0.4656
16180TIP3    H169955   1.611   5.007   0.998  0.1531 -1.2853 -1.1885
16180TIP3    H269956   1.473   5.044   0.947  0.0805  1.3377  0.6912
16181TIP3   OH269957   1.407   0.492  12.373 -0.8216  0.6250  0.0742
16181TIP3    H169958   1.320   0.464  12.344 -0.5149  0.2195 -0.4734
16181TIP3    H269959   1.390   0.568  12.428 -1.6131 -0.0733  0.8488
16182TIP3   OH269960   0.428   3.202  13.993  0.2483 -0.3343 -0.5053
16182TIP3    H169961   0.504   3.257  13.977 -0.6582  0.3601 -2.7207
16182TIP3    H269962   0.417   3.152  13.912 -1.6154 -0.4533 -0.2083
16183TIP3   OH269963   5.580   6.614  16.873  0.3294 -0.6675 -0.2247
16183TIP3    H169964   5.537   6.668  16.940  0.4262  1.5900 -1.8799
16183TIP3    H269965   5.672   6.641  16.876  0.5591 -1.4013 -0.4947
16184TIP3   OH269966   6.070   3.730  12.554 -0.0825 -0.0768 -0.2486
16184TIP3    H169967   6.035   3.819  12.558 -0.8997 -0.4233  0.7765
16184TIP3    H269968   6.135   3.727  12.625  0.4083 -0.1164 -0.6927
16185TIP3   OH269969   4.560   4.634   4.638 -0.1881 -0.0652 -0.4957
16185TIP3    H169970   4.473   4.616   4.673  0.2546 -0.5949  0.3838
16185TIP3    H269971   4.606   4.550   4.646  0.1139 -0.0372 -1.8100
16186TIP3   OH269972   4.417   6.155  13.240  0.5840 -0.4510  0.1600
16186TIP3    H169973   4.444   6.108  13.319  0.7004 -1.0580 -0.2354
16186TIP3    H269974   4.333   6.194  13.263  0.8593 -0.1906  0.7538
16187TIP3   OH269975   0.821   1.707   4.822  0.5184 -0.6933 -0.1398
16187TIP3    H169976   0.734   1.747   4.826  0.3593 -1.1319  1.0561
16187TIP3    H269977   0.877   1.775   4.784  0.3870  0.9654  2.4273
16188TIP3   OH269978   1.275   0.152   3.465  0.2035 -0.1071  0.0054
16188TIP3    H169979   1.234   0.111   3.388 -0.0694  1.0199 -0.4705
16188TIP3    H269980   1.364   0.171   3.437 -0.1662  1.1402 -0.3620
16189TIP3   OH269981   1.642   1.701  11.953  0.1854  0.4376  0.6411
16189TIP3    H169982   1.681   1.648  11.883  0.8441 -0.1013  1.3906
16189TIP3    H269983   1.549   1.681  11.951  0.4418 -0.8714  0.9885
16190TIP3   OH269984   5.776   6.152   4.786 -0.2074 -0.0536 -0.7109
16190TIP3    H169985   5.766   6.100   4.866  3.7844 -1.3858 -0.8497
16190TIP3    H269986   5.760   6.090   4.715  1.1371 -0.2391 -0.8781
16191TIP3   OH269987   1.214   0.333  14.812 -0.6965  0.0738  0.1085
16191TIP3    H169988   1.180   0.250  14.844 -0.8930 -0.3625 -1.1654
16191TIP3    H269989   1.309   0.319  14.806 -0.5727  0.3940  1.1236
16192TIP3   OH269990   6.147   5.714  16.508  0.0832  0.3119 -0.6015
16192TIP3    H169991   6.233   5.705  16.550 -1.5883 -2.3986  2.7339
16192TIP3    H269992   6.111   5.795  16.543  0.6350  0.6032 -0.7049
16193TIP3   OH269993   3.006   3.926  16.478  0.0114 -0.2152 -0.4880
16193TIP3    H169994   3.080   3.987  16.480  0.1366 -0.3390  2.3792
16193TIP3    H269995   2.929   3.982  16.471  0.2474  0.0615 -0.9444
16194TIP3   OH269996   4.221   4.069   1.772 -0.1660 -0.1143  0.0786
16194TIP3    H169997   4.276   4.054   1.695 -0.2189 -1.3636  0.2580
16194TIP3    H269998   4.254   4.009   1.838  0.6736  1.8093  1.4979
16195TIP3   OH269999   6.290   0.534  16.282  0.1156  0.0553  0.3286
16195TIP3    H170000   6.230   0.467  16.315 -2.7828  2.6907  0.8665
16195TIP3    H270001   6.266   0.544  16.190 -0.2811  1.1082  0.5376
16196TIP3   OH270002   1.916   2.128   5.510  0.2683 -0.1356 -0.2246
16196TIP3    H170003   1.891   2.094   5.596  0.4576 -0.3724 -0.2624
16196TIP3    H270004   1.939   2.219   5.526 -0.2200 -0.0266 -0.1173
16197TIP3   OH270005   3.376   6.203  12.392  0.3907  0.3561  0.6798
16197TIP3    H170006   3.413   6.276  12.442  0.2360 -0.6679  2.3442
16197TIP3    H270007   3.450   6.145  12.376  0.2547  0.2264  0.5156
16198TIP3   OH270008   0.923   4.609  12.167  0.1084 -0.3025 -0.1214
16198TIP3    H170009   0.918   4.607  12.263 -1.2020 -1.4929 -0.1838
16198TIP3    H270010   0.848   4.557  12.138  1.2253 -1.0635 -1.7844
16199TIP3   OH270011   3.761   4.155  16.261  0.0563 -0.4415  0.1825
16199TIP3    H170012   3.718   4.232  16.224 -1.0926 -1.7879 -1.4892
16199TIP3    H270013   3.846   4.152  16.216  0.5527  0.3801  1.0226
16200TIP3   OH270014   2.045   3.739  13.293  0.4862  0.3056  0.4886
16200TIP3    H170015   2.058   3.692  13.211 -0.9321  0.3820  0.2081
16200TIP3    H270016   1.951   3.756  13.297  0.3625 -0.5017  2.5637
16201TIP3   OH270017   3.347   1.028   3.611 -0.5256 -0.1087  0.3689
16201TIP3    H170018   3.299   1.088   3.555 -0.6702 -0.9752 -0.4471
16201TIP3    H270019   3.419   1.080   3.646 -0.5102  0.4704 -0.5179
16202TIP3   OH270020   1.724   0.055   1.810  0.2312  0.2729  0.5493
16202TIP3    H170021   1.766   0.051   1.896  1.5654  2.4875  0.1018
16202TIP3    H270022   1.632   0.071   1.829  0.8046  2.7337  1.6567
16203TIP3   OH270023   5.678   0.858  11.363 -0.2325 -0.2121 -0.5944
16203TIP3    H170024   5.587   0.857  11.333 -1.0461  0.5437  1.6345
16203TIP3    H270025   5.677   0.806  11.443  1.7032 -1.6617 -1.4356
16204TIP3   OH270026   1.569   0.058   4.265  0.1506  0.2164 -0.0458
16204TIP3    H170027   1.538   0.111   4.191 -0.8555 -1.0212 -0.5578
16204TIP3    H270028   1.490   0.045   4.319  0.5320 -0.2054  0.4129
16205TIP3   OH270029   2.081   1.194   5.410  0.2118 -0.0173 -0.2681
16205TIP3    H170030   2.005   1.139   5.429 -1.6132  1.9111 -1.5992
16205TIP3    H270031   2.080   1.261   5.477  0.7858 -0.0128 -0.2616
16206TIP3   OH270032   2.666   3.534   4.636  0.4497 -0.5717 -0.4032
16206TIP3    H170033   2.744   3.574   4.597  0.1328 -0.2047 -0.6553
16206TIP3    H270034   2.593   3.587   4.606 -0.0406 -1.6675 -1.1926
16207TIP3   OH270035   4.390   1.767  12.014  0.2768 -0.8785  0.2226
16207TIP3    H170036   4.366   1.858  12.001 -1.6603 -1.3083  0.4471
16207TIP3    H270037   4.449   1.768  12.090 -1.0875  0.0500  1.3320
16208TIP3   OH270038   1.011   2.664  14.410  0.1497 -0.2253  0.1540
16208TIP3    H170039   0.917   2.664  14.430  0.3432 -1.1915  1.1933
16208TIP3    H270040   1.031   2.754  14.385 -1.1496 -0.1188 -0.5962
16209TIP3   OH270041   3.331   3.348   2.367 -0.5611 -0.0865 -0.4679
16209TIP3    H170042   3.301   3.405   2.437  2.3379  1.3222 -0.2447
16209TIP3    H270043   3.286   3.265   2.383 -1.7443  0.8826  1.6558
16210TIP3   OH270044   1.758   2.418  15.565  0.0036 -0.1624  0.0791
16210TIP3    H170045   1.774   2.346  15.627  1.4605  1.0592  1.2304
16210TIP3    H270046   1.831   2.413  15.504  0.9788  1.1924  1.0759
16211TIP3   OH270047   6.153   0.110  13.111 -0.2646 -0.1591 -0.0334
16211TIP3    H170048   6.216   0.039  13.105 -0.1211 -0.2430  1.9021
16211TIP3    H270049   6.082   0.075  13.165 -0.8664  0.7069 -0.2354
16212TIP3   OH270050   2.841   5.120  13.791 -0.1701  0.2742 -0.2018
16212TIP3    H170051   2.847   5.176  13.868 -0.4060 -0.8936  0.7041
16212TIP3    H270052   2.752   5.085  13.794 -0.2975  0.4815 -1.2079
16213TIP3   OH270053   4.716   3.813   1.241  0.2662 -0.4026 -0.5072
16213TIP3    H170054   4.788   3.757   1.212  1.7522  0.9181  0.5114
16213TIP3    H270055   4.693   3.779   1.327  0.3377 -0.2045 -0.4104
16214TIP3   OH270056   5.146   3.022  12.434  0.4468  0.1121  0.4691
16214TIP3    H170057   5.144   3.019  12.529  2.3441 -2.2572  0.5253
16214TIP3    H270058   5.142   2.931  12.406 -2.1605  0.7918 -1.8878
16215TIP3   OH270059   2.714   4.770  14.755 -0.5128  0.3041  0.2969
16215TIP3    H170060   2.755   4.728  14.679 -1.8359  1.1051 -0.8991
16215TIP3    H270061   2.686   4.697  14.810  0.5825 -0.2882  0.1130
16216TIP3   OH270062   3.639   4.722   5.158  0.2542 -0.0062  0.1769
16216TIP3    H170063   3.637   4.806   5.205 -0.3109 -0.2505  0.6059
16216TIP3    H270064   3.584   4.664   5.211  1.4345 -0.9337  0.4303
16217TIP3   OH270065   5.579   3.175  14.627 -0.2558  0.1515  0.1210
16217TIP3    H170066   5.575   3.100  14.687  0.1896 -0.2475 -0.3379
16217TIP3    H270067   5.671   3.199  14.624 -0.5201  1.3814  1.0453
16218TIP3   OH270068   4.060   3.745   3.872  0.1089 -0.0016  0.3171
16218TIP3    H170069   4.045   3.728   3.965  1.7819 -3.7208  0.0936
16218TIP3    H270070   4.149   3.780   3.868 -0.3828  1.2956  0.1265
16219TIP3   OH270071   3.877   2.290   1.972 -0.0005 -0.1303 -0.4874
16219TIP3    H170072   3.829   2.253   1.897  0.2817  1.5644 -1.5492
16219TIP3    H270073   3.968   2.265   1.957  0.2803  1.3744 -1.5086
16220TIP3   OH270074   5.150   5.039   3.948 -0.4738  0.1367  0.3875
16220TIP3    H170075   5.106   4.976   3.891  0.5689 -0.6616  0.4309
16220TIP3    H270076   5.142   5.123   3.902 -2.1377  0.0495  0.4715
16221TIP3   OH270077   0.247   6.696   5.631 -0.2640 -0.4866 -0.1303
16221TIP3    H170078   0.288   6.682   5.546  0.7584  0.4211  0.1836
16221TIP3    H270079   0.236   6.791   5.637 -2.3534 -0.6793 -0.1494
16222TIP3   OH270080   2.240   3.616  15.114  0.2252 -0.8665  0.0252
16222TIP3    H170081   2.313   3.658  15.160  1.3031 -1.0212 -1.4692
16222TIP3    H270082   2.258   3.522  15.122  0.2846 -0.9005 -0.4607
16223TIP3   OH270083   5.483   0.582  12.727 -0.2800 -0.2923 -0.6009
16223TIP3    H170084   5.435   0.663  12.706 -0.4742 -0.4177 -0.6417
16223TIP3    H270085   5.415   0.515  12.735 -0.0247 -0.8219 -2.2807
16224TIP3   OH270086   0.652   3.989   0.084  0.2932  0.6024  0.2850
16224TIP3    H170087   0.707   4.060   0.049  0.7663  0.6495  1.0956
16224TIP3    H270088   0.638   3.931   0.009  0.7984  0.9983 -0.1304
16225TIP3   OH270089   2.573   6.006   0.423  0.0447  0.5284  0.5481
16225TIP3    H170090   2.649   5.993   0.366 -0.4596  0.0571 -0.0358
16225TIP3    H270091   2.610   6.019   0.510  0.8362  1.2511  0.1169
16226TIP3   OH270092   4.414   3.563  16.714 -0.7758 -0.5794  0.7178
16226TIP3    H170093   4.491   3.572  16.770 -1.1700  0.1328  1.1576
16226TIP3    H270094   4.419   3.473  16.680  1.0195 -0.0947 -0.4170
16227TIP3   OH270095   1.108   2.384  12.813  0.1039 -0.5769 -0.0783
16227TIP3    H170096   1.174   2.331  12.768 -1.3142 -2.8886  0.4298
16227TIP3    H270097   1.074   2.328  12.882 -0.9680  1.2980  1.0148
16228TIP3   OH270098   3.419   4.735   3.294 -0.1806  0.7602  0.0737
16228TIP3    H170099   3.426   4.702   3.205 -1.0487 -1.1680  0.6625
16228TIP3    H270100   3.325   4.737   3.312 -0.0775  2.1279  0.6220
16229TIP3   OH270101   2.789   2.566   6.004 -0.1783 -0.3949  0.1134
16229TIP3    H170102   2.818   2.642   5.954 -1.0327  0.6916  1.1974
16229TIP3    H270103   2.854   2.557   6.074 -0.3779 -0.2918  0.3167
16230TIP3   OH270104   5.052   6.718   1.456 -1.1055 -0.5610  0.0896
16230TIP3    H170105   4.995   6.795   1.448  0.8505  0.9792  0.3304
16230TIP3    H270106   5.002   6.648   1.414 -4.3484 -0.0018  2.6149
16231TIP3   OH270107   3.557   2.834   2.963 -0.4280  0.1773  0.3418
16231TIP3    H170108   3.565   2.906   2.901 -1.2665 -0.3901 -0.4426
16231TIP3    H270109   3.562   2.755   2.910 -2.0216 -0.3114  0.8647
16232TIP3   OH270110   1.483   5.376   2.621  0.1621  0.3604  0.1753
16232TIP3    H170111   1.409   5.317   2.637  0.0244 -0.2119 -2.2409
16232TIP3    H270112   1.547   5.323   2.573  1.2241  1.4523  0.3173
16233TIP3   OH270113   4.930   2.573  13.367 -0.0383 -0.4406  0.6372
16233TIP3    H170114   4.994   2.540  13.430  0.9119 -0.0965 -0.1146
16233TIP3    H270115   4.935   2.511  13.294 -2.7297 -2.1396  1.7333
16234TIP3   OH270116   2.104   0.329   2.200 -0.4898  0.0738  0.1513
16234TIP3    H170117   2.012   0.306   2.205 -0.4424 -0.4784 -1.0980
16234TIP3    H270118   2.151   0.250   2.227 -0.3716 -0.1092 -0.5765
16235TIP3   OH270119   3.305   1.267  13.263 -0.4358  0.0624 -0.6218
16235TIP3    H170120   3.250   1.193  13.238 -0.0904  0.6243 -3.3825
16235TIP3    H270121   3.244   1.334  13.293 -0.7663 -1.1736  1.6215
16236TIP3   OH270122   6.700   3.710  16.525  0.0671 -0.1216 -0.4092
16236TIP3    H170123   6.723   3.643  16.589  0.0963 -0.1013 -0.3986
16236TIP3    H270124   6.767   3.778  16.537  0.5730 -0.5004 -1.0525
16237TIP3   OH270125   3.876   3.510  13.643  0.1165 -0.2035 -0.1534
16237TIP3    H170126   3.793   3.463  13.645 -0.4237  0.7739  0.6869
16237TIP3    H270127   3.891   3.526  13.550 -2.0648  2.0563 -0.2116
16238TIP3   OH270128   5.644   0.127  16.608  0.7449  0.1108 -0.3160
16238TIP3    H170129   5.565   0.078  16.585  0.8333 -1.5065  2.3747
16238TIP3    H270130   5.615   0.188  16.677  1.4051  1.2441 -1.0031
16239TIP3   OH270131   2.294   5.004  12.802 -0.1615 -0.0025 -0.0843
16239TIP3    H170132   2.221   5.064  12.787  0.1248  0.4991  0.4815
16239TIP3    H270133   2.282   4.935  12.737 -0.2245  0.9168 -1.0814
16240TIP3   OH270134   0.077   2.839   5.511  0.8166 -0.6388 -0.4880
16240TIP3    H170135   0.108   2.760   5.555  2.4670 -0.1209 -0.6829
16240TIP3    H270136   0.145   2.860   5.448  0.7130  1.3041 -0.0101
16241TIP3   OH270137   3.360   0.898   3.384 -0.6413 -0.6551 -0.3191
16241TIP3    H170138   3.345   0.942   3.468 -1.1390 -0.6309 -0.4182
16241TIP3    H270139   3.274   0.894   3.343 -0.4211 -0.7758 -0.7792
16242TIP3   OH270140   2.457   0.492   5.524 -0.4460  0.2668 -0.8059
16242TIP3    H170141   2.413   0.563   5.570 -1.1968 -0.2161 -0.7497
16242TIP3    H270142   2.550   0.513   5.529 -0.5196  0.2731  0.8351
16243TIP3   OH270143   6.157   5.809   0.595 -0.3774  0.4887 -0.0472
16243TIP3    H170144   6.247   5.838   0.583  0.1071 -0.5258  0.9168
16243TIP3    H270145   6.158   5.716   0.573 -0.7706  0.0490  1.6117
16244TIP3   OH270146   3.258   6.656  13.997  0.2807  0.1041 -0.6256
16244TIP3    H170147   3.209   6.635  13.918  0.6052 -1.1533 -0.5122
16244TIP3    H270148   3.341   6.690  13.965  0.5666 -0.7703 -0.8450
16245TIP3   OH270149   0.047   1.201   6.039 -0.1398  0.1360 -0.2024
16245TIP3    H170150   0.089   1.268   6.094 -1.5208  0.7042  0.2175
16245TIP3    H270151  -0.047   1.211   6.058 -0.6458  0.2167 -2.5200
16246TIP3   OH270152   3.844   4.823   3.743  0.4570 -0.0808 -0.0476
16246TIP3    H170153   3.922   4.777   3.712  0.8014  1.4931 -1.7147
16246TIP3    H270154   3.778   4.806   3.676  0.3454  1.1107 -0.2704
16247TIP3   OH270155   0.787   0.551   1.200  0.0248  0.4644 -0.0516
16247TIP3    H170156   0.759   0.483   1.261  1.2019  0.3091  0.3358
16247TIP3    H270157   0.819   0.622   1.256  0.4147  0.6295 -0.4743
16248TIP3   OH270158   1.731   1.091  13.069  0.2287 -0.3159 -0.2283
16248TIP3    H170159   1.803   1.035  13.040 -1.7687 -2.2037 -1.9377
16248TIP3    H270160   1.664   1.029  13.099 -1.2377  1.2938 -0.0715
16249TIP3   OH270161   0.005   6.780  12.630  0.0592  0.4223  0.5702
16249TIP3    H170162  -0.037   6.726  12.564  0.4082  2.2225 -1.2275
16249TIP3    H270163  -0.042   6.863  12.628  2.1125  1.6672  0.1805
16250TIP3   OH270164   1.455   1.260  16.930 -0.3676 -0.1111  0.3100
16250TIP3    H170165   1.360   1.265  16.943 -0.4442  1.1395 -0.5947
16250TIP3    H270166   1.467   1.268  16.835  0.7085  1.1668  0.5270
16251TIP3   OH270167   6.338   6.138   4.700  0.2572  0.3072 -0.0619
16251TIP3    H170168   6.431   6.116   4.692  0.4496  0.9901  0.1631
16251TIP3    H270169   6.303   6.077   4.764  0.8255  0.7912  0.7214
16252TIP3   OH270170   0.665   0.165  11.206 -0.1624  0.1506 -0.0272
16252TIP3    H170171   0.734   0.215  11.163 -0.9964  1.9156  0.5818
16252TIP3    H270172   0.602   0.147  11.136  0.3515 -0.4653 -0.3423
16253TIP3   OH270173   1.178   2.918   6.160  0.4923 -0.1159  0.0134
16253TIP3    H170174   1.269   2.889   6.158  0.5166 -0.0054 -0.8516
16253TIP3    H270175   1.159   2.944   6.070 -0.4204 -0.2128  0.1676
16254TIP3   OH270176   5.924   4.748   2.117 -0.6223  0.2679  0.3377
16254TIP3    H170177   5.989   4.729   2.185 -0.4840 -1.6532 -0.2790
16254TIP3    H270178   5.840   4.730   2.158 -0.4700 -2.4356 -0.3956
16255TIP3   OH270179   0.548   1.604   6.447 -0.2940 -0.4575  0.1131
16255TIP3    H170180   0.605   1.671   6.486  0.7217 -0.8970 -0.5629
16255TIP3    H270181   0.606   1.528   6.436 -1.1930 -1.1385  0.0063
16256TIP3   OH270182   6.039   2.946   1.611 -0.3416  0.7098 -0.6447
16256TIP3    H170183   5.961   2.902   1.646 -0.9352  1.6870 -0.7152
16256TIP3    H270184   6.096   2.957   1.686 -0.5451  0.5656 -0.4675
16257TIP3   OH270185   1.404   3.441  16.888 -0.2126 -0.0201 -0.6589
16257TIP3    H170186   1.467   3.400  16.947 -0.7385 -0.4425 -0.3823
16257TIP3    H270187   1.363   3.510  16.940 -1.0448 -0.7269 -0.3470
16258TIP3   OH270188   4.494   5.939  11.698  0.4931  0.0055  0.3140
16258TIP3    H170189   4.532   6.011  11.648  0.9428 -0.0753  0.5411
16258TIP3    H270190   4.459   5.880  11.631 -1.7493  1.4112  0.1355
16259TIP3   OH270191   0.716   4.653   1.503  0.2802 -0.4200  0.2895
16259TIP3    H170192   0.798   4.646   1.552  0.7307  2.2960  0.0502
16259TIP3    H270193   0.649   4.666   1.571  0.1470 -1.5934  0.4144
16260TIP3   OH270194   0.455   1.050   4.580 -0.5050 -0.1488  0.4455
16260TIP3    H170195   0.360   1.052   4.588 -0.6740  1.4543 -1.2179
16260TIP3    H270196   0.473   0.968   4.533 -0.7442 -1.8849  3.1970
16261TIP3   OH270197   3.525   3.042  14.534 -0.1200  0.6642  0.1121
16261TIP3    H170198   3.474   2.972  14.493 -1.4523  1.4450  0.3375
16261TIP3    H270199   3.609   3.003  14.554  0.0134 -0.2115 -1.8745
16262TIP3   OH270200   0.685   0.024  10.687 -0.2244  0.0790  0.2214
16262TIP3    H170201   0.690   0.110  10.729  0.8003  0.4902 -0.6773
16262TIP3    H270202   0.768   0.016  10.640  0.1254 -1.8506  1.0945
16263TIP3   OH270203   4.483   4.303  15.339  0.0704  0.2098  0.0525
16263TIP3    H170204   4.468   4.398  15.340  1.6731  0.4801  0.4993
16263TIP3    H270205   4.433   4.272  15.264  0.2731  1.5365 -0.6638
16264TIP3   OH270206   3.923   2.940  16.686  0.1401  0.3118  0.3422
16264TIP3    H170207   3.893   3.005  16.749  1.0127  1.2325 -0.1679
16264TIP3    H270208   4.007   2.909  16.720  1.7987  2.5025 -1.4239
16265TIP3   OH270209   1.907   2.911  11.790  0.1240  0.3081 -0.9430
16265TIP3    H170210   1.920   2.887  11.882  0.8073 -2.7493 -1.7320
16265TIP3    H270211   1.895   3.006  11.792 -1.5519  0.1987  2.4572
16266TIP3   OH270212   0.793   3.987  15.545 -0.4305 -0.5543 -0.7421
16266TIP3    H170213   0.828   4.076  15.535  1.1118 -1.1052 -0.3700
16266TIP3    H270214   0.718   3.998  15.603  0.1669  0.4222 -0.1272
16267TIP3   OH270215   4.323   1.861  10.670 -0.0173 -0.0012  0.5707
16267TIP3    H170216   4.234   1.887  10.691  0.0242 -0.4301  1.3235
16267TIP3    H270217   4.314   1.799  10.598 -0.1625  1.5611 -0.7924
16268TIP3   OH270218   0.742   4.629  13.094 -0.1950  0.1155  0.2036
16268TIP3    H170219   0.663   4.683  13.090  0.4101  1.0477  0.5619
16268TIP3    H270220   0.720   4.560  13.157 -1.8110 -1.5270 -1.9833
16269TIP3   OH270221   3.263   2.859  12.508  0.6378 -0.1501 -0.2303
16269TIP3    H170222   3.172   2.831  12.513  0.8426 -0.7033  0.5658
16269TIP3    H270223   3.262   2.949  12.542  0.6349 -0.7640  1.5079
16270TIP3   OH270224   1.806   2.847   5.889  0.7321  0.4861  0.0593
16270TIP3    H170225   1.842   2.905   5.956  2.6580 -0.9019  0.2952
16270TIP3    H270226   1.744   2.791   5.936  2.9194 -1.2682  1.0610
16271TIP3   OH270227   2.806   0.165   5.729 -0.3826  0.1965 -0.2146
16271TIP3    H170228   2.869   0.237   5.722 -1.0980  0.9010  0.4745
16271TIP3    H270229   2.803   0.145   5.822 -2.7811  1.6592  0.0957
16272TIP3   OH270230   3.358   4.143   4.757  1.1346  0.0983 -0.5113
16272TIP3    H170231   3.319   4.070   4.709  0.8916  0.3844 -0.7541
16272TIP3    H270232   3.435   4.168   4.705  1.3994 -0.1892 -0.2598
16273TIP3   OH270233   3.635   4.489   6.117  0.2952  0.1876  0.2489
16273TIP3    H170234   3.638   4.574   6.072 -2.1895  0.1828 -0.0736
16273TIP3    H270235   3.575   4.502   6.190  0.6948 -1.0460  0.8351
16274TIP3   OH270236   2.281   1.820  14.486  0.6337  0.2001 -0.3093
16274TIP3    H170237   2.334   1.747  14.519  0.7210  0.1700 -0.5162
16274TIP3    H270238   2.302   1.825  14.393 -1.6855 -1.5408 -1.0349
16275TIP3   OH270239   4.875   3.387   3.911  0.0725  0.3620  0.3622
16275TIP3    H170240   4.925   3.327   3.856 -2.2657 -0.3825 -1.1064
16275TIP3    H270241   4.824   3.331   3.969 -2.0113  0.7930 -0.9065
16276TIP3   OH270242   2.676   2.520   3.649  0.3419 -0.2212  0.2105
16276TIP3    H170243   2.595   2.567   3.671  0.2114 -1.1690  2.0076
16276TIP3    H270244   2.681   2.523   3.554 -0.8832  1.3786  0.1580
16277TIP3   OH270245   5.931   1.972  13.818 -0.6667  0.4935 -0.5093
16277TIP3    H170246   5.855   1.960  13.762  0.0274  0.4529 -1.4734
16277TIP3    H270247   5.959   1.884  13.841 -0.2541  0.4661 -1.0866
16278TIP3   OH270248   5.091   4.410  16.628 -0.3440  0.1795 -0.0853
16278TIP3    H170249   5.003   4.443  16.642 -0.0915  2.1850 -2.4610
16278TIP3    H270250   5.148   4.472  16.673 -0.0863 -0.9278  1.1742
16279TIP3   OH270251   4.431   4.112   2.496 -0.3092 -0.5062 -0.5993
16279TIP3    H170252   4.408   4.034   2.448 -1.3232 -0.5134 -0.1197
16279TIP3    H270253   4.351   4.164   2.498 -0.2055 -0.3627  0.7801
16280TIP3   OH270254   3.011   3.734   1.254  0.1113  0.3884 -0.7284
16280TIP3    H170255   2.921   3.727   1.222  0.5488  1.2291 -2.2307
16280TIP3    H270256   3.037   3.644   1.272 -0.2284 -0.1206 -2.6322
16281TIP3   OH270257   1.481   1.241  10.338  0.1847  0.1521 -0.1817
16281TIP3    H170258   1.546   1.196  10.283 -0.4232 -1.2253  0.1929
16281TIP3    H270259   1.511   1.226  10.427 -0.0290  0.5032 -0.0482
16282TIP3   OH270260   2.060   2.263   3.490 -0.7239 -0.0694  0.0148
16282TIP3    H170261   2.136   2.311   3.523 -1.6168  0.8247  0.8830
16282TIP3    H270262   2.060   2.280   3.396  0.3264 -0.3652 -0.0522
16283TIP3   OH270263   4.436   3.505  13.766 -0.1754  0.0809 -0.3542
16283TIP3    H170264   4.521   3.463  13.751 -0.8076 -1.5540  0.3391
16283TIP3    H270265   4.394   3.450  13.833 -1.5862  1.1331 -0.3320
16284TIP3   OH270266   4.887   2.884  15.215 -0.2814  0.2282 -0.1423
16284TIP3    H170267   4.837   2.842  15.145 -0.5186  0.2809 -0.0032
16284TIP3    H270268   4.901   2.974  15.183 -0.1969  0.1881 -0.2202
16285TIP3   OH270269   1.320   3.208   1.661 -0.0454 -0.5540 -0.2660
16285TIP3    H170270   1.376   3.131   1.677  0.4773 -0.0770  0.2620
16285TIP3    H270271   1.244   3.193   1.717 -0.2814 -1.0264 -0.7033
16286TIP3   OH270272   6.415   5.351  11.035 -0.2412  0.1922 -0.1557
16286TIP3    H170273   6.344   5.348  10.970 -1.1769 -0.1176  0.8432
16286TIP3    H270274   6.437   5.260  11.050  1.0678  0.3080 -1.1503
16287TIP3   OH270275   0.138   1.109  11.446 -0.0577 -0.4307  0.0649
16287TIP3    H170276   0.175   1.185  11.400  0.0529 -1.2684 -1.2594
16287TIP3    H270277   0.091   1.147  11.520  1.3589  0.8307  0.3627
16288TIP3   OH270278   3.432   6.778  12.053 -0.7375  0.1071  0.7241
16288TIP3    H170279   3.406   6.729  12.131  1.8026 -0.0625  1.5257
16288TIP3    H270280   3.483   6.715  12.001 -1.7359  0.4512 -0.7374
16289TIP3   OH270281   4.309   4.076   5.083  0.3674  0.0868 -0.4911
16289TIP3    H170282   4.325   4.045   5.173 -0.4891  0.5372 -0.1649
16289TIP3    H270283   4.360   4.017   5.028 -1.3824 -2.1118  0.0722
16290TIP3   OH270284   6.287   4.459  12.709  0.0214  0.3542  0.0883
16290TIP3    H170285   6.235   4.450  12.789  2.6775  0.7560  1.9838
16290TIP3    H270286   6.301   4.553  12.699 -1.4547  0.4454 -1.7529
16291TIP3   OH270287   6.125   3.377   0.086  0.1715 -0.0321 -0.2914
16291TIP3    H170288   6.207   3.339   0.054  0.6102  0.9740 -0.3867
16291TIP3    H270289   6.083   3.305   0.134  1.0557 -0.5921 -0.3277
16292TIP3   OH270290   1.502   3.143  11.379  0.7238  0.1277  0.5388
16292TIP3    H170291   1.477   3.218  11.324  0.6785  0.1306  0.5634
16292TIP3    H270292   1.425   3.127  11.434 -0.2586 -1.5818 -1.2345
16293TIP3   OH270293   4.080   3.204   3.822 -0.3066  0.4066  0.2638
16293TIP3    H170294   4.145   3.136   3.804  0.3105  0.5783  1.7726
16293TIP3    H270295   4.004   3.156   3.856  0.6263  0.5225  2.6768
16294TIP3   OH270296   0.800   3.230  12.221  0.7772 -0.1494 -0.9911
16294TIP3    H170297   0.884   3.268  12.248 -0.8008  0.5629  4.0496
16294TIP3    H270298   0.749   3.304  12.189  0.7776  0.2707 -0.0672
16295TIP3   OH270299   6.613   1.498   1.383 -0.0250 -0.1665 -0.1356
16295TIP3    H170300   6.619   1.439   1.308  0.6919 -0.2308 -0.0370
16295TIP3    H270301   6.700   1.539   1.388  0.1733 -0.7239  1.1118
16296TIP3   OH270302   4.424   1.016  16.842  0.6576  0.4788 -0.2981
16296TIP3    H170303   4.483   0.941  16.843  0.7212  0.5311  0.5695
16296TIP3    H270304   4.445   1.064  16.922 -2.4173 -0.9652  1.5578
16297TIP3   OH270305   0.810   1.081  11.321 -0.4507  0.1280 -0.7861
16297TIP3    H170306   0.842   0.991  11.321  1.2546  0.6890 -1.4603
16297TIP3    H270307   0.743   1.083  11.389 -0.8418 -1.7410 -1.0719
16298TIP3   OH270308   3.046   4.568   3.168 -0.0336 -0.2984  0.6597
16298TIP3    H170309   2.997   4.639   3.126 -0.0641  0.2383  1.5687
16298TIP3    H270310   3.086   4.609   3.245 -0.5700 -1.3959  1.5650
16299TIP3   OH270311   5.532   4.293  11.167  0.1582  0.0118 -0.3839
16299TIP3    H170312   5.487   4.253  11.092  0.9152 -0.4690 -0.5865
16299TIP3    H270313   5.462   4.338  11.216 -0.0873  2.0804 -2.4419
16300TIP3   OH270314   6.573   2.291  16.455  0.5560 -0.5934 -0.0097
16300TIP3    H170315   6.511   2.342  16.404  0.9617  0.0047  0.0843
16300TIP3    H270316   6.643   2.269  16.393  0.0457 -1.6523 -0.2328
16301TIP3   OH270317   3.799   1.563   1.944  0.3410 -0.1859  0.0225
16301TIP3    H170318   3.827   1.518   1.865 -3.6688 -1.6184 -0.8264
16301TIP3    H270319   3.820   1.504   2.016  0.9509 -0.4262 -0.3554
16302TIP3   OH270320   0.879   2.010   3.068  0.0090  0.4537 -0.5872
16302TIP3    H170321   0.833   2.070   3.126  1.1304 -0.1557  1.0206
16302TIP3    H270322   0.972   2.021   3.090  0.2957 -1.4694 -0.5896
16303TIP3   OH270323   0.522   4.526   1.324 -0.0500  0.1387 -0.0170
16303TIP3    H170324   0.615   4.529   1.344 -0.1560  0.9935  0.3913
16303TIP3    H270325   0.508   4.439   1.288  0.4741 -0.8605  2.0555
16304TIP3   OH270326   3.727   6.162  13.225 -0.1852  0.3772 -0.1643
16304TIP3    H170327   3.687   6.185  13.141 -2.6800 -1.0478  0.5029
16304TIP3    H270328   3.675   6.210  13.290 -0.1873 -0.7613  0.7024
16305TIP3   OH270329   3.724   3.336   2.652  0.0023  0.4560  0.3374
16305TIP3    H170330   3.673   3.312   2.575  0.6198 -0.5548  0.2266
16305TIP3    H270331   3.682   3.415   2.685  0.6250  1.8207 -1.9068
16306TIP3   OH270332   1.542   1.726   1.224  0.3001 -0.2710 -0.4619
16306TIP3    H170333   1.580   1.798   1.276  0.5777 -0.9995  0.3578
16306TIP3    H270334   1.567   1.647   1.271 -0.8081 -0.8626 -0.8486
16307TIP3   OH270335   3.237   6.027  11.898  0.2745  0.0590  0.1979
16307TIP3    H170336   3.165   6.088  11.881  0.8423  0.6004 -0.3366
16307TIP3    H270337   3.238   6.016  11.993  0.8168  1.7141  0.4200
16308TIP3   OH270338   1.715   3.014  12.593  0.2996 -0.2271 -0.0119
16308TIP3    H170339   1.656   2.971  12.532 -0.3956  1.7244 -0.7653
16308TIP3    H270340   1.798   3.020  12.546  0.3116 -0.4418 -0.0203
16309TIP3   OH270341   6.247   6.545   1.265 -0.5339  0.3827 -0.1610
16309TIP3    H170342   6.205   6.613   1.212  0.3169 -0.0294 -1.3874
16309TIP3    H270343   6.241   6.466   1.212 -1.9645 -0.6618  1.4592
16310TIP3   OH270344   5.962   5.443   4.867 -0.2735 -0.2305 -0.3372
16310TIP3    H170345   6.029   5.437   4.935 -0.0497 -2.0719 -0.6694
16310TIP3    H270346   6.011   5.447   4.785 -0.5268  2.4332 -0.4606
16311TIP3   OH270347   0.385   1.119   5.802 -0.4038  0.0568  0.0797
16311TIP3    H170348   0.318   1.186   5.817  2.4616  3.7216 -1.8485
16311TIP3    H270349   0.417   1.137   5.714  2.6296 -1.9239  0.6490
16312TIP3   OH270350   6.022   3.684   2.066 -0.0237 -0.2983 -0.0560
16312TIP3    H170351   6.070   3.603   2.050  0.1491 -0.1663 -0.2089
16312TIP3    H270352   6.052   3.714   2.152 -0.7449 -0.8609  0.4103
16313TIP3   OH270353   0.148   0.170  16.562  0.2972 -0.3339  0.1248
16313TIP3    H170354   0.093   0.155  16.485  0.5157 -1.0656  0.1011
16313TIP3    H270355   0.109   0.246  16.605  1.2716  1.2790 -1.6968
16314TIP3   OH270356   3.984   4.206   4.823 -0.5214 -0.0057 -0.0782
16314TIP3    H170357   3.971   4.135   4.886  0.8257 -0.3216 -0.1324
16314TIP3    H270358   3.983   4.286   4.876  1.5657 -0.3368  0.5107
16315TIP3   OH270359   0.258   2.845   5.268  0.0413  0.1785 -0.4440
16315TIP3    H170360   0.302   2.773   5.223  1.0049 -0.4281  1.3737
16315TIP3    H270361   0.325   2.913   5.276 -0.2613  0.4655 -0.3303
16316TIP3   OH270362   3.113   2.550  11.756 -0.7493 -0.6321  0.7537
16316TIP3    H170363   3.142   2.632  11.796 -1.6297  0.2427 -0.3565
16316TIP3    H270364   3.169   2.540  11.679 -1.3149 -0.5396  0.3245
16317TIP3   OH270365   0.287   5.750   4.463  0.1921  0.1033 -0.2297
16317TIP3    H170366   0.219   5.809   4.495 -0.2120  0.3015 -1.4012
16317TIP3    H270367   0.281   5.673   4.519 -0.1583  0.6367  0.4724
16318TIP3   OH270368   0.694   0.553  16.708 -0.1698  0.5993  0.0926
16318TIP3    H170369   0.783   0.559  16.672  0.2562 -0.4627  0.9387
16318TIP3    H270370   0.642   0.517  16.637  0.8299 -2.2783  0.7028
16319TIP3   OH270371   3.625   4.938   3.031 -0.3740  0.3706  0.4704
16319TIP3    H170372   3.645   4.993   2.956 -1.1442  0.5539  0.3936
16319TIP3    H270373   3.597   4.999   3.099 -0.4782  0.1376  0.6389
16320TIP3   OH270374   3.030   6.005   4.638 -0.1400  0.0685  0.1564
16320TIP3    H170375   3.039   6.062   4.714 -2.4185  0.0161  0.5251
16320TIP3    H270376   3.109   6.023   4.586  0.4853  1.5927  1.5296
16321TIP3   OH270377   5.571   1.710  12.817 -0.1187 -0.3293 -0.1020
16321TIP3    H170378   5.577   1.655  12.739 -0.1051  1.7821 -1.6476
16321TIP3    H270379   5.662   1.723  12.844 -0.1058 -0.7753  0.0840
16322TIP3   OH270380   6.216   5.226  16.153  0.6423  0.6342 -0.3953
16322TIP3    H170381   6.301   5.181  16.153  1.0055  1.3029 -0.6315
16322TIP3    H270382   6.201   5.246  16.245  1.0136  1.0134 -0.4146
16323TIP3   OH270383   5.320   4.257   1.065 -0.1766  0.2138 -0.4992
16323TIP3    H170384   5.310   4.352   1.062 -1.7705  0.0633 -1.0463
16323TIP3    H270385   5.365   4.235   0.984 -0.3399  0.4547 -0.6568
16324TIP3   OH270386   0.927   2.474   3.959 -0.1961 -0.9540 -0.3741
16324TIP3    H170387   1.011   2.512   3.982 -0.9995  0.3960  0.4851
16324TIP3    H270388   0.864   2.545   3.972 -1.5170 -2.0297 -0.6432
16325TIP3   OH270389   5.189   5.957  11.149  0.6244  0.6923  0.2180
16325TIP3    H170390   5.108   5.949  11.201 -0.1768  1.2597 -0.8879
16325TIP3    H270391   5.197   6.051  11.132  0.5546  0.4689 -1.1367
16326TIP3   OH270392   5.731   6.544   3.165  0.3884  0.3203 -0.4236
16326TIP3    H170393   5.751   6.524   3.257  0.6576  2.4626  0.0288
16326TIP3    H270394   5.635   6.548   3.163  0.3352 -0.6799 -0.4795
16327TIP3   OH270395   4.088   2.789   1.605  0.0180 -0.0138 -0.9991
16327TIP3    H170396   4.178   2.809   1.631 -0.1293  0.1357 -0.5986
16327TIP3    H270397   4.066   2.856   1.540  0.1650 -0.0025 -1.0383
16328TIP3   OH270398   0.500   0.130   2.112  0.0582  1.0170  0.0594
16328TIP3    H170399   0.575   0.165   2.064 -0.1487  0.3096 -0.7998
16328TIP3    H270400   0.481   0.047   2.069 -0.7201  0.8129  0.7816
16329TIP3   OH270401   6.236   2.155  15.127 -0.6206  0.0166 -0.0322
16329TIP3    H170402   6.243   2.222  15.195 -3.0015  0.9183 -0.5701
16329TIP3    H270403   6.292   2.186  15.056 -1.0331  1.0331  0.0669
16330TIP3   OH270404   6.469   6.378   3.239  0.2888 -0.0343  0.3335
16330TIP3    H170405   6.398   6.376   3.302  0.5695  0.4973  0.6817
16330TIP3    H270406   6.514   6.461   3.258  2.1325 -1.2076  1.3952
16331TIP3   OH270407   5.610   6.808   1.561  1.1113 -0.4092 -0.5337
16331TIP3    H170408   5.632   6.886   1.510 -0.1421 -0.3199 -0.9704
16331TIP3    H270409   5.564   6.841   1.638  0.7657 -0.7017 -0.6109
16332TIP3   OH270410   0.806   4.769   4.108 -0.1531 -0.1614 -0.2051
16332TIP3    H170411   0.880   4.724   4.148 -0.8169 -1.2814 -0.2079
16332TIP3    H270412   0.771   4.824   4.178  0.4789  0.1417 -0.1156
16333TIP3   OH270413   1.908   2.293  14.734  0.4326 -0.9611  0.0133
16333TIP3    H170414   1.829   2.296  14.680  0.6615  0.3375 -0.2991
16333TIP3    H270415   1.891   2.357  14.803  0.5024 -1.9697  0.9780
16334TIP3   OH270416   4.613   4.488  13.652  0.0883  0.1307 -0.1811
16334TIP3    H170417   4.631   4.465  13.561 -1.2966  1.2298 -0.7592
16334TIP3    H270418   4.677   4.557  13.673  2.4404 -2.1422  0.7085
16335TIP3   OH270419   1.106   1.173   4.817  0.0772  0.4590 -0.4708
16335TIP3    H170420   1.171   1.123   4.768  0.0839 -0.0627  0.0473
16335TIP3    H270421   1.146   1.186   4.903 -0.3761  0.3938 -0.2469
16336TIP3   OH270422   1.361   4.973  13.471 -0.4180 -0.0427  0.0665
16336TIP3    H170423   1.410   5.045  13.509 -1.2931  0.5363  0.1291
16336TIP3    H270424   1.269   5.002  13.472 -0.8617 -1.3719  0.5945
16337TIP3   OH270425   2.404   1.272   0.124  0.5198 -0.5041  0.0110
16337TIP3    H170426   2.357   1.291   0.043 -0.6224 -2.2982  0.2031
16337TIP3    H270427   2.408   1.356   0.169 -2.5419 -0.2310 -0.0386
16338TIP3   OH270428   4.804   2.316   5.804  0.2380 -0.1410  0.4476
16338TIP3    H170429   4.754   2.348   5.728  0.9877 -1.9710 -0.8971
16338TIP3    H270430   4.739   2.304   5.873 -0.5452  1.1089 -0.0469
16339TIP3   OH270431   0.298   6.054  12.784  0.5577  0.7978 -0.5050
16339TIP3    H170432   0.393   6.045  12.795  0.2558 -0.3241  1.5345
16339TIP3    H270433   0.273   5.982  12.726  0.9797  1.3303 -1.3669
16340TIP3   OH270434   4.846   2.844   4.617 -0.8136 -1.0220  0.3789
16340TIP3    H170435   4.801   2.831   4.700 -1.3254 -1.3454  0.0573
16340TIP3    H270436   4.932   2.804   4.630  1.1188  3.2267  2.4343
16341TIP3   OH270437   5.257   3.407   3.224 -0.1091 -0.0962 -0.5776
16341TIP3    H170438   5.344   3.447   3.212  0.5046 -1.4411 -0.7690
16341TIP3    H270439   5.203   3.446   3.156  0.1771  1.1906 -0.0972
16342TIP3   OH270440   1.627   6.427  12.742 -0.1940 -0.4116  0.5872
16342TIP3    H170441   1.669   6.366  12.803  1.5429 -1.1437 -1.2279
16342TIP3    H270442   1.676   6.508  12.750 -1.5056  0.3221  1.8381
16343TIP3   OH270443   0.787   4.216  16.201 -0.2087 -0.1924  0.7021
16343TIP3    H170444   0.804   4.304  16.167 -0.2744 -0.2533  0.5089
16343TIP3    H270445   0.851   4.160  16.156  0.3863 -0.1206  1.4340
16344TIP3   OH270446   1.402   2.947   1.724 -0.1592  0.3736  0.4268
16344TIP3    H170447   1.327   2.896   1.753 -0.2951  0.2004 -0.2117
16344TIP3    H270448   1.474   2.919   1.780  0.2708 -2.0045 -1.1803
16345TIP3   OH270449   2.736   3.725  13.260  0.1664 -0.3561 -0.2792
16345TIP3    H170450   2.658   3.777  13.280  0.3355 -0.1822 -0.0642
16345TIP3    H270451   2.746   3.666  13.334 -0.3311 -1.0768 -0.7695
16346TIP3   OH270452   2.795   1.594   3.009 -0.0381 -0.2605  0.5878
16346TIP3    H170453   2.732   1.555   3.070 -0.2843  1.0523  1.2208
16346TIP3    H270454   2.771   1.559   2.923 -2.6263  1.2843  0.5574
16347TIP3   OH270455   4.998   4.902  12.635  0.3478  0.0960  0.4984
16347TIP3    H170456   4.915   4.936  12.602 -0.9642 -1.8260  1.5871
16347TIP3    H270457   5.039   4.862  12.558 -1.1836 -1.5384  0.4526
16348TIP3   OH270458   5.822   3.057   0.718  0.4384 -0.2903  0.1724
16348TIP3    H170459   5.895   3.119   0.711  0.3687 -0.3047 -0.7331
16348TIP3    H270460   5.854   2.990   0.778  1.2958 -0.4684 -0.4682
16349TIP3   OH270461   5.202   0.791   1.055  0.3664  0.2965 -0.6895
16349TIP3    H170462   5.163   0.755   1.135  0.7600  0.3418 -0.4759
16349TIP3    H270463   5.142   0.764   0.985  0.7454 -0.9510 -0.5667
16350TIP3   OH270464   6.257   2.135  15.782 -0.1986  0.0852  0.3011
16350TIP3    H170465   6.312   2.065  15.817  0.7222  0.8769  0.4951
16350TIP3    H270466   6.206   2.093  15.713  0.7768 -0.6522 -0.0096
16351TIP3   OH270467   0.526   4.987   1.368 -0.3770 -0.1192 -0.0716
16351TIP3    H170468   0.570   5.034   1.297 -0.7998  0.7241  0.2029
16351TIP3    H270469   0.456   4.938   1.325 -1.2240  1.1142 -0.1644
16352TIP3   OH270470   6.334   4.133  13.564 -0.1874 -0.7746  0.7025
16352TIP3    H170471   6.394   4.100  13.631  0.0296  1.6578  1.8248
16352TIP3    H270472   6.298   4.213  13.602 -1.1143 -0.0415 -1.5651
16353TIP3   OH270473   1.405   4.269  15.974 -0.2083  0.6864  0.2391
16353TIP3    H170474   1.415   4.311  16.059 -0.2044  0.1208  0.5206
16353TIP3    H270475   1.476   4.305  15.921 -0.6663  1.6109  0.2414
16354TIP3   OH270476   1.168   2.777  13.343 -0.2457 -0.4891  0.1682
16354TIP3    H170477   1.228   2.716  13.384 -0.7476 -0.1241  1.4940
16354TIP3    H270478   1.173   2.757  13.249  2.2998 -0.1081  0.1685
16355TIP3   OH270479   2.918   2.870  12.758 -0.3976  0.0045  0.2268
16355TIP3    H170480   3.005   2.909  12.744 -0.7157  0.6259 -0.0593
16355TIP3    H270481   2.916   2.850  12.852 -0.1229  0.4280  0.3257
16356TIP3   OH270482   6.515   3.015   0.537  0.4046  0.1194 -0.1813
16356TIP3    H170483   6.497   3.109   0.541  0.3943  0.0736  1.3761
16356TIP3    H270484   6.576   3.006   0.464  0.9624  1.4422  0.0892
16357TIP3   OH270485   3.631   0.275  11.336  0.7553  0.3271  0.3889
16357TIP3    H170486   3.546   0.245  11.306  0.4994  2.9034 -1.8671
16357TIP3    H270487   3.694   0.217  11.292  0.2250 -0.0403  0.1042
16358TIP3   OH270488   6.496   6.565  13.551  0.1224 -0.0032  0.1557
16358TIP3    H170489   6.512   6.562  13.645 -0.9068  0.1938  0.3452
16358TIP3    H270490   6.528   6.651  13.524 -1.0387  0.5919  0.6170
16359TIP3   OH270491   4.295   3.851   3.951 -0.1307 -0.1516 -0.0053
16359TIP3    H170492   4.308   3.945   3.953  0.4950 -0.2342  2.0083
16359TIP3    H270493   4.348   3.821   3.877  0.9191  0.9207  0.2731
16360TIP3   OH270494   5.405   1.561   5.068 -0.0580 -0.5944  0.1264
16360TIP3    H170495   5.326   1.548   5.121 -2.1667 -0.1357 -2.6810
16360TIP3    H270496   5.408   1.655   5.052 -0.3049 -0.8712 -1.6802
16361TIP3   OH270497   4.627   2.788   1.765  0.4956 -0.2726  0.2779
16361TIP3    H170498   4.615   2.837   1.683 -0.7651 -0.8444  0.1059
16361TIP3    H270499   4.704   2.734   1.749  2.1716  1.8845  0.6062
16362TIP3   OH270500   2.192   4.030  11.577  0.4622  0.2239 -0.4038
16362TIP3    H170501   2.183   4.033  11.672  0.3938 -0.2947 -0.3882
16362TIP3    H270502   2.124   4.088  11.544 -0.1170 -0.3028 -0.1563
16363TIP3   OH270503   5.777   3.724   2.814  0.2349  0.1943  0.0573
16363TIP3    H170504   5.701   3.682   2.774 -0.6211  0.5417  1.2491
16363TIP3    H270505   5.749   3.815   2.829  0.7021  0.2086  0.9266
16364TIP3   OH270506   1.169   4.692   1.645  0.3125 -0.0801  0.3812
16364TIP3    H170507   1.101   4.640   1.689 -0.3147 -1.1093 -1.7120
16364TIP3    H270508   1.120   4.757   1.595  0.9891  0.6789  0.6907
16365TIP3   OH270509   5.458   2.647   4.843 -0.8146 -0.1229  0.3306
16365TIP3    H170510   5.472   2.628   4.936 -1.3135 -2.1372  0.0368
16365TIP3    H270511   5.404   2.726   4.843  0.7369  1.0365  1.6758
16366TIP3   OH270512   6.688   3.113  13.609 -0.0848 -0.6826 -0.1192
16366TIP3    H170513   6.608   3.063  13.627  0.6355 -1.7124  0.2981
16366TIP3    H270514   6.754   3.075  13.667 -0.0651  2.4148  2.1393
16367TIP3   OH270515   4.368   2.581  11.724  0.0060  0.5773 -0.3567
16367TIP3    H170516   4.400   2.660  11.682 -2.1426  1.2506 -0.8581
16367TIP3    H270517   4.278   2.571  11.692  0.2872 -2.2225 -0.5146
16368TIP3   OH270518   2.110   1.579   2.640 -0.3561 -0.5827 -0.0025
16368TIP3    H170519   2.039   1.570   2.576 -1.4715 -1.7049  1.3237
16368TIP3    H270520   2.068   1.611   2.719  0.5004 -1.7113  0.9572
16369TIP3   OH270521   2.040   6.040  11.257  0.0158  0.0457  0.1643
16369TIP3    H170522   2.042   5.991  11.340 -0.0557 -2.3052 -1.1494
16369TIP3    H270523   1.947   6.053  11.240  0.0437  1.0957  0.7323
16370TIP3   OH270524   6.321   0.060   5.736 -0.3629 -0.7193  0.0187
16370TIP3    H170525   6.257   0.117   5.693 -2.1677 -2.8024 -0.2545
16370TIP3    H270526   6.268   0.003   5.792  1.1659 -2.9358 -0.6655
16371TIP3   OH270527   1.980   2.607   0.763  0.2355  0.0264 -0.0344
16371TIP3    H170528   2.000   2.516   0.738  1.4260  0.3169 -0.2012
16371TIP3    H270529   1.937   2.599   0.849 -0.9547 -0.7701 -0.6694
16372TIP3   OH270530   6.580   2.427   5.831  0.2933 -0.2701 -0.6901
16372TIP3    H170531   6.501   2.457   5.876  0.7551  1.0337 -0.7192
16372TIP3    H270532   6.617   2.360   5.890 -0.6302 -0.6481 -0.5188
16373TIP3   OH270533   2.353   1.166   3.245 -0.2883 -0.4751  0.1964
16373TIP3    H170534   2.366   1.130   3.158  0.6793 -1.2019  0.6181
16373TIP3    H270535   2.265   1.139   3.270 -0.5564 -0.2852 -0.5382
16374TIP3   OH270536   5.258   1.786  15.121 -0.4017 -0.7964 -0.5294
16374TIP3    H170537   5.319   1.715  15.141 -1.1394 -1.4881 -0.7039
16374TIP3    H270538   5.256   1.838  15.202  0.8433 -0.4336 -0.7145
16375TIP3   OH270539   5.647   4.162   1.579  0.4446  0.1175 -0.1308
16375TIP3    H170540   5.735   4.137   1.549  0.0524  0.1232 -1.3396
16375TIP3    H270541   5.620   4.231   1.519 -0.2287  0.4063  0.4923
16376TIP3   OH270542   4.977   2.566   3.041  0.1371  0.0733  0.3482
16376TIP3    H170543   5.026   2.648   3.038 -1.5310  1.1160 -0.4421
16376TIP3    H270544   4.930   2.570   3.125 -0.4178  0.2340  0.0337
16377TIP3   OH270545   4.327   4.523  13.521 -0.3589  0.3329  0.0352
16377TIP3    H170546   4.357   4.584  13.589  0.6971  0.1683 -0.2670
16377TIP3    H270547   4.369   4.440  13.544 -0.6854  0.0625 -0.3349
16378TIP3   OH270548   5.127   4.343   1.319  0.3472 -0.0858 -0.0958
16378TIP3    H170549   5.070   4.376   1.250  2.0039 -0.2870 -1.6491
16378TIP3    H270550   5.123   4.248   1.309 -0.9780 -0.2343  1.4704
16379TIP3   OH270551   2.086   5.395  14.819  0.4479 -0.0313  0.1560
16379TIP3    H170552   2.000   5.377  14.857  0.7730  0.1082  0.9839
16379TIP3    H270553   2.145   5.396  14.894  1.1303  0.1423 -0.3765
16380TIP3   OH270554   0.989   4.745   1.132  0.4680 -0.4235  0.4724
16380TIP3    H170555   1.012   4.660   1.096  1.0699  0.1986 -0.6585
16380TIP3    H270556   0.896   4.736   1.156  0.1516 -0.9990 -0.8621
16381TIP3   OH270557   3.392   1.993   4.954  0.1654 -0.4828  0.3623
16381TIP3    H170558   3.322   1.928   4.964  0.2731 -0.7227 -0.4118
16381TIP3    H270559   3.470   1.942   4.933  0.2172 -0.1003 -0.4169
16382TIP3   OH270560   4.682   3.201   2.929  0.2624 -0.6132  0.5686
16382TIP3    H170561   4.658   3.265   2.997  1.1281  1.1614 -0.6990
16382TIP3    H270562   4.775   3.183   2.945  0.2766 -0.7640  0.3225
16383TIP3   OH270563   5.370   3.584  13.202  0.0371  0.0916 -0.0527
16383TIP3    H170564   5.333   3.559  13.287  0.4049  2.3513  0.8363
16383TIP3    H270565   5.404   3.502  13.165  0.5257 -0.8325  2.2984
16384TIP3   OH270566   2.822   1.565   0.051  0.1508  0.1087 -0.2356
16384TIP3    H170567   2.886   1.587  -0.016  0.7426 -1.3129 -0.1609
16384TIP3    H270568   2.737   1.578   0.009  0.5109 -1.2514 -1.4438
16385TIP3   OH270569   0.937   3.410  14.901  0.1656 -0.0600  0.0478
16385TIP3    H170570   0.878   3.435  14.972 -1.2526  1.2641 -1.5084
16385TIP3    H270571   1.021   3.450  14.925 -0.7790  2.0521  0.1156
16386TIP3   OH270572   4.957   0.888   4.165 -0.0048  0.1078 -0.4855
16386TIP3    H170573   5.029   0.934   4.122  0.5922  0.1426  0.5148
16386TIP3    H270574   4.954   0.802   4.122  2.7225 -1.1157  1.5039
16387TIP3   OH270575   2.450   5.459   1.900 -0.1147  0.4379  0.1516
16387TIP3    H170576   2.457   5.518   1.825 -0.3441 -1.2720 -1.3093
16387TIP3    H270577   2.397   5.506   1.964  0.1814  2.0000 -0.7163
16388TIP3   OH270578   4.120   6.291   2.589  0.0384  0.3509  0.3846
16388TIP3    H170579   4.160   6.333   2.513 -0.4192 -0.5410 -0.3711
16388TIP3    H270580   4.177   6.315   2.662  1.0768  0.3845 -0.4048
16389TIP3   OH270581   5.518   6.108  12.245  0.0279  0.2198  0.0534
16389TIP3    H170582   5.577   6.146  12.179 -1.1735  1.7636 -0.2029
16389TIP3    H270583   5.458   6.054  12.194  0.9074 -1.0064  0.2676
16390TIP3   OH270584   2.675   2.366  15.239 -0.4374  0.4752 -0.4263
16390TIP3    H170585   2.696   2.428  15.308 -2.8161  0.5442  0.3324
16390TIP3    H270586   2.647   2.421  15.165  1.3765  0.3745 -1.2540
16391TIP3   OH270587   2.113   3.161   1.552 -0.1555 -0.2526  0.0736
16391TIP3    H170588   2.107   3.074   1.512  1.7007 -0.3878  0.0054
16391TIP3    H270589   2.197   3.196   1.521 -1.8420  2.5545 -1.7851
16392TIP3   OH270590   1.904   2.522   3.975 -0.2622  1.0162  0.2358
16392TIP3    H170591   1.994   2.512   3.946  0.2824  2.7425  1.1805
16392TIP3    H270592   1.902   2.607   4.018 -2.0357  0.4507  1.3969
16393TIP3   OH270593   4.549   4.744  11.058  0.4202 -0.6392 -0.3401
16393TIP3    H170594   4.494   4.763  11.134  0.7062  1.2144 -0.5616
16393TIP3    H270595   4.548   4.824  11.006  1.3059 -1.4213 -1.6350
16394TIP3   OH270596   6.369   6.747  13.054 -0.7109 -0.1745 -0.0738
16394TIP3    H170597   6.374   6.802  12.976 -1.1183  0.0021  0.0210
16394TIP3    H270598   6.453   6.702  13.058 -0.5914  0.0160 -0.4676
16395TIP3   OH270599   2.471   5.991  10.522  0.5442  0.0916  0.8646
16395TIP3    H170600   2.493   5.956  10.436  1.8022  1.3096  0.6459
16395TIP3    H270601   2.463   5.914  10.578  1.7848 -0.6262  0.1068
16396TIP3   OH270602   3.672   0.113   0.487  0.3117 -0.2747 -0.4367
16396TIP3    H170603   3.594   0.163   0.513 -0.0332 -1.4732  0.9805
16396TIP3    H270604   3.711   0.164   0.416 -2.0356  0.1213 -1.5419
16397TIP3   OH270605   6.182   4.491   4.838 -0.0748 -0.0352  0.4214
16397TIP3    H170606   6.138   4.521   4.759  3.2331 -0.2195 -1.6733
16397TIP3    H270607   6.211   4.402   4.817  0.7889 -0.1335  1.8632
16398TIP3   OH270608   3.577   5.419  16.453 -0.3462  0.1029  0.1373
16398TIP3    H170609   3.619   5.416  16.539 -0.2895 -0.0842  0.1044
16398TIP3    H270610   3.617   5.347  16.405 -2.4552 -1.6953  0.9029
16399TIP3   OH270611   6.777   0.418  12.986  0.1689  0.3571 -0.3618
16399TIP3    H170612   6.780   0.324  13.006  2.3442  0.0600 -1.8624
16399TIP3    H270613   6.762   0.422  12.892 -0.8817  1.5854 -0.1764
16400TIP3   OH270614   3.598   1.246  12.333 -0.6105  0.2332 -0.2361
16400TIP3    H170615   3.687   1.215  12.348 -1.0545 -0.9459  0.0281
16400TIP3    H270616   3.589   1.249  12.238 -0.3623  0.1443 -0.2615
16401TIP3   OH270617   2.756   2.506  12.963 -0.4265 -0.1956 -0.4522
16401TIP3    H170618   2.822   2.570  12.934 -1.0446  1.1547  0.9625
16401TIP3    H270619   2.774   2.428  12.912  1.4425  0.5699 -1.0431
16402TIP3   OH270620   6.779   1.190  16.795  0.1072  0.4130  0.3514
16402TIP3    H170621   6.780   1.109  16.744  1.0888  0.2754  0.5549
16402TIP3    H270622   6.699   1.183  16.848  0.0345 -0.2963  0.1715
16403TIP3   OH270623   5.803   2.252   5.834  0.0683 -0.2822  0.3845
16403TIP3    H170624   5.837   2.262   5.745 -0.6108  1.0029  0.2505
16403TIP3    H270625   5.762   2.336   5.854  0.2698 -0.5259  1.9489
16404TIP3   OH270626   0.574   0.629   0.215 -0.1910 -0.1278 -0.6725
16404TIP3    H170627   0.599   0.660   0.303  0.3263 -0.1619 -0.8071
16404TIP3    H270628   0.526   0.548   0.231 -0.8205  0.2944 -0.3691
16405TIP3   OH270629   1.100   1.387  15.595 -0.0574  0.4530  0.6383
16405TIP3    H170630   1.171   1.443  15.624  0.0353  0.4797  0.3667
16405TIP3    H270631   1.030   1.447  15.570  0.1432  0.4607  0.0848
16406TIP3   OH270632   1.129   1.777   2.920 -0.7632  0.3295 -0.5743
16406TIP3    H170633   1.047   1.787   2.872 -1.3938 -1.1328  0.1295
16406TIP3    H270634   1.133   1.854   2.976 -0.5464  1.5143 -2.1509
16407TIP3   OH270635   6.692   0.016  11.877 -0.0043 -0.2241 -0.3495
16407TIP3    H170636   6.729  -0.044  11.813  0.5689  1.2000 -1.4045
16407TIP3    H270637   6.768   0.060  11.916 -0.4509  0.9063 -0.7064
16408TIP3   OH270638   6.532   6.518  11.625 -0.1952  0.2507  0.3719
16408TIP3    H170639   6.542   6.613  11.632  1.1948  0.2285 -0.8205
16408TIP3    H270640   6.593   6.493  11.556  0.4280 -1.6729  1.5418
16409TIP3   OH270641   0.426   2.895   4.298 -0.5302  0.1036 -0.1501
16409TIP3    H170642   0.478   2.888   4.218  0.9501  0.6761  0.7245
16409TIP3    H270643   0.438   2.810   4.341  0.8900  0.7270  0.7371
16410TIP3   OH270644   6.010   0.784  15.436  0.7982 -0.2090  0.6386
16410TIP3    H170645   6.048   0.846  15.498  1.8721 -0.1268 -0.0647
16410TIP3    H270646   6.086   0.741  15.397  0.0954 -1.5180  0.6465
16411TIP3   OH270647   2.649   3.412   5.355  0.1790 -0.4975 -0.3451
16411TIP3    H170648   2.741   3.414   5.382  0.6515 -1.9131 -1.6943
16411TIP3    H270649   2.630   3.501   5.326  0.8514  0.0153  0.7236
16412TIP3   OH270650   3.066   1.875  14.689 -0.7015  0.0366  0.1107
16412TIP3    H170651   3.159   1.858  14.705 -0.8315  0.5182  1.5023
16412TIP3    H270652   3.057   1.873  14.594  0.4294 -1.5674  0.0056
16413TIP3   OH270653   2.701   1.804  11.863 -0.4710 -0.6099 -0.7836
16413TIP3    H170654   2.637   1.791  11.933 -2.3531 -0.8167 -2.4543
16413TIP3    H270655   2.656   1.858  11.799  0.3838 -2.1893 -2.8333
16414TIP3   OH270656   5.990   5.072   5.855  0.0488 -0.3772  0.8693
16414TIP3    H170657   6.009   5.139   5.920 -0.9141  0.5648  0.2171
16414TIP3    H270658   6.075   5.031   5.838  1.1603  2.1865 -0.3333
16415TIP3   OH270659   2.752   2.911  15.630  0.2236  0.2254 -0.1871
16415TIP3    H170660   2.793   2.974  15.570  1.1418 -0.4787 -0.3228
16415TIP3    H270661   2.826   2.868  15.673 -0.3924  1.0797  1.8699
16416TIP3   OH270662   5.592   2.128   5.908 -0.0640 -0.0034 -0.0677
16416TIP3    H170663   5.609   2.113   6.001  0.1240  3.0095  0.4586
16416TIP3    H270664   5.673   2.166   5.874 -0.6938  0.4871 -1.0814
16417TIP3   OH270665   0.777   5.096  14.175  0.5050 -0.2992 -0.1874
16417TIP3    H170666   0.705   5.039  14.203 -0.8529  1.3240 -0.1460
16417TIP3    H270667   0.787   5.158  14.248 -0.6514  1.7856 -1.6698
16418TIP3   OH270668   1.780   4.784  16.901  0.1650  0.6978  0.1581
16418TIP3    H170669   1.811   4.874  16.890  0.5178  0.5691  0.0981
16418TIP3    H270670   1.685   4.791  16.896  0.2404  0.7805 -1.9521
16419TIP3   OH270671   0.214   5.653  11.001 -0.2646  0.5020 -0.2180
16419TIP3    H170672   0.219   5.624  10.910  0.2500  1.3766 -0.4790
16419TIP3    H270673   0.215   5.572  11.052  0.1608  0.0318 -0.9591
16420TIP3   OH270674   4.542   5.410  11.973  0.0041 -0.2837 -0.0297
16420TIP3    H170675   4.567   5.488  12.023 -1.4084 -0.6841  1.4098
16420TIP3    H270676   4.483   5.362  12.032  0.3661 -2.1456 -1.1023
16421TIP3   OH270677   1.240   3.086  12.482  0.1583 -0.5593 -0.3265
16421TIP3    H170678   1.239   3.062  12.389 -1.6114 -1.1912 -0.1666
16421TIP3    H270679   1.321   3.047  12.515  2.0212  1.5699 -2.0258
16422TIP3   OH270680   0.175   1.019   4.654 -0.0513 -0.2137  0.4949
16422TIP3    H170681   0.092   1.002   4.610  0.0995  2.4097 -1.0474
16422TIP3    H270682   0.154   1.078   4.726  0.6073  2.5993 -1.4414
16423TIP3   OH270683   1.496   0.603  15.768 -0.1084 -0.2422  0.6285
16423TIP3    H170684   1.530   0.692  15.761  0.2109 -0.3579  0.6879
16423TIP3    H270685   1.437   0.606  15.844  0.1833 -0.1682  0.8550
16424TIP3   OH270686   1.541   1.949   0.879  0.1274  0.7598 -0.0028
16424TIP3    H170687   1.473   2.016   0.890  1.6099  2.5105 -0.9296
16424TIP3    H270688   1.618   1.985   0.923  1.1813  0.0184 -1.1676
16425TIP3   OH270689   1.539   0.699  16.273 -0.0485 -0.4179 -0.1782
16425TIP3    H170690   1.494   0.679  16.356  1.8718  0.5739  1.1857
16425TIP3    H270691   1.469   0.705  16.209 -1.9715  1.6338  1.9338
16426TIP3   OH270692   2.980   4.634  14.125 -0.0517 -0.3983 -0.1555
16426TIP3    H170693   2.993   4.687  14.046 -1.1983  1.6488  0.9412
16426TIP3    H270694   3.034   4.678  14.191 -3.0670  1.1336  1.4670
16427TIP3   OH270695   4.782   4.984  13.916 -0.3945  0.4073  0.0160
16427TIP3    H170696   4.776   4.902  13.963 -0.2472 -0.0995 -0.8243
16427TIP3    H270697   4.872   5.013  13.930  0.3077 -0.7965 -1.6032
16428TIP3   OH270698   1.128   4.999   3.525 -0.0961 -0.4570  0.3088
16428TIP3    H170699   1.142   4.914   3.567  1.7038 -0.1990  0.2900
16428TIP3    H270700   1.034   5.017   3.538  0.0277 -1.1872  2.6880
16429TIP3   OH270701   4.556   1.683   3.623  0.3336  0.3555  0.1344
16429TIP3    H170702   4.599   1.739   3.687  0.0837 -1.4426  1.9602
16429TIP3    H270703   4.490   1.635   3.673 -0.3726 -0.6026 -1.6164
16430TIP3   OH270704   2.268   4.599  13.928 -0.2604 -0.3456 -0.3594
16430TIP3    H170705   2.272   4.684  13.972 -1.5898  0.3587 -1.5073
16430TIP3    H270706   2.339   4.603  13.863 -0.8662  0.2514 -0.9964
16431TIP3   OH270707   6.787   0.505  15.283 -0.0081 -0.5765 -0.0131
16431TIP3    H170708   6.714   0.445  15.296  0.3295 -0.8324  0.7410
16431TIP3    H270709   6.768   0.549  15.199 -1.2568 -0.3022  0.3969
16432TIP3   OH270710   6.060   0.695   3.603  0.0572 -0.3316 -0.5034
16432TIP3    H170711   6.083   0.625   3.664 -0.2352 -1.1086 -1.2586
16432TIP3    H270712   6.143   0.739   3.585  0.0460  0.3352  0.9449
16433TIP3   OH270713   6.615   4.935   1.617 -0.3442  0.0032 -0.1460
16433TIP3    H170714   6.692   4.923   1.672 -0.0791 -0.7344 -0.6500
16433TIP3    H270715   6.546   4.961   1.677  0.6076  2.1098  0.1331
16434TIP3   OH270716   0.452   5.247   3.670  0.0060 -0.2904  0.4969
16434TIP3    H170717   0.369   5.212   3.703 -1.1327  1.2934 -0.5289
16434TIP3    H270718   0.443   5.342   3.677  1.0713 -0.0265 -1.1405
16435TIP3   OH270719   6.515   5.014   3.064 -0.0358 -0.1530  0.0478
16435TIP3    H170720   6.599   5.021   3.108 -0.4555  1.7641  0.6538
16435TIP3    H270721   6.487   5.104   3.052 -1.4362 -0.7233 -1.2660
16436TIP3   OH270722   0.008   0.187  15.458  0.2913 -0.3470 -0.3605
16436TIP3    H170723  -0.053   0.175  15.386 -0.3587 -0.2748  0.1681
16436TIP3    H270724  -0.045   0.174  15.537  0.2169  2.7443  0.2222
16437TIP3   OH270725   1.467   3.968   4.080 -0.5051  0.1643 -0.2780
16437TIP3    H170726   1.413   3.981   4.002 -0.1363  1.6123 -0.3184
16437TIP3    H270727   1.534   3.906   4.052 -2.2591 -1.8988 -0.1397
16438TIP3   OH270728   2.894   5.522  10.585  0.1327  0.2486  0.2835
16438TIP3    H170729   2.958   5.594  10.579  0.6026 -0.1504  0.3970
16438TIP3    H270730   2.822   5.559  10.637 -0.6145  1.3132 -1.4338
16439TIP3   OH270731   5.919   5.204   2.726 -0.3503 -0.5034  0.7254
16439TIP3    H170732   6.010   5.234   2.727 -0.4362 -0.2095 -0.0164
16439TIP3    H270733   5.912   5.149   2.804  0.1818  0.2835  1.3466
16440TIP3   OH270734   5.018   4.028   3.387 -0.6192  0.1240  0.0587
16440TIP3    H170735   5.102   4.044   3.345  0.1562 -1.7738  0.7952
16440TIP3    H270736   5.032   4.054   3.478 -0.8087 -0.2544  0.1956
16441TIP3   OH270737   5.188   4.079   5.058  0.3714  0.3223  0.0284
16441TIP3    H170738   5.107   4.060   5.012 -0.2070  1.0246  0.7411
16441TIP3    H270739   5.198   4.174   5.052  2.0298  0.1133 -1.5094
16442TIP3   OH270740   1.660   0.854  12.100  0.5453 -0.0564  0.3779
16442TIP3    H170741   1.599   0.892  12.037  0.6757  1.3596  1.0476
16442TIP3    H270742   1.700   0.781  12.054 -2.1467 -1.5084  0.1461
16443TIP3   OH270743   0.028   1.059   2.032  0.1733  0.4136 -0.0943
16443TIP3    H170744  -0.055   1.105   2.016 -0.8183 -1.3838 -0.3691
16443TIP3    H270745   0.029   1.042   2.126 -0.9918 -1.6556 -0.3905
16444TIP3   OH270746   1.058   4.261  11.573  0.1932  0.1931 -0.4175
16444TIP3    H170747   1.102   4.190  11.527 -1.3957 -1.9046  1.1319
16444TIP3    H270748   1.116   4.281  11.647  0.5332  0.4005 -0.7326
16445TIP3   OH270749   5.053   3.426   2.207 -0.1236 -0.1997  0.3889
16445TIP3    H170750   5.030   3.431   2.300 -2.2108  0.1090 -0.1053
16445TIP3    H270751   5.038   3.514   2.173 -1.1002 -0.7272 -0.6058
16446TIP3   OH270752   1.634   0.980   4.869  0.1100  0.0516 -0.8488
16446TIP3    H170753   1.577   1.055   4.850  0.6031  0.8717  0.7006
16446TIP3    H270754   1.621   0.963   4.962  2.1811  0.1316 -0.4838
16447TIP3   OH270755   3.897   3.494   3.010 -0.2498 -0.4696  0.0699
16447TIP3    H170756   3.905   3.493   3.105 -0.6335 -1.2051  0.1026
16447TIP3    H270757   3.888   3.587   2.987 -0.4832 -0.3164  0.7731
16448TIP3   OH270758   2.171   2.639  12.132 -0.6424 -0.2288 -0.4529
16448TIP3    H170759   2.160   2.728  12.098 -0.3941 -0.1852 -0.4256
16448TIP3    H270760   2.250   2.607  12.089 -0.4698 -0.2665 -0.1105
16449TIP3   OH270761   2.354   6.153  16.037  0.4741 -0.0265 -0.4398
16449TIP3    H170762   2.386   6.078  15.988 -3.6054 -1.1929 -1.6996
16449TIP3    H270763   2.400   6.148  16.121  1.9768 -2.5949 -1.3094
16450TIP3   OH270764   5.513   2.963  14.803 -0.5512  0.4788  0.1139
16450TIP3    H170765   5.420   2.987  14.811 -0.1249  2.1121  0.4709
16450TIP3    H270766   5.535   2.925  14.888 -1.3976 -1.9458 -0.6669
16451TIP3   OH270767   6.403   2.764  16.167 -0.1516 -0.1025  0.2647
16451TIP3    H170768   6.312   2.771  16.196  0.1783  1.2534  1.0731
16451TIP3    H270769   6.398   2.772  16.072 -0.8827  0.0342  0.3048
16452TIP3   OH270770   5.121   6.192  12.743 -0.3851  0.6009  0.3292
16452TIP3    H170771   5.078   6.118  12.787  1.2295 -1.1182 -0.8435
16452TIP3    H270772   5.179   6.228  12.810  2.1995 -2.1114 -0.2307
16453TIP3   OH270773   6.701   6.107   0.412 -0.4709  0.7879 -0.7549
16453TIP3    H170774   6.769   6.118   0.347  0.1191 -1.1147 -0.5242
16453TIP3    H270775   6.720   6.173   0.479  1.7700 -0.3265 -0.2102
16454TIP3   OH270776   4.595   2.332  13.337  0.1522 -0.4171 -1.1624
16454TIP3    H170777   4.615   2.395  13.406  0.7061  0.0924 -1.7802
16454TIP3    H270778   4.651   2.257  13.357  0.8691  0.0240 -1.4740
16455TIP3   OH270779   2.470   4.513  16.979  0.1774  0.3021 -0.1266
16455TIP3    H170780   2.505   4.577  16.916 -2.0721  1.2358 -0.5199
16455TIP3    H270781   2.458   4.563  17.059 -2.0122  0.5643 -0.5593
16456TIP3   OH270782   5.198   6.173  11.477 -0.1633 -0.2325 -0.3559
16456TIP3    H170783   5.284   6.154  11.516  0.3508  2.6108  0.1425
16456TIP3    H270784   5.150   6.090  11.483  2.7902 -2.2016 -1.4566
16457TIP3   OH270785   1.825   0.514   3.047 -0.3388  0.2692  0.4158
16457TIP3    H170786   1.740   0.475   3.064 -0.5067  0.3296 -0.2593
16457TIP3    H270787   1.818   0.604   3.080 -0.3724  0.1248  0.8049
16458TIP3   OH270788   3.590   6.072  12.342 -0.3834 -0.3042  1.1890
16458TIP3    H170789   3.656   6.003  12.353  2.0888  2.1815  3.3526
16458TIP3    H270790   3.629   6.133  12.280 -1.4185  0.4203  1.2234
16459TIP3   OH270791   3.878   4.304  11.615 -0.4495  0.2992 -0.0330
16459TIP3    H170792   3.878   4.282  11.709 -0.2309  0.0797 -0.0834
16459TIP3    H270793   3.959   4.265  11.582 -0.2563  0.8409 -0.2032
16460TIP3   OH270794   4.761   2.254  12.258 -0.3216 -0.3293 -0.2802
16460TIP3    H170795   4.732   2.278  12.170 -0.7823  0.1079 -0.0183
16460TIP3    H270796   4.822   2.323  12.282  0.7139 -1.0760 -0.7039
16461TIP3   OH270797   1.680   0.723  13.513 -0.5050  0.0575 -0.0313
16461TIP3    H170798   1.634   0.665  13.574 -0.6928 -0.1505 -0.3702
16461TIP3    H270799   1.772   0.713  13.537 -0.7134  1.5802  1.6234
16462TIP3   OH270800   2.250   5.383  13.438 -0.2951 -0.0049 -0.1491
16462TIP3    H170801   2.222   5.322  13.370 -0.2928  0.0781 -0.2243
16462TIP3    H270802   2.218   5.468  13.409 -2.9156 -0.3720  1.4002
16463TIP3   OH270803   4.195   3.733  16.806  0.3674  0.2152 -0.5243
16463TIP3    H170804   4.252   3.664  16.772 -1.1395 -1.0843 -0.5311
16463TIP3    H270805   4.112   3.719  16.762 -1.0869 -0.3223  2.1899
16464TIP3   OH270806   0.227   6.556  12.331  0.8343 -0.4827 -0.2827
16464TIP3    H170807   0.296   6.607  12.289  1.4211  0.3232  1.5670
16464TIP3    H270808   0.225   6.474  12.282  3.1468 -0.5679 -0.3381
16465TIP3   OH270809   1.367   5.446  14.426  0.1455  0.0580  0.6514
16465TIP3    H170810   1.309   5.381  14.468 -0.6531  0.7120  0.5980
16465TIP3    H270811   1.307   5.503  14.377  0.7304  1.3054  1.3301
16466TIP3   OH270812   1.576   1.177  11.465 -0.3527 -0.2865 -0.0508
16466TIP3    H170813   1.660   1.157  11.423 -0.6341 -1.1996 -0.2097
16466TIP3    H270814   1.565   1.108  11.530 -0.0674  0.9420  1.3625
16467TIP3   OH270815   2.816   1.479  15.791 -0.2150  0.9227 -0.1032
16467TIP3    H170816   2.735   1.430  15.804  0.0629  0.9298  1.9196
16467TIP3    H270817   2.883   1.412  15.779  0.1212  0.7373  2.4021
16468TIP3   OH270818   6.476   0.698   2.813  0.4224 -0.1539 -0.3775
16468TIP3    H170819   6.424   0.671   2.889  2.5988  1.6558  1.9151
16468TIP3    H270820   6.411   0.724   2.748 -1.5586  0.5651  1.7686
16469TIP3   OH270821   2.876   0.225  14.271  0.0182 -0.2408 -0.9480
16469TIP3    H170822   2.826   0.306  14.288  0.5170 -0.3017  1.1308
16469TIP3    H270823   2.913   0.202  14.356  0.7718 -2.0986 -1.7261
16470TIP3   OH270824   0.296   2.601  15.707  0.0795  0.4340 -0.1412
16470TIP3    H170825   0.268   2.569  15.621 -0.4516  0.6899 -0.0697
16470TIP3    H270826   0.385   2.566  15.718 -0.4252 -0.8846 -0.1115
16471TIP3   OH270827   5.087   2.353  13.445  0.0109 -0.2186 -0.4153
16471TIP3    H170828   5.090   2.262  13.474 -1.9285 -0.1269  0.1998
16471TIP3    H270829   5.061   2.348  13.353 -1.2354 -0.2689 -0.0728
16472TIP3   OH270830   1.728   0.067   3.965  0.3338  0.1109  0.1043
16472TIP3    H170831   1.704  -0.019   3.997  0.8749 -0.1134 -0.0827
16472TIP3    H270832   1.650   0.121   3.980 -0.3544 -0.6436 -0.6790
16473TIP3   OH270833   3.113   1.531   6.217  0.7330  0.3299  0.6633
16473TIP3    H170834   3.157   1.447   6.204 -0.6171 -0.2453 -0.4199
16473TIP3    H270835   3.020   1.512   6.206  0.4327  2.0781 -0.2046
16474TIP3   OH270836   2.380   3.306  16.826 -0.1348  0.5035 -0.1919
16474TIP3    H170837   2.357   3.213  16.830 -2.9478  1.1433  0.7616
16474TIP3    H270838   2.303   3.348  16.787  0.1031  2.6783  1.4795
16475TIP3   OH270839   3.855   1.185  13.154 -0.5125  0.0595  0.6709
16475TIP3    H170840   3.816   1.240  13.222  0.8442 -0.2101  1.7045
16475TIP3    H270841   3.907   1.121  13.202  0.6233 -0.0334 -0.6308
16476TIP3   OH270842   5.627   5.459  14.529 -0.0509  0.6938  0.2893
16476TIP3    H170843   5.644   5.542  14.573  4.8055 -0.2936  0.8995
16476TIP3    H270844   5.649   5.475  14.437 -1.0687  0.5096 -0.0015
16477TIP3   OH270845   6.685   6.195   1.142  0.0663 -0.0375 -0.3736
16477TIP3    H170846   6.739   6.132   1.094 -0.3222  0.6573 -1.7763
16477TIP3    H270847   6.673   6.155   1.229  0.5243 -1.4851 -0.9451
16478TIP3   OH270848   4.619   0.186  14.717  0.0561 -0.1426  0.0631
16478TIP3    H170849   4.645   0.191  14.625  1.2843  0.7264  0.4286
16478TIP3    H270850   4.556   0.258  14.728 -0.7699 -0.7988 -0.2886
16479TIP3   OH270851   4.634   1.648  16.938 -0.5897  0.8011 -0.5929
16479TIP3    H170852   4.633   1.635  17.032 -2.2471  1.1382 -0.5330
16479TIP3    H270853   4.545   1.678  16.917 -0.5716 -0.2517 -2.3952
16480TIP3   OH270854   6.407   2.691  11.796  0.5336  0.2133  0.3206
16480TIP3    H170855   6.387   2.765  11.853  0.3267  0.0495  0.4590
16480TIP3    H270856   6.424   2.731  11.711 -0.0243  0.3823  0.2860
16481TIP3   OH270857   1.695   3.282   5.634 -0.5894  0.2599 -0.3569
16481TIP3    H170858   1.788   3.261   5.628 -0.4978  0.4098  0.5078
16481TIP3    H270859   1.652   3.217   5.578  0.1084  0.8018 -1.5749
16482TIP3   OH270860   1.177   5.769  12.428 -0.3710 -0.5912 -0.1572
16482TIP3    H170861   1.175   5.851  12.379  0.5517 -1.0877 -1.0473
16482TIP3    H270862   1.269   5.759  12.453 -0.5567 -1.1522  0.3157
16483TIP3   OH270863   4.000   5.039   2.320 -0.0088 -0.1611  0.4455
16483TIP3    H170864   4.009   5.102   2.391 -0.6239  2.8651 -1.9528
16483TIP3    H270865   3.907   5.018   2.317 -0.1411  0.4582 -0.0104
16484TIP3   OH270866   5.343   3.292  16.678  0.1356 -0.2477  0.6004
16484TIP3    H170867   5.328   3.312  16.771 -2.7168 -0.9354  0.4025
16484TIP3    H270868   5.365   3.199  16.678  0.5125 -0.1579  0.6191
16485TIP3   OH270869   6.149   4.949   0.665 -0.4344 -0.2816 -0.0331
16485TIP3    H170870   6.165   5.037   0.632  0.8616 -0.0100  1.2503
16485TIP3    H270871   6.153   4.957   0.760 -0.9697 -1.6085  0.1292
16486TIP3   OH270872   2.795   4.260  16.881 -0.1605 -0.0224  0.0169
16486TIP3    H170873   2.740   4.329  16.844  1.2635  0.5295 -1.1996
16486TIP3    H270874   2.735   4.188  16.900 -1.7502  1.6577  1.7008
16487TIP3   OH270875   3.897   5.659  14.973  0.0567 -0.4099 -0.2005
16487TIP3    H170876   3.905   5.672  14.879  0.4310  0.4641 -0.0609
16487TIP3    H270877   3.906   5.747  15.010  2.4502 -1.0006  0.8093
16488TIP3   OH270878   0.982   2.160  12.137 -0.3656  0.5385  0.2668
16488TIP3    H170879   0.983   2.064  12.136  0.9773  0.5238 -1.2981
16488TIP3    H270880   0.890   2.184  12.141 -0.8705 -0.8539 -1.7282
16489TIP3   OH270881   2.651   3.280   2.262 -0.8242 -0.0469 -0.4264
16489TIP3    H170882   2.606   3.284   2.177 -1.5230 -0.4900 -0.0906
16489TIP3    H270883   2.674   3.371   2.281  0.0545 -0.0432 -1.4590
16490TIP3   OH270884   1.271   3.988  15.567 -0.7912 -0.3681 -0.3903
16490TIP3    H170885   1.201   4.019  15.510 -0.0442 -0.5500 -1.4457
16490TIP3    H270886   1.227   3.951  15.642 -1.8073  0.0399 -0.7705
16491TIP3   OH270887   0.480   0.377  15.450 -0.2752  0.2864 -0.3998
16491TIP3    H170888   0.410   0.316  15.428 -0.3791  0.0607  0.5020
16491TIP3    H270889   0.446   0.463  15.426 -1.8737  0.4882  2.1896
16492TIP3   OH270890   1.328   1.697   5.090  0.2868  0.1801  0.6061
16492TIP3    H170891   1.336   1.782   5.133 -0.0453  0.8932 -0.6806
16492TIP3    H270892   1.413   1.683   5.049  0.4163 -0.2300  1.0010
16493TIP3   OH270893   5.505   0.446   4.632 -0.0647 -0.2296 -0.1456
16493TIP3    H170894   5.591   0.424   4.598  0.2204  0.1127  0.3341
16493TIP3    H270895   5.502   0.405   4.718  0.6201  1.8069  0.9273
16494TIP3   OH270896   0.268   1.350  15.975 -0.1196  0.0850  0.4004
16494TIP3    H170897   0.237   1.340  16.065  0.1189  0.4523  0.5245
16494TIP3    H270898   0.347   1.403  15.982 -0.2748  0.3900 -0.0495
16495TIP3   OH270899   1.319   6.192  15.038 -0.3145  0.5941 -0.5060
16495TIP3    H170900   1.415   6.200  15.032 -0.1741  0.2343  0.9390
16495TIP3    H270901   1.300   6.108  14.995  0.0300  0.6035 -0.6876
16496TIP3   OH270902   2.155   3.870   4.861  0.4381 -0.2297 -0.2677
16496TIP3    H170903   2.110   3.903   4.783  1.9131 -0.0835 -1.0877
16496TIP3    H270904   2.120   3.782   4.874  0.3502 -0.3463 -1.2496
16497TIP3   OH270905   5.516   0.609   2.510 -0.0268  0.8977  0.0204
16497TIP3    H170906   5.456   0.670   2.551 -0.4862  0.7648 -0.4390
16497TIP3    H270907   5.516   0.634   2.417  0.5022  0.7952 -0.0105
16498TIP3   OH270908   0.552   0.185  14.480 -0.0307 -0.4182  0.1805
16498TIP3    H170909   0.618   0.215  14.543  0.6156 -2.4895  0.5604
16498TIP3    H270910   0.602   0.137  14.414 -1.0634 -1.2667 -0.0063
16499TIP3   OH270911   1.868   4.139  15.058 -0.2184 -0.0742  0.0254
16499TIP3    H170912   1.842   4.165  14.970 -1.4229  1.8652  0.8877
16499TIP3    H270913   1.951   4.183  15.073  0.0878 -0.5688 -0.2019
16500TIP3   OH270914   2.599   6.136   2.248  0.0688  0.0632  0.7572
16500TIP3    H170915   2.521   6.082   2.235 -0.5186  0.7053  1.4919
16500TIP3    H270916   2.655   6.116   2.173 -1.3701  0.5602 -0.5041
16501TIP3   OH270917   0.692   4.609   5.392  0.0927  0.1083  0.2723
16501TIP3    H170918   0.738   4.527   5.371 -1.1250 -0.9293  1.4484
16501TIP3    H270919   0.697   4.614   5.488 -0.8338  0.8156  0.2914
16502TIP3   OH270920   5.077   5.341  16.617  0.8900  0.3096  0.3744
16502TIP3    H170921   5.094   5.274  16.683 -1.0393  0.5943  1.2423
16502TIP3    H270922   5.067   5.422  16.666 -1.2624  0.4075 -0.0903
16503TIP3   OH270923   2.392   4.654  14.777 -0.3548 -0.1755 -0.3319
16503TIP3    H170924   2.361   4.572  14.815 -3.4401 -0.0830 -2.2590
16503TIP3    H270925   2.468   4.629  14.724  0.2860 -1.3032  1.0840
16504TIP3   OH270926   1.609   0.334  12.249  0.1153  0.9851 -0.1963
16504TIP3    H170927   1.547   0.383  12.303 -0.5459  0.4897 -0.4923
16504TIP3    H270928   1.620   0.389  12.171 -0.0109  1.0405 -0.1764
16505TIP3   OH270929   1.114   5.397   2.155  0.5951  0.4529 -0.1889
16505TIP3    H170930   1.124   5.461   2.226  0.0882  0.0242  0.2746
16505TIP3    H270931   1.188   5.337   2.167  0.1854  0.0433  0.3397
16506TIP3   OH270932   0.235   6.018  14.417 -0.2243  0.1473 -0.0686
16506TIP3    H170933   0.250   6.067  14.498 -1.2947  1.1183 -0.4212
16506TIP3    H270934   0.317   6.026  14.369  0.2960 -0.1207  0.7392
16507TIP3   OH270935   0.350   6.772  12.103 -0.4969 -0.4811  0.3007
16507TIP3    H170936   0.302   6.833  12.158 -0.7816 -0.0264 -0.4324
16507TIP3    H270937   0.437   6.811  12.093 -0.3166 -0.7629  0.7464
16508TIP3   OH270938   5.294   3.156  16.292  0.1673  0.3085  0.2688
16508TIP3    H170939   5.344   3.228  16.253  0.2892 -0.3384 -0.8263
16508TIP3    H270940   5.339   3.077  16.262  0.8455 -0.2315  2.5580
16509TIP3   OH270941   0.486   5.651  16.522  0.0571  0.3821  0.0720
16509TIP3    H170942   0.455   5.592  16.453 -0.0414 -0.6905  1.0084
16509TIP3    H270943   0.416   5.651  16.587  0.3310  1.0419  0.3754
16510TIP3   OH270944   6.434   2.512  16.641 -0.0364 -0.7398  0.2349
16510TIP3    H170945   6.403   2.599  16.616 -0.0941 -0.3709  1.5137
16510TIP3    H270946   6.523   2.506  16.606 -0.4710 -0.6459 -0.9011
16511TIP3   OH270947   0.373   0.866  12.485  0.0488 -0.5904  0.0809
16511TIP3    H170948   0.419   0.907  12.558  1.8949 -3.9895  1.0333
16511TIP3    H270949   0.292   0.832  12.524 -1.1328  1.3572 -0.5486
16512TIP3   OH270950   5.846   5.554  15.418 -0.2699 -0.2245  0.5760
16512TIP3    H170951   5.892   5.471  15.408  0.1607  0.0124  0.5436
16512TIP3    H270952   5.884   5.593  15.497 -0.0713  0.1953  0.2758
16513TIP3   OH270953   5.616   4.802   1.282  0.7625 -0.0276 -0.1755
16513TIP3    H170954   5.695   4.826   1.329  1.8236 -1.6683 -1.0296
16513TIP3    H270955   5.594   4.879   1.230  2.0926  0.2736 -0.3088
16514TIP3   OH270956   1.086   3.253   4.258  0.3417  0.4724  0.2937
16514TIP3    H170957   1.014   3.212   4.211  1.4014 -1.1429  0.0113
16514TIP3    H270958   1.078   3.221   4.348 -0.0488  1.3466  0.5815
16515TIP3   OH270959   0.642   5.629   2.289  0.1388 -0.0241 -0.2143
16515TIP3    H170960   0.691   5.707   2.266  0.4438 -0.0070  0.4660
16515TIP3    H270961   0.638   5.578   2.208  0.0211  0.6452 -0.6369
16516TIP3   OH270962   2.108   6.755   2.050  0.3024 -0.4381 -0.1346
16516TIP3    H170963   2.028   6.728   2.005 -1.3804  2.1642  1.0714
16516TIP3    H270964   2.127   6.842   2.016  0.1074  0.7899  2.6081
16517TIP3   OH270965   3.831   3.350   4.990  0.0310 -0.0799  0.0899
16517TIP3    H170966   3.756   3.393   4.949  1.3836  2.3391 -0.0061
16517TIP3    H270967   3.890   3.329   4.917  0.2241 -0.4172  0.3382
16518TIP3   OH270968   5.396   1.274  10.592  0.0745 -0.6931 -0.6287
16518TIP3    H170969   5.340   1.285  10.668 -0.2166  1.5559 -1.0983
16518TIP3    H270970   5.370   1.344  10.532  2.4651 -0.3676 -1.4177
16519TIP3   OH270971   3.821   0.881  13.484 -0.0812  0.0260 -0.5664
16519TIP3    H170972   3.788   0.971  13.480  0.7711  0.3466 -4.2235
16519TIP3    H270973   3.879   0.879  13.560 -1.9715  1.8150  1.0189
16520TIP3   OH270974   0.604   2.814   5.050  0.4858  0.5779 -0.8599
16520TIP3    H170975   0.574   2.899   5.081 -1.3029 -0.9347  2.0775
16520TIP3    H270976   0.699   2.815   5.063  0.2376  1.4148  1.2941
16521TIP3   OH270977   4.208   2.289  15.356 -0.0730  0.4489 -0.1206
16521TIP3    H170978   4.294   2.286  15.316 -0.4340  1.0733 -0.9851
16521TIP3    H270979   4.167   2.367  15.319 -1.6070 -0.6965 -0.9930
16522TIP3   OH270980   3.076   0.434  11.680  0.1282 -0.6298  0.2969
16522TIP3    H170981   3.010   0.368  11.702  0.4165 -0.4206  1.9327
16522TIP3    H270982   3.031   0.518  11.692  0.4377 -0.5034  0.5877
16523TIP3   OH270983   2.236   1.339  13.879  0.3716 -0.5787 -0.1575
16523TIP3    H170984   2.325   1.311  13.902  1.1403  1.3640 -0.5094
16523TIP3    H270985   2.239   1.434  13.886 -0.9552 -0.2599 -2.6520
16524TIP3   OH270986   1.952   1.763  12.999 -0.2119  0.2025 -0.2527
16524TIP3    H170987   1.876   1.790  13.050  0.1456  0.6017  0.0777
16524TIP3    H270988   1.995   1.697  13.053  0.5006  1.0596  0.2523
16525TIP3   OH270989   4.471   5.344   1.759 -0.1155 -0.2287 -0.3283
16525TIP3    H170990   4.398   5.386   1.714 -0.2453 -1.8281 -1.6935
16525TIP3    H270991   4.545   5.402   1.744 -0.2183 -0.5832 -2.4169
16526TIP3   OH270992   6.235   0.033  12.827 -0.3520 -0.1118  0.4951
16526TIP3    H170993   6.204   0.079  12.905  0.2957  1.0220  0.1256
16526TIP3    H270994   6.191  -0.052  12.829 -0.6769  0.0621  1.8546
16527TIP3   OH270995   4.597   1.795   4.955  0.3643  0.1058 -0.8767
16527TIP3    H170996   4.668   1.859   4.953  1.4662 -1.0823 -1.1041
16527TIP3    H270997   4.639   1.713   4.981 -1.0904 -0.4482 -0.1572
16528TIP3   OH270998   0.651   3.347  14.600  0.0560 -0.5636 -0.2863
16528TIP3    H170999   0.640   3.424  14.656  0.0702 -0.5171 -0.3472
16528TIP3    H271000   0.659   3.274  14.661  1.6425 -0.3292 -0.1546
16529TIP3   OH271001   0.300   5.026   0.233 -0.3004  0.1090  0.4269
16529TIP3    H171002   0.295   4.934   0.209  1.5006 -0.0533  0.5120
16529TIP3    H271003   0.215   5.046   0.272 -0.4948 -1.7058  1.0155
16530TIP3   OH271004   1.202   5.487   4.988  0.5946 -0.0547  0.7452
16530TIP3    H171005   1.192   5.483   5.083  0.0163 -0.2844  0.6842
16530TIP3    H271006   1.135   5.426   4.955  2.0786 -1.5069  0.2584
16531TIP3   OH271007   3.114   0.506  12.853  0.0285  0.2817 -0.0818
16531TIP3    H171008   3.065   0.512  12.771 -0.4894 -1.4025  0.0679
16531TIP3    H271009   3.202   0.537  12.831 -0.0904 -0.1962 -1.2816
16532TIP3   OH271010   1.649   5.579   0.132  0.4932 -0.1777  0.2017
16532TIP3    H171011   1.614   5.651   0.080  0.3807 -1.2007 -1.1825
16532TIP3    H271012   1.571   5.529   0.159  0.5919  0.0338  0.9118
16533TIP3   OH271013   2.432   1.445   3.536  0.2150  0.2025  0.3403
16533TIP3    H171014   2.348   1.453   3.492 -0.8003  0.5971  2.2458
16533TIP3    H271015   2.409   1.422   3.626  2.1289  0.9143  1.0460
16534TIP3   OH271016   2.643   1.488  13.506  0.7407 -0.3471  0.2421
16534TIP3    H171017   2.692   1.571  13.506  2.0070 -1.0615  0.9653
16534TIP3    H271018   2.554   1.513  13.531  0.4908  1.0875 -1.7538
16535TIP3   OH271019   4.814   2.213   6.096 -0.1636 -0.0212 -0.1063
16535TIP3    H171020   4.735   2.266   6.086  0.8258  1.4549 -0.5002
16535TIP3    H271021   4.800   2.164   6.177 -0.4294  2.2163  1.2892
16536TIP3   OH271022   6.592   2.686   4.893  0.3761 -0.0592  0.1291
16536TIP3    H171023   6.609   2.592   4.902  0.9709  0.0219 -0.0830
16536TIP3    H271024   6.497   2.694   4.900  0.4097 -0.5384  1.3153
16537TIP3   OH271025   6.067   0.704  12.412 -0.1800 -0.3692  0.0196
16537TIP3    H171026   6.006   0.674  12.480 -1.9861 -0.5125 -1.5789
16537TIP3    H271027   6.118   0.627  12.390 -1.9109 -1.2607 -1.1032
16538TIP3   OH271028   4.966   0.783  13.827  0.1694 -0.0320 -0.8050
16538TIP3    H171029   5.018   0.712  13.790  0.7376 -0.3035  0.4808
16538TIP3    H271030   5.023   0.824  13.891 -0.5211  0.9327 -0.7834
16539TIP3   OH271031   6.255   0.080  13.404  0.5172 -0.7602  0.7455
16539TIP3    H171032   6.201   0.159  13.406 -0.8026 -1.6247  2.9881
16539TIP3    H271033   6.335   0.107  13.359 -0.0726  1.7237  1.0178
16540TIP3   OH271034   3.434   6.364  17.017  0.2443 -0.1256  0.3530
16540TIP3    H171035   3.380   6.288  16.995  1.5076 -1.4426  1.5006
16540TIP3    H271036   3.498   6.370  16.946 -0.9218  1.0030 -0.6460
16541TIP3   OH271037   5.235   6.620  10.129  0.0477 -0.5096 -0.2039
16541TIP3    H171038   5.314   6.658  10.169 -0.9175  0.0629  1.2470
16541TIP3    H271039   5.251   6.525  10.129 -0.0836 -0.5740  2.0208
16542TIP3   OH271040   6.498   1.243   0.355 -0.2812  0.8139 -0.2768
16542TIP3    H171041   6.461   1.240   0.444 -1.4373 -0.5377 -0.7592
16542TIP3    H271042   6.422   1.230   0.298  0.5725  0.8261 -1.4400
16543TIP3   OH271043   4.555   4.869  14.166 -0.3448 -0.0238 -0.0117
16543TIP3    H171044   4.521   4.845  14.080  0.9320  0.8025 -0.7809
16543TIP3    H271045   4.514   4.952  14.186 -0.0416  0.1704 -0.1901
16544TIP3   OH271046   5.323   6.675  13.090  0.8118 -0.4097 -0.4654
16544TIP3    H171047   5.287   6.762  13.107 -0.3584 -1.0944  0.7705
16544TIP3    H271048   5.250   6.624  13.055  0.4751 -1.8162  2.0430
16545TIP3   OH271049   3.510   1.686  15.057 -0.4216 -0.0476 -0.0075
16545TIP3    H171050   3.513   1.599  15.017 -0.1825 -0.1118  0.1479
16545TIP3    H271051   3.522   1.670  15.151  1.7366  0.3035 -0.1804
16546TIP3   OH271052   6.389   5.043  12.073 -0.4338  0.3536 -0.0965
16546TIP3    H171053   6.384   4.959  12.028 -0.2056  0.8984 -1.1705
16546TIP3    H271054   6.312   5.044  12.131 -0.7481 -0.3485 -0.4903
16547TIP3   OH271055   0.332   4.305  11.794  0.5736 -0.1897  0.2366
16547TIP3    H171056   0.284   4.286  11.713 -0.3353  2.9268 -0.0896
16547TIP3    H271057   0.419   4.268  11.780  0.3814  0.1216 -2.1402
16548TIP3   OH271058   6.708   5.574  11.833  0.1842  0.2845  0.3655
16548TIP3    H171059   6.658   5.612  11.761  1.7046  1.4025 -0.1539
16548TIP3    H271060   6.799   5.595  11.812  0.7681 -0.5596  1.9296
16549TIP3   OH271061   5.840   4.303  12.937 -0.3024  0.3920  0.3757
16549TIP3    H171062   5.745   4.319  12.937 -0.2676  0.6106  0.6971
16549TIP3    H271063   5.848   4.208  12.944 -0.4881  0.4934  2.5181
16550TIP3   OH271064   3.460   1.461   0.462  0.0671 -0.6331  0.4014
16550TIP3    H171065   3.399   1.388   0.454 -1.6424  0.6379  1.3459
16550TIP3    H271066   3.495   1.473   0.374 -1.9405 -0.6598 -0.4431
16551TIP3   OH271067   4.416   6.517  14.612  0.4237 -0.9089 -0.0037
16551TIP3    H171068   4.338   6.569  14.593  1.5797  0.2840 -1.8180
16551TIP3    H271069   4.422   6.518  14.707 -0.9667  0.1955  0.1189
16552TIP3   OH271070   0.339   6.735   3.837 -0.0254 -0.0223  0.9802
16552TIP3    H171071   0.341   6.756   3.930  1.4721 -1.2370  1.2701
16552TIP3    H271072   0.250   6.703   3.821 -0.6796  1.3562  1.6805
16553TIP3   OH271073   1.208   2.678  13.087 -0.1592  0.1264  0.0111
16553TIP3    H171074   1.293   2.687  13.044 -0.5401 -1.4089 -1.1514
16553TIP3    H271075   1.148   2.724  13.028 -0.3479 -0.0232  0.0874
16554TIP3   OH271076   5.762   6.165  12.122 -0.4248  0.5620  0.1084
16554TIP3    H171077   5.730   6.252  12.097 -0.9253  0.3884  0.1174
16554TIP3    H271078   5.830   6.145  12.058 -0.2238  1.0077  0.1772
16555TIP3   OH271079   2.552   2.590  12.807 -1.0625 -0.0207 -0.0336
16555TIP3    H171080   2.627   2.554  12.854 -1.1027 -0.1104 -0.0370
16555TIP3    H271081   2.478   2.575  12.866 -1.1018 -0.0716 -0.0952
16556TIP3   OH271082   6.642   0.513   0.477 -0.7982 -0.6078 -0.8331
16556TIP3    H171083   6.695   0.569   0.535 -0.3095 -0.9598 -0.9409
16556TIP3    H271084   6.597   0.453   0.537 -0.7261 -0.6029 -0.7737
16557TIP3   OH271085   5.551   4.303  12.313 -0.3426 -0.0295 -1.2411
16557TIP3    H171086   5.637   4.291  12.353  0.4944  3.3596 -1.7486
16557TIP3    H271087   5.495   4.331  12.386 -0.7187 -1.0135 -1.1427
16558TIP3   OH271088   0.610   4.673  10.665 -0.4600 -0.1484  0.3481
16558TIP3    H171089   0.543   4.605  10.654  1.4714 -1.9070 -1.3621
16558TIP3    H271090   0.572   4.751  10.624 -0.7894 -1.6344 -2.3942
16559TIP3   OH271091   6.649   2.630  12.117  0.1007 -0.6266 -0.3083
16559TIP3    H171092   6.557   2.627  12.143 -0.1209  0.7352 -0.8763
16559TIP3    H271093   6.648   2.613  12.023  0.2882  0.7434 -0.5685
16560TIP3   OH271094   4.019   5.557   6.515  0.2600  0.6257  0.2839
16560TIP3    H171095   4.099   5.504   6.519  0.2143  0.6291  2.1620
16560TIP3    H271096   4.049   5.646   6.535  0.0752  1.0267 -1.1319
16561TIP3   OH271097   5.549   6.333   3.466  0.4669 -0.0868 -0.2634
16561TIP3    H171098   5.470   6.282   3.486 -0.1422  0.1057 -2.0564
16561TIP3    H271099   5.603   6.273   3.414  2.4231 -0.8885  2.4263
16562TIP3   OH271100   5.987   5.098   2.461 -0.4848  0.1494 -0.0541
16562TIP3    H171101   5.976   5.122   2.553  1.9860 -0.5124  0.4924
16562TIP3    H271102   5.943   5.013   2.453 -0.2143 -0.0640  0.6626
16563TIP3   OH271103   2.199   0.966   5.857  0.2032  0.0811  0.1900
16563TIP3    H171104   2.198   0.903   5.929  0.3561 -1.1326 -0.8287
16563TIP3    H271105   2.285   1.007   5.863 -0.0219  0.4619  1.0652
16564TIP3   OH271106   0.770   3.509  16.743  0.4710 -0.2963  0.0839
16564TIP3    H171107   0.787   3.541  16.832  0.2768  0.2180 -0.0588
16564TIP3    H271108   0.793   3.583  16.687  0.6209 -0.6328 -0.2952
16565TIP3   OH271109   5.330   1.934  16.270 -0.6866 -0.2111 -0.3520
16565TIP3    H171110   5.372   1.899  16.348 -0.3956  0.0351 -0.3963
16565TIP3    H271111   5.266   1.868  16.245  0.2769 -1.0022 -0.7900
16566TIP3   OH271112   0.107   1.534   5.619  0.1963  0.2952  0.3251
16566TIP3    H171113   0.040   1.471   5.644 -1.5602  1.5933 -0.8674
16566TIP3    H271114   0.140   1.568   5.702 -0.3448 -0.6404  0.9380
16567TIP3   OH271115   2.428   4.540   1.444 -0.1654 -0.0726 -0.1960
16567TIP3    H171116   2.507   4.505   1.484 -1.9850 -3.3370  0.8605
16567TIP3    H271117   2.447   4.539   1.350  0.8498 -1.4800 -0.0131
16568TIP3   OH271118   0.169   6.750   5.987  0.5840 -0.1423 -0.1520
16568TIP3    H171119   0.171   6.656   5.965  3.2348 -0.3111  0.5028
16568TIP3    H271120   0.141   6.752   6.079  3.0067 -0.5948  0.6819
16569TIP3   OH271121   4.501   2.865   5.692  0.0662  0.4552 -0.4073
16569TIP3    H171122   4.559   2.838   5.763 -0.3108  0.7339  0.0148
16569TIP3    H271123   4.439   2.792   5.684  0.6071  0.0471 -1.0228
16570TIP3   OH271124   6.013   3.495  11.910  0.4978 -1.0327 -0.2249
16570TIP3    H171125   5.975   3.414  11.944 -0.7529 -0.8662 -1.1595
16570TIP3    H271126   5.937   3.546  11.881  1.4142 -0.6951 -2.1821
16571TIP3   OH271127   0.299   0.422  13.528 -0.0333 -0.3224  0.2663
16571TIP3    H171128   0.222   0.435  13.473  0.8176 -0.5363 -0.9997
16571TIP3    H271129   0.340   0.343  13.494 -1.3346 -2.5711  3.3984
16572TIP3   OH271130   4.848   4.875  15.110 -0.1457  0.3363 -0.4748
16572TIP3    H171131   4.808   4.820  15.042  0.9566  0.0367 -0.9079
16572TIP3    H271132   4.787   4.870  15.184 -0.2450 -1.2338 -0.6095
16573TIP3   OH271133   2.931   0.750   1.131  0.0560 -0.6035 -0.3506
16573TIP3    H171134   2.855   0.803   1.108  0.1598 -0.1735  0.2478
16573TIP3    H271135   2.906   0.660   1.111  0.4044 -0.2285 -2.8003
16574TIP3   OH271136   3.367   6.080  15.013 -0.0045  0.3156  0.1011
16574TIP3    H171137   3.371   6.087  15.108 -0.6035 -0.6201  0.2049
16574TIP3    H271138   3.281   6.116  14.989 -0.2693 -0.3574  0.0159
16575TIP3   OH271139   0.686   1.218   2.109 -0.2806  0.0415 -0.1110
16575TIP3    H171140   0.674   1.130   2.072 -1.3077  0.2232 -0.2315
16575TIP3    H271141   0.604   1.263   2.091 -0.1605  0.6858  0.8961
16576TIP3   OH271142   3.961   0.258   4.018 -0.2190 -0.7601 -0.0443
16576TIP3    H171143   3.955   0.236   4.111 -3.0636  3.3410  1.0475
16576TIP3    H271144   4.052   0.285   4.006  0.5168 -2.5244  1.1557
16577TIP3   OH271145   2.134   4.185   6.323  0.5243  0.5608 -0.2566
16577TIP3    H171146   2.147   4.197   6.229  1.2182  1.6535 -0.0443
16577TIP3    H271147   2.046   4.149   6.330  0.8766 -0.5916 -1.3775
16578TIP3   OH271148   2.733   6.748  12.070 -0.1063 -0.3126  0.3979
16578TIP3    H171149   2.654   6.719  12.023 -0.6478  0.5995  0.7137
16578TIP3    H271150   2.751   6.835  12.034  0.5556 -0.3788  0.5719
16579TIP3   OH271151   5.721   1.467   0.256  0.2279  0.2734 -0.7003
16579TIP3    H171152   5.758   1.379   0.265 -1.6967 -0.7589 -2.1826
16579TIP3    H271153   5.785   1.515   0.204  1.8539  0.1524  1.1002
16580TIP3   OH271154   3.279   2.313  13.255 -0.3246  0.0712 -0.2614
16580TIP3    H171155   3.301   2.282  13.168 -0.1297  2.7867 -1.2759
16580TIP3    H271156   3.256   2.405  13.243  3.2528  1.6711  2.9410
16581TIP3   OH271157   1.608   2.343  11.126  0.6736  0.6649 -0.1361
16581TIP3    H171158   1.566   2.409  11.072  0.8565  0.5648 -0.4051
16581TIP3    H271159   1.540   2.277  11.141  0.0304  1.6192  1.3879
16582TIP3   OH271160   1.224   0.100  14.600  0.1057 -0.1296  0.4249
16582TIP3    H171161   1.165   0.172  14.620 -1.5620 -1.2774 -0.1117
16582TIP3    H271162   1.226   0.097  14.504  1.8606  0.5086  0.4125
16583TIP3   OH271163   5.853   5.482   2.854  0.2527  0.1264  0.1702
16583TIP3    H171164   5.921   5.546   2.834  0.1025  0.5165  0.8859
16583TIP3    H271165   5.789   5.530   2.906 -0.8730 -0.0756 -0.9784
16584TIP3   OH271166   0.200   6.146  10.814 -0.4268 -0.2981  0.6819
16584TIP3    H171167   0.153   6.064  10.797  0.2392 -0.8406  1.4484
16584TIP3    H271168   0.292   6.120  10.824 -0.0523  0.6669 -0.0639
16585TIP3   OH271169   1.520   4.471  15.182 -1.1747  0.4807  0.3967
16585TIP3    H171170   1.549   4.379  15.186 -1.3484  0.4367  0.6315
16585TIP3    H271171   1.594   4.517  15.141 -1.6747 -0.0045 -1.1292
16586TIP3   OH271172   2.277   3.315   2.041  0.5793  0.4072  0.0726
16586TIP3    H171173   2.371   3.308   2.028  0.7228  0.8296  0.7887
16586TIP3    H271174   2.267   3.379   2.113 -0.1255 -1.3889  1.6654
16587TIP3   OH271175   5.268   5.899  10.689 -0.3983 -0.6704 -0.3850
16587TIP3    H171176   5.180   5.861  10.686 -0.7680 -0.5979  3.6780
16587TIP3    H271177   5.253   5.993  10.681 -0.2942 -0.7849 -2.5408
16588TIP3   OH271178   6.725   1.009   4.486  0.0158 -0.6074 -0.3645
16588TIP3    H171179   6.725   0.924   4.443 -1.8803 -0.0014 -1.6581
16588TIP3    H271180   6.635   1.021   4.517  1.1254 -0.7603  3.3928
16589TIP3   OH271181   4.154   0.411   3.885  1.0184  0.0172  0.6805
16589TIP3    H171182   4.095   0.429   3.812  1.4474 -0.4683  0.2016
16589TIP3    H271183   4.240   0.440   3.854  1.3565 -0.9902  0.6557
16590TIP3   OH271184   3.645   3.106   2.164 -0.2153  0.0364 -0.1097
16590TIP3    H171185   3.558   3.120   2.127 -0.8752  1.8687  1.8881
16590TIP3    H271186   3.692   3.186   2.145  0.2683 -0.0365  0.7326
16591TIP3   OH271187   3.557   4.196   6.723 -0.0122 -0.4045  0.4630
16591TIP3    H171188   3.541   4.259   6.653 -2.0816  1.4060  2.4137
16591TIP3    H271189   3.502   4.121   6.700 -0.3037 -0.0322 -0.0771
16592TIP3   OH271190   3.830   3.866  14.202 -0.4904 -0.3837 -0.3079
16592TIP3    H171191   3.838   3.852  14.296  0.6410  0.0861 -0.3215
16592TIP3    H271192   3.920   3.876  14.171 -0.8630 -0.2644 -1.3949
16593TIP3   OH271193   4.541   2.300  16.996 -0.0423  0.5023  0.6693
16593TIP3    H171194   4.549   2.262  17.084  1.3886 -0.4449  0.1681
16593TIP3    H271195   4.478   2.371  17.006 -0.1310  0.2213  2.3988
16594TIP3   OH271196   6.723   3.945   3.611 -0.0655 -0.4391  0.2921
16594TIP3    H171197   6.631   3.924   3.622 -0.0150 -0.3272  0.9329
16594TIP3    H271198   6.743   4.009   3.679  0.4128 -0.2278 -0.0334
16595TIP3   OH271199   2.257   5.579   1.591  0.4435  0.4376 -0.0321
16595TIP3    H171200   2.240   5.644   1.522 -1.1644 -0.2101 -0.2950
16595TIP3    H271201   2.172   5.568   1.634  0.8992 -0.8574  0.5637
16596TIP3   OH271202   0.098   0.709   5.543 -0.0744 -0.5014 -0.5320
16596TIP3    H171203   0.061   0.620   5.541 -0.9112 -0.1726 -0.0047
16596TIP3    H271204   0.138   0.719   5.457  2.4641 -2.3849  0.3053
16597TIP3   OH271205   6.146   0.345  14.365 -0.2653 -0.2579  0.1706
16597TIP3    H171206   6.121   0.273  14.423 -0.7993 -1.0330 -0.9886
16597TIP3    H271207   6.063   0.384  14.339 -0.0944 -0.5715 -0.8717
16598TIP3   OH271208   5.627   6.078   0.575  0.6383 -0.0363 -0.6662
16598TIP3    H171209   5.624   6.161   0.621  1.6219 -0.3781  0.0295
16598TIP3    H271210   5.536   6.046   0.578 -0.2204  1.9208 -2.7098
16599TIP3   OH271211   1.622   4.303   0.673  0.2997 -0.2706  0.2625
16599TIP3    H171212   1.549   4.352   0.636  0.3211 -0.5250 -0.1183
16599TIP3    H271213   1.676   4.369   0.715  0.6157  0.1103 -0.7215
16600TIP3   OH271214   2.486   1.329  12.602  0.2430  0.4223 -0.5760
16600TIP3    H171215   2.478   1.390  12.676  3.5415  0.7688 -0.3815
16600TIP3    H271216   2.406   1.277  12.606 -0.2697  1.2314  2.4940
16601TIP3   OH271217   3.539   1.122   3.886  0.7236 -0.7938 -0.5047
16601TIP3    H171218   3.504   1.079   3.964  0.0299 -1.0943 -0.9703
16601TIP3    H271219   3.579   1.051   3.836  0.8542 -0.6615 -0.5873
16602TIP3   OH271220   3.319   3.869   0.511  0.1875 -0.1533  0.2372
16602TIP3    H171221   3.354   3.935   0.450  0.2562 -0.8568 -0.5104
16602TIP3    H271222   3.397   3.829   0.550  0.1604 -0.1226  0.3215
16603TIP3   OH271223   2.063   5.846  13.242  0.2473  0.2049 -0.3710
16603TIP3    H171224   2.072   5.756  13.211 -0.4805 -0.4363  1.1809
16603TIP3    H271225   2.096   5.900  13.170  0.1504 -1.2670 -1.5532
16604TIP3   OH271226   4.201   6.055  11.683 -0.0017  0.6485  0.0533
16604TIP3    H171227   4.291   6.086  11.675 -0.4162  2.0429  0.5223
16604TIP3    H271228   4.150   6.134  11.700 -1.1824 -0.2461  0.8198
16605TIP3   OH271229   0.705   2.903  14.296  0.2564 -0.4142  0.4949
16605TIP3    H171230   0.646   2.972  14.327  0.2650  0.0195 -0.3959
16605TIP3    H271231   0.775   2.950  14.252  0.8745 -0.9612  0.8832
16606TIP3   OH271232   1.583   4.905  14.143 -0.0392  0.3504  0.1760
16606TIP3    H171233   1.547   4.952  14.068  1.4286  0.5611 -0.4174
16606TIP3    H271234   1.678   4.909  14.131  0.1650 -2.0492  0.5489
16607TIP3   OH271235   4.179   4.723  14.191  0.1525  0.4896  0.4538
16607TIP3    H171236   4.118   4.765  14.252  1.0392  1.9413  0.3819
16607TIP3    H271237   4.224   4.796  14.148  1.1951 -0.5404 -0.2558
16608TIP3   OH271238   3.283   1.531   3.165 -0.1789 -0.4528  0.2144
16608TIP3    H171239   3.350   1.474   3.127  1.5508  1.9896 -0.6662
16608TIP3    H271240   3.310   1.544   3.255  1.5367  1.7817 -0.5547
16609TIP3   OH271241   0.757   0.034   4.820 -0.2659 -0.1191 -0.2066
16609TIP3    H171242   0.683   0.016   4.762 -0.0794 -0.8109 -0.2314
16609TIP3    H271243   0.721   0.026   4.908 -0.0530 -1.2014 -0.2096
16610TIP3   OH271244   1.788   2.570   0.021  0.3476 -0.1305 -0.6026
16610TIP3    H171245   1.828   2.576   0.108 -0.1100 -0.9432 -0.3290
16610TIP3    H271246   1.763   2.660   0.001 -1.3311 -0.1868  0.9854
16611TIP3   OH271247   6.775   3.862  15.670  0.5531  0.3805  0.4125
16611TIP3    H171248   6.705   3.926  15.663  0.9682  0.6620 -2.4936
16611TIP3    H271249   6.799   3.863  15.763 -2.0728  1.5113  1.1880
16612TIP3   OH271250   5.408   4.081  12.647 -0.2737 -1.1242  0.0871
16612TIP3    H171251   5.498   4.050  12.636 -0.3420 -1.2072 -0.2294
16612TIP3    H271252   5.418   4.172  12.675 -0.0720 -1.4266  1.0605
16613TIP3   OH271253   2.976   5.711  16.393 -0.0260 -0.6577 -0.3618
16613TIP3    H171254   2.988   5.686  16.484 -0.7160 -0.3044 -0.1646
16613TIP3    H271255   2.907   5.654  16.361  1.9153 -2.5424 -1.4217
16614TIP3   OH271256   6.001   0.750  15.833  0.1183  0.0677 -0.9164
16614TIP3    H171257   5.951   0.670  15.822  0.5557 -0.9150  2.9438
16614TIP3    H271258   5.938   0.821  15.817 -1.1062 -1.0514 -1.1951
16615TIP3   OH271259   6.343   6.054   0.480 -0.0953  0.1034 -0.3193
16615TIP3    H171260   6.387   6.068   0.396 -0.6198 -2.0298 -1.0319
16615TIP3    H271261   6.375   5.968   0.509 -1.3722 -0.0636  0.7022
16616TIP3   OH271262   6.021   6.652   5.649 -0.0523 -0.2693 -1.0891
16616TIP3    H171263   6.008   6.578   5.709  0.2261  0.4579 -0.1185
16616TIP3    H271264   6.090   6.622   5.589  2.3625  0.3156  1.2427
16617TIP3   OH271265   6.227   2.824   1.370 -0.1019 -0.3163  0.3103
16617TIP3    H171266   6.158   2.769   1.409  1.2277 -1.0958  1.6378
16617TIP3    H271267   6.299   2.820   1.432  0.5410  1.8966 -0.2192
16618TIP3   OH271268   0.033   5.282   4.605 -0.3436 -0.0007  0.6140
16618TIP3    H171269   0.123   5.272   4.572 -0.8635 -1.7758 -0.3861
16618TIP3    H271270   0.041   5.273   4.700  0.3878 -1.7726  0.4262
16619TIP3   OH271271   6.565   5.200   4.580 -0.0816 -0.0847  0.2372
16619TIP3    H171272   6.582   5.174   4.670 -0.2942 -0.5445  0.1452
16619TIP3    H271273   6.651   5.215   4.542 -0.0261  1.7841  0.9997
16620TIP3   OH271274   1.843   4.280   3.137  0.7482 -0.0893  0.2053
16620TIP3    H171275   1.901   4.266   3.212 -0.9653  0.9402  1.8203
16620TIP3    H271276   1.756   4.258   3.170  0.1033 -1.0958 -1.9854
16621TIP3   OH271277   5.259   1.745   0.766  0.4730 -0.0580  0.3186
16621TIP3    H171278   5.240   1.838   0.751  1.7048  0.2753  0.7186
16621TIP3    H271279   5.317   1.719   0.694 -0.3089 -0.6776 -0.1023
16622TIP3   OH271280   0.684   6.554   0.555  0.1272  0.0428 -0.0116
16622TIP3    H171281   0.624   6.603   0.610  2.4452  1.5133  1.3396
16622TIP3    H271282   0.709   6.479   0.608  1.7199  1.0161  0.6547
16623TIP3   OH271283   0.869   4.203  12.911  0.0592  0.0758 -0.0503
16623TIP3    H171284   0.774   4.191  12.910  0.0890 -0.0882 -1.0778
16623TIP3    H271285   0.900   4.164  12.830  1.0063  0.1947  0.2379
16624TIP3   OH271286   6.634   2.163  14.327 -0.5721  0.1568  0.0205
16624TIP3    H171287   6.715   2.208  14.302 -1.4290  1.4429 -0.5335
16624TIP3    H271288   6.629   2.089  14.266  0.4277 -0.2521  0.4021
16625TIP3   OH271289   2.045   3.405   1.110  1.1098  0.2283 -0.2903
16625TIP3    H171290   2.029   3.323   1.157  1.3046  0.2247 -0.2297
16625TIP3    H271291   2.141   3.411   1.103  1.2992  1.9850  2.4245
16626TIP3   OH271292   3.373   0.775  15.979  0.3273  0.4815  0.0867
16626TIP3    H171293   3.465   0.799  15.966  0.7075 -0.3357  1.1252
16626TIP3    H271294   3.348   0.732  15.897  0.3632  2.1308 -0.8385
16627TIP3   OH271295   3.568   1.834  11.869  0.0393  0.0827  0.6070
16627TIP3    H171296   3.489   1.796  11.832 -1.3915  2.2230  1.3032
16627TIP3    H271297   3.537   1.903  11.927  2.4191  0.8950  1.0281
16628TIP3   OH271298   5.800   3.973  14.365 -0.2447 -0.0763  0.4118
16628TIP3    H171299   5.872   3.939  14.312  1.9456  1.8491  1.9727
16628TIP3    H271300   5.764   4.045  14.313 -0.7859 -0.7252 -0.1474
16629TIP3   OH271301   6.488   3.287   3.382  0.4590 -0.3417  0.4288
16629TIP3    H171302   6.560   3.268   3.322 -0.9191  0.4698 -1.5876
16629TIP3    H271303   6.417   3.229   3.355 -0.2491  0.1349  1.1988
16630TIP3   OH271304   3.871   0.481   1.978 -0.1139  0.1084  0.3391
16630TIP3    H171305   3.823   0.487   2.061 -0.1287 -0.4469  0.3686
16630TIP3    H271306   3.893   0.572   1.957  0.0378  0.2356  1.0377
16631TIP3   OH271307   2.993   1.130   3.557  0.4284  0.1587  0.2193
16631TIP3    H171308   2.924   1.196   3.546  1.0772  1.0526  1.2520
16631TIP3    H271309   3.006   1.125   3.652  0.3050 -1.5812  0.1677
16632TIP3   OH271310   0.875   1.327   1.759  0.3286 -0.2093  0.3037
16632TIP3    H171311   0.792   1.284   1.741  0.6176 -0.1419 -1.3772
16632TIP3    H271312   0.936   1.256   1.778  0.5773 -0.5375 -1.5183
16633TIP3   OH271313   5.430   3.874  16.282  0.4102  0.4432 -0.1555
16633TIP3    H171314   5.338   3.898  16.292  0.6708  1.1483  0.6780
16633TIP3    H271315   5.478   3.943  16.328  1.3735  0.2126 -0.7856
16634TIP3   OH271316   5.345   1.775  12.979  0.0129 -0.6308 -0.1775
16634TIP3    H171317   5.350   1.868  13.003  1.0220 -0.5221 -0.7274
16634TIP3    H271318   5.425   1.760  12.927  1.0071 -2.3463  1.7220
16635TIP3   OH271319   6.302   6.204  16.904 -0.1247 -0.4994 -0.0597
16635TIP3    H171320   6.254   6.210  16.821  0.6332 -0.8782 -0.5376
16635TIP3    H271321   6.237   6.174  16.967  0.1540 -4.4528 -1.3824
16636TIP3   OH271322   3.851   5.412  16.266  0.0595  0.1241  0.2082
16636TIP3    H171323   3.903   5.488  16.291  1.2607 -0.5618 -0.1435
16636TIP3    H271324   3.882   5.342  16.324 -0.5769 -0.2583  0.0942
16637TIP3   OH271325   5.024   1.975   6.064 -0.5268 -0.3222  0.7808
16637TIP3    H171326   5.071   1.985   6.147 -0.2761 -0.0018  0.6021
16637TIP3    H271327   4.935   1.950   6.090  0.1129 -2.4656  1.0724
16638TIP3   OH271328   3.354   3.938   2.044  0.0858  0.2801  0.1352
16638TIP3    H171329   3.283   3.956   2.105 -0.0341 -0.8753  0.3587
16638TIP3    H271330   3.434   3.960   2.093 -0.0907  1.2669 -0.0055
16639TIP3   OH271331   1.779   1.313  14.028 -0.0752  0.6759  0.6411
16639TIP3    H171332   1.806   1.264  13.951 -0.2446  2.1255 -0.3893
16639TIP3    H271333   1.803   1.257  14.102  2.3064  0.2541 -0.3539
16640TIP3   OH271334   4.872   4.047  13.405  0.2193 -0.1811 -0.1086
16640TIP3    H171335   4.862   4.091  13.490  0.0628  0.6015 -0.5237
16640TIP3    H271336   4.964   4.060  13.383  0.7584 -2.0501  0.8203
16641TIP3   OH271337   3.677   5.607   3.582  0.2722 -0.4358  0.7361
16641TIP3    H171338   3.751   5.666   3.598  0.7516 -1.2433  1.6303
16641TIP3    H271339   3.705   5.554   3.508 -1.1773  2.0518 -1.7599
16642TIP3   OH271340   0.795   0.855   0.947 -0.6138 -0.4273  0.2485
16642TIP3    H171341   0.852   0.822   0.878 -1.3616 -0.2842 -0.4556
16642TIP3    H271342   0.854   0.877   1.019  0.3132  0.6710 -0.8191
16643TIP3   OH271343   6.121   1.217  14.892 -0.6619  0.5980  0.0636
16643TIP3    H171344   6.134   1.311  14.878  1.2804  0.8572  2.7752
16643TIP3    H271345   6.123   1.180  14.804 -0.4674  2.9747 -1.0235
16644TIP3   OH271346   6.220   6.693   3.080 -0.2331 -0.3148 -0.2043
16644TIP3    H171347   6.295   6.738   3.039 -0.6333  0.3085 -0.2550
16644TIP3    H271348   6.151   6.699   3.014 -0.8323  0.5475  0.4884
16645TIP3   OH271349   5.714   4.133  12.580  0.1459  0.4327  0.4930
16645TIP3    H171350   5.727   4.211  12.525  0.3180  0.8609  1.1267
16645TIP3    H271351   5.789   4.077  12.560 -0.3960  0.0551 -0.5680
16646TIP3   OH271352   5.429   6.711  15.193  0.7015  0.2007 -0.4138
16646TIP3    H171353   5.366   6.782  15.179  1.7742  0.9494 -1.6869
16646TIP3    H271354   5.402   6.671  15.275 -0.9524  1.0022 -0.5313
16647TIP3   OH271355   1.059   3.908   5.299  0.3710 -0.2245 -0.3680
16647TIP3    H171356   1.108   3.837   5.340 -1.4152 -0.6244  1.2213
16647TIP3    H271357   1.024   3.870   5.219  2.3648  0.0020 -1.4038
16648TIP3   OH271358   4.943   0.728   0.522 -0.1526  0.1617 -0.1117
16648TIP3    H171359   4.961   0.701   0.612 -2.0759 -0.1158  0.2382
16648TIP3    H271360   4.877   0.665   0.491  0.8056 -0.0437 -1.8917
16649TIP3   OH271361   4.097   1.038  16.311 -0.5049 -0.0167  0.2232
16649TIP3    H171362   4.062   1.094  16.380 -1.6716  3.7496 -3.0526
16649TIP3    H271363   4.183   1.076  16.292  0.0153 -1.3099 -0.0876
16650TIP3   OH271364   1.514   1.754  16.326  0.4379  0.5264 -0.6761
16650TIP3    H171365   1.500   1.779  16.417  3.0625  2.1439 -0.6228
16650TIP3    H271366   1.519   1.658  16.328 -1.2091  0.4343  0.5602
16651TIP3   OH271367   3.538   5.187   1.470 -0.1874 -0.1422  0.3459
16651TIP3    H171368   3.614   5.209   1.524  0.7315  0.6889 -1.2062
16651TIP3    H271369   3.572   5.123   1.407 -0.2422  1.5608 -1.5110
16652TIP3   OH271370   3.420   2.828  10.783  0.4740 -0.0465 -0.3892
16652TIP3    H171371   3.327   2.806  10.783  0.7534 -1.4306  1.3713
16652TIP3    H271372   3.463   2.748  10.753  1.2033 -0.0310  0.5902
16653TIP3   OH271373   3.837   5.856  14.131  0.1082  0.0178  0.9308
16653TIP3    H171374   3.875   5.940  14.104 -0.6175 -0.5232 -2.2000
16653TIP3    H271375   3.755   5.880  14.175  0.9030  0.9846  1.9216
16654TIP3   OH271376   3.848   5.318   5.375  0.2470 -0.1815  0.5165
16654TIP3    H171377   3.814   5.383   5.437 -0.1835  0.0106  0.0877
16654TIP3    H271378   3.779   5.252   5.369 -0.6281  0.8387 -1.3015
16655TIP3   OH271379   0.863   4.074   1.216  0.0548  0.6063  0.1473
16655TIP3    H171380   0.943   4.117   1.186 -0.3535  1.3194  0.0796
16655TIP3    H271381   0.893   3.990   1.251  0.5650 -0.3669 -2.4087
16656TIP3   OH271382   2.263   0.723  16.879 -0.3570  0.1184 -1.1142
16656TIP3    H171383   2.190   0.665  16.860 -1.2191  1.3295 -1.6404
16656TIP3    H271384   2.231   0.779  16.950  0.3234  0.2115 -0.8686
16657TIP3   OH271385   1.454   5.443   1.264  0.7469  0.0171 -0.2314
16657TIP3    H171386   1.440   5.538   1.263  1.2149  0.0859 -0.7940
16657TIP3    H271387   1.376   5.407   1.222  1.0828  0.2329 -1.0571
16658TIP3   OH271388   1.456   0.593   6.511 -0.2236 -0.0479 -0.1180
16658TIP3    H171389   1.417   0.677   6.486 -0.4038  0.0468  0.4698
16658TIP3    H271390   1.544   0.596   6.474 -0.6870 -0.1746 -1.2739
16659TIP3   OH271391   0.996   2.645   4.756 -0.1453  0.3613  0.5462
16659TIP3    H171392   0.909   2.606   4.765  0.1381  0.0927  2.7911
16659TIP3    H271393   1.055   2.579   4.794  1.1660  0.2391 -1.5324
16660TIP3   OH271394   3.381   4.305  11.664  0.0173 -0.2898 -0.3095
16660TIP3    H171395   3.424   4.347  11.590  0.7268 -0.3948  0.0411
16660TIP3    H271396   3.427   4.222  11.676  1.5512  0.7701  1.7690
16661TIP3   OH271397   4.672   6.250   0.960  0.1134 -0.2235 -0.2303
16661TIP3    H171398   4.761   6.281   0.980  0.1084  0.0502 -0.6227
16661TIP3    H271399   4.669   6.246   0.865 -0.5745  0.6110 -0.2582
16662TIP3   OH271400   5.363   3.603   5.965  0.2804  0.1984  0.4881
16662TIP3    H171401   5.402   3.688   5.949 -0.8075  0.4275 -1.1224
16662TIP3    H271402   5.273   3.622   5.992  0.0756 -0.4370  0.2731
16663TIP3   OH271403   6.610   2.318  12.554 -0.0121  0.1272 -0.8308
16663TIP3    H171404   6.700   2.305  12.524  0.5373 -0.2956  0.8785
16663TIP3    H271405   6.619   2.364  12.637 -1.4038  0.3623 -0.7804
16664TIP3   OH271406   3.365   0.298  11.129  0.3172  0.2021 -0.3754
16664TIP3    H171407   3.321   0.288  11.045  0.0639 -2.5001 -0.0129
16664TIP3    H271408   3.299   0.333  11.188 -0.1462  0.0229 -0.7899
16665TIP3   OH271409   4.679   4.277  13.834 -0.7347  0.2484  0.2020
16665TIP3    H171410   4.644   4.354  13.789  1.4506  0.3178 -1.5511
16665TIP3    H271411   4.603   4.221  13.849 -1.6365  0.0672 -3.9740
16666TIP3   OH271412   3.096   4.615   5.491  0.4188  0.3760 -0.5291
16666TIP3    H171413   3.006   4.638   5.513  1.4316  2.3507  2.2010
16666TIP3    H271414   3.101   4.520   5.505 -1.7246 -0.2324 -3.1610
16667TIP3   OH271415   4.253   2.607   3.234  0.4724 -0.2259  0.1099
16667TIP3    H171416   4.309   2.595   3.311  1.9231  0.9245 -0.7036
16667TIP3    H271417   4.315   2.615   3.161 -0.8709 -2.2264 -1.3664
16668TIP3   OH271418   2.283   4.931   5.418  0.7449  0.4805  0.5909
16668TIP3    H171419   2.293   4.886   5.334  0.1986  1.6313 -0.1141
16668TIP3    H271420   2.367   4.974   5.433  1.7415 -1.7397  1.9105
16669TIP3   OH271421   4.476   1.694   4.038  0.0321  0.4277  0.3119
16669TIP3    H171422   4.381   1.688   4.030  0.1322 -1.7212  0.3068
16669TIP3    H271423   4.496   1.783   4.009 -2.1230  1.6099  2.1186
16670TIP3   OH271424   4.754   5.586   2.104 -0.3264 -0.1203 -0.1394
16670TIP3    H171425   4.797   5.666   2.076 -0.9395  0.5123  0.6666
16670TIP3    H271426   4.673   5.584   2.053 -0.6133  0.1167  0.2990
16671TIP3   OH271427   2.884   5.601   3.118  0.0147 -0.3969 -0.4490
16671TIP3    H171428   2.805   5.615   3.067 -1.5626 -0.1665  1.8757
16671TIP3    H271429   2.922   5.688   3.128 -0.7645 -0.1370  0.3728
16672TIP3   OH271430   1.926   0.618  12.593 -0.2075 -0.4227  0.1610
16672TIP3    H171431   1.840   0.650  12.618 -1.2586 -2.8547 -0.0080
16672TIP3    H271432   1.918   0.522  12.600  2.5827 -0.7101  0.4626
16673TIP3   OH271433   6.456   5.064   0.460 -0.5292  0.1264 -0.5096
16673TIP3    H171434   6.456   4.977   0.500  0.3644  0.6532  0.7154
16673TIP3    H271435   6.453   5.047   0.366 -0.5159 -1.2264 -0.2890
16674TIP3   OH271436   4.383   3.516  14.847  0.5476 -0.6086 -0.5215
16674TIP3    H171437   4.424   3.602  14.854 -0.3840  0.2606 -4.0699
16674TIP3    H271438   4.296   3.528  14.883  1.2569 -0.8346  1.3790
16675TIP3   OH271439   2.667   2.082  15.149  0.4756  0.1106  0.2552
16675TIP3    H171440   2.714   2.010  15.192  0.2798 -0.8812 -1.1439
16675TIP3    H271441   2.674   2.155  15.211  1.3439 -0.8742  1.3649
16676TIP3   OH271442   2.069   2.380  10.888  0.4920  0.7629 -0.1939
16676TIP3    H171443   2.007   2.346  10.952 -0.8907 -0.8411 -2.2637
16676TIP3    H271444   2.083   2.308  10.827  1.0933  2.4459 -2.1772
16677TIP3   OH271445   0.546   3.736  14.165 -0.1163  0.1170 -0.7224
16677TIP3    H171446   0.460   3.768  14.194 -0.5103 -0.4301 -1.2727
16677TIP3    H271447   0.607   3.767  14.233 -0.8838 -0.3276  0.1955
16678TIP3   OH271448   5.929   1.318  16.214  0.2022 -0.1507 -0.2036
16678TIP3    H171449   5.926   1.409  16.244  0.3765 -0.3738  0.5216
16678TIP3    H271450   5.847   1.306  16.166  0.4392  0.5536 -0.8102
16679TIP3   OH271451   5.164   5.573  14.357 -0.4625  0.5529 -0.1518
16679TIP3    H171452   5.257   5.592  14.341 -0.3813  0.1553 -0.1748
16679TIP3    H271453   5.128   5.655  14.389 -0.3527  1.0262 -1.1945
16680TIP3   OH271454   4.172   1.689  12.153 -0.1512 -0.3124 -0.4909
16680TIP3    H171455   4.247   1.711  12.097 -0.1488 -1.1815 -0.8494
16680TIP3    H271456   4.180   1.747  12.228  0.6893 -0.1479 -0.6954
16681TIP3   OH271457   2.090   0.938  15.661 -0.0920  0.1002 -0.1364
16681TIP3    H171458   2.113   1.031  15.669  0.0178  0.1923 -1.3711
16681TIP3    H271459   2.096   0.905  15.751  3.3355  0.5021 -0.0697
16682TIP3   OH271460   4.676   4.845  14.646  0.7698 -0.3730  0.4166
16682TIP3    H171461   4.586   4.818  14.663  0.6484  0.1295  0.5741
16682TIP3    H271462   4.719   4.766  14.613 -0.3438 -0.0303 -2.0324
16683TIP3   OH271463   0.098   6.018   2.093 -0.0931  0.5125  0.1744
16683TIP3    H171464   0.185   5.981   2.105  0.6157  1.9186 -0.3726
16683TIP3    H271465   0.073   5.992   2.004 -0.6727 -0.7029  0.6687
16684TIP3   OH271466   0.732   5.434   3.565  0.2333 -0.1955 -0.3710
16684TIP3    H171467   0.813   5.458   3.609  0.6680 -2.2467  0.0392
16684TIP3    H271468   0.760   5.403   3.479 -0.2302  0.0335 -0.6098
16685TIP3   OH271469   2.827   6.211  13.503  0.5033  0.0917  0.0547
16685TIP3    H171470   2.829   6.116  13.489 -1.9382 -0.1323  0.7580
16685TIP3    H271471   2.807   6.220  13.596 -0.7080  1.2477 -0.2888
16686TIP3   OH271472   5.263   4.586  14.034  0.4454  0.4913 -0.1563
16686TIP3    H171473   5.271   4.591  13.939  2.3017 -0.6461 -0.1303
16686TIP3    H271474   5.172   4.562  14.050  0.0514  0.9204 -1.6243
16687TIP3   OH271475   1.385   5.982  13.673  0.7793  0.4916 -0.2278
16687TIP3    H171476   1.434   5.942  13.602  0.4387 -0.3353 -0.0051
16687TIP3    H271477   1.297   5.997  13.636  0.9238  1.1196 -0.3350
16688TIP3   OH271478   2.573   0.439  16.766 -0.3477  0.2000  0.3423
16688TIP3    H171479   2.499   0.438  16.705 -1.4494 -0.3461  1.6312
16688TIP3    H271480   2.649   0.422  16.711 -0.7632  3.3496 -1.4697
16689TIP3   OH271481   4.887   4.423   3.078  0.2100  0.1057 -0.1925
16689TIP3    H171482   4.856   4.334   3.094 -0.0198 -0.0431 -1.3622
16689TIP3    H271483   4.837   4.477   3.140  1.2251 -0.6842  1.3836
16690TIP3   OH271484   0.873   3.474  15.822  0.5045 -0.1738 -0.0042
16690TIP3    H171485   0.792   3.479  15.770 -0.5486  0.2623  1.5939
16690TIP3    H271486   0.875   3.384  15.855  2.6027 -1.3318 -2.8595
16691TIP3   OH271487   3.569   0.026   5.109 -0.4437 -0.1990 -0.2184
16691TIP3    H171488   3.535   0.092   5.170  0.3721 -1.2578  1.4358
16691TIP3    H271489   3.656   0.004   5.143 -0.8457 -2.4072 -0.4850
16692TIP3   OH271490   2.590   1.379   4.919  0.4144  0.3990 -0.3413
16692TIP3    H171491   2.682   1.359   4.932  0.5488  1.1029 -0.1752
16692TIP3    H271492   2.590   1.460   4.868 -0.1100  0.3539 -0.4188
16693TIP3   OH271493   5.994   2.480   5.880  0.4958  0.7047 -0.3397
16693TIP3    H171494   5.899   2.489   5.889  0.2988 -1.5233  0.1759
16693TIP3    H271495   6.023   2.437   5.960  1.8122  0.4176 -0.9389
16694TIP3   OH271496   3.039   0.863   3.963 -0.1922  0.0604 -0.2907
16694TIP3    H171497   3.086   0.804   3.903 -0.7292 -0.7992  0.1148
16694TIP3    H271498   3.108   0.918   4.001  0.3742 -0.5682 -0.3907
16695TIP3   OH271499   6.056   1.794   4.966 -0.0863  0.1954  0.2681
16695TIP3    H171500   6.001   1.842   4.904 -0.5225 -1.0837 -0.3791
16695TIP3    H271501   6.009   1.799   5.049 -0.3171  0.5608  0.1170
16696TIP3   OH271502   3.127   5.510  15.026 -0.2884 -0.6244 -0.1221
16696TIP3    H171503   3.174   5.456  15.090  1.2500  0.8326  0.0501
16696TIP3    H271504   3.124   5.597  15.066 -3.0614 -0.6041 -0.2075
16697TIP3   OH271505   6.120   3.487  15.614  0.3652  0.1163  0.2069
16697TIP3    H171506   6.124   3.515  15.522 -0.3674  1.7508  0.6320
16697TIP3    H271507   6.195   3.429  15.625  1.7227  1.5676 -0.9158
16698TIP3   OH271508   3.671   6.053   2.658 -0.6947  0.2323  0.3617
16698TIP3    H171509   3.705   6.038   2.746 -1.0079  1.6684  0.7556
16698TIP3    H271510   3.738   6.104   2.614 -0.0841 -1.3390 -0.6094
16699TIP3   OH271511   6.061   4.959  14.709 -0.3489  0.0233  0.1991
16699TIP3    H171512   6.073   4.888  14.773  0.9618 -0.0200 -0.0573
16699TIP3    H271513   5.988   5.011  14.743  1.2635  0.8912  2.5741
16700TIP3   OH271514   6.723   0.715  11.366  0.3907  0.2670  0.1712
16700TIP3    H171515   6.723   0.810  11.361  0.1330  0.2481 -0.2128
16700TIP3    H271516   6.694   0.686  11.280 -1.5048 -0.1242  0.8862
16701TIP3   OH271517   1.010   4.828  14.631 -0.2627  0.5212 -0.1284
16701TIP3    H171518   0.929   4.828  14.581 -1.0090 -0.1774  1.0228
16701TIP3    H271519   1.074   4.785  14.575 -0.7773  0.7458 -0.9009
16702TIP3   OH271520   0.351   5.935   1.114  0.1127  0.0483  0.1485
16702TIP3    H171521   0.415   5.864   1.116  0.1046  0.0476  1.1367
16702TIP3    H271522   0.397   6.007   1.070  0.4979 -0.2328  0.0867
16703TIP3   OH271523   2.766   5.233  15.487  0.3812  0.3106 -0.0144
16703TIP3    H171524   2.721   5.168  15.432  2.3502 -2.0375  0.9574
16703TIP3    H271525   2.736   5.215  15.576 -2.3060  3.6803 -0.0362
16704TIP3   OH271526   4.926   2.829  15.795  0.5175  0.1143  0.1514
16704TIP3    H171527   4.873   2.749  15.794  2.2389 -1.1349  1.6396
16704TIP3    H271528   4.996   2.811  15.858  1.6537  2.3794 -0.3406
16705TIP3   OH271529   2.803   4.243   2.456 -0.3305  0.3825  0.1330
16705TIP3    H171530   2.872   4.204   2.402 -0.9427  0.7935 -0.9745
16705TIP3    H271531   2.849   4.285   2.528  0.4406 -1.0730  0.5229
16706TIP3   OH271532   2.348   1.148  15.166 -0.5047 -0.3609 -0.8276
16706TIP3    H171533   2.371   1.215  15.231  0.0309 -0.3159 -1.0643
16706TIP3    H271534   2.260   1.119  15.193  0.1494 -1.1470  0.5723
16707TIP3   OH271535   5.703   5.389   4.249 -0.0309 -0.6456 -1.1309
16707TIP3    H171536   5.637   5.451   4.279  0.8651 -0.7882  1.3154
16707TIP3    H271537   5.784   5.419   4.289  0.5782 -2.8909 -0.5643
16708TIP3   OH271538   1.931   2.293   6.723 -0.2776  0.4253  0.1725
16708TIP3    H171539   2.011   2.345   6.722  0.2233 -0.3160  0.6788
16708TIP3    H271540   1.861   2.356   6.706  0.2618  1.3426  1.2395
16709TIP3   OH271541   6.325   6.247   1.176 -0.0649  0.2823  0.1741
16709TIP3    H171542   6.234   6.219   1.187 -0.8211  1.9079 -1.4730
16709TIP3    H271543   6.369   6.217   1.256 -2.2237  0.2078  1.4148
16710TIP3   OH271544   4.769   5.852   3.268  0.1589  0.0799 -0.2184
16710TIP3    H171545   4.799   5.764   3.245 -0.5240 -0.0638 -0.5960
16710TIP3    H271546   4.821   5.910   3.211  0.6779 -0.0676  0.1006
16711TIP3   OH271547   3.812   5.567   2.081 -0.0441 -0.4402 -0.0795
16711TIP3    H171548   3.842   5.476   2.087  1.5320  0.0596 -0.0115
16711TIP3    H271549   3.745   5.575   2.149 -1.9939 -2.1758 -1.6377
16712TIP3   OH271550   0.799   3.963   2.426  0.7092  0.1154 -0.2694
16712TIP3    H171551   0.887   3.992   2.450  0.8492  0.6667 -1.4025
16712TIP3    H271552   0.755   3.949   2.510  1.7652  0.1681  0.3089
16713TIP3   OH271553   6.439   0.306   5.602 -0.4496 -0.1425 -0.0519
16713TIP3    H171554   6.407   0.319   5.691 -2.1055 -1.5196 -0.3835
16713TIP3    H271555   6.457   0.212   5.597 -1.4197 -0.2775 -1.4637
16714TIP3   OH271556   0.283   3.767  13.391 -0.3208  0.1073  0.3478
16714TIP3    H171557   0.267   3.822  13.314 -0.0991  0.8481  0.8286
16714TIP3    H271558   0.308   3.828  13.460  1.2822 -0.6863  0.5250
16715TIP3   OH271559   1.322   5.169   3.970 -0.2559 -0.6518 -0.4442
16715TIP3    H171560   1.247   5.217   4.005  1.0778  0.6602  0.7906
16715TIP3    H271561   1.336   5.206   3.883  1.2324  1.9819  0.7636
16716TIP3   OH271562   4.706   4.190  14.443 -0.2328 -0.3987 -0.1781
16716TIP3    H171563   4.665   4.180  14.529 -0.7275  0.1372 -0.3482
16716TIP3    H271564   4.666   4.268  14.406  0.4745 -0.2329 -0.6188
16717TIP3   OH271565   2.054   0.213  13.413 -0.2447  0.1141  0.0332
16717TIP3    H171566   1.973   0.170  13.388 -0.1609  0.7946 -1.5365
16717TIP3    H271567   2.119   0.142  13.416 -0.3880 -0.0856 -1.1697
16718TIP3   OH271568   5.970   2.761   4.662 -0.5901 -0.2477  0.0616
16718TIP3    H171569   5.990   2.814   4.739  1.5007 -1.9422  0.7731
16718TIP3    H271570   6.039   2.694   4.660 -0.1115  0.1546 -3.7078
16719TIP3   OH271571   3.079   4.309  16.940  0.3216 -0.1055 -0.6926
16719TIP3    H171572   2.989   4.293  16.911  0.8878  0.0068 -2.6800
16719TIP3    H271573   3.079   4.286  17.033 -1.0740 -2.8554 -1.2696
16720TIP3   OH271574   5.736   1.367  12.428 -0.0678  0.6222  0.0327
16720TIP3    H171575   5.784   1.448  12.411  0.1623  0.4401 -0.2001
16720TIP3    H271576   5.653   1.378  12.380 -0.1048  0.7872  0.1357
16721TIP3   OH271577   4.496   6.703   3.776 -0.2897 -0.1552  0.1503
16721TIP3    H171578   4.579   6.728   3.816  0.5542 -3.0655  0.4359
16721TIP3    H271579   4.500   6.739   3.688  0.4790  1.2203  0.7159
16722TIP3   OH271580   2.449   6.028  14.014  0.0170  0.5544 -0.1700
16722TIP3    H171581   2.503   6.070  13.947  0.5692 -1.6688 -1.2239
16722TIP3    H271582   2.482   6.063  14.097  0.7919  1.7490 -0.9485
16723TIP3   OH271583   5.955   2.780   0.712 -0.0834  0.3883 -0.2148
16723TIP3    H171584   5.901   2.777   0.791  0.5050 -1.3143  0.1637
16723TIP3    H271585   6.044   2.798   0.744  0.4953 -2.1127 -0.2308
16724TIP3   OH271586   6.418   1.624   3.713  0.8298  0.3741  0.1834
16724TIP3    H171587   6.511   1.609   3.696  1.1848  2.6620 -0.3369
16724TIP3    H271588   6.390   1.681   3.641 -0.1222  2.3683  2.0308
16725TIP3   OH271589   1.728   2.819  12.851  0.0796  0.1956  0.1582
16725TIP3    H171590   1.724   2.828  12.756  0.4882 -0.7901  0.0398
16725TIP3    H271591   1.814   2.781  12.868 -0.9610 -2.0246  0.7179
16726TIP3   OH271592   0.276   2.109  14.001 -0.0376  0.8252 -0.2219
16726TIP3    H171593   0.307   2.193  13.970 -0.5026  0.6134 -1.3123
16726TIP3    H271594   0.217   2.078  13.932 -0.8936  0.2006  0.7466
16727TIP3   OH271595   5.910   3.547   3.050  0.7166 -0.1094  0.0229
16727TIP3    H171596   5.854   3.485   3.098  0.7517 -0.4589 -0.3826
16727TIP3    H271597   5.852   3.619   3.028 -0.1027 -1.3009 -2.0444
16728TIP3   OH271598   3.633   3.024   1.823 -0.3099 -0.1674 -0.4246
16728TIP3    H171599   3.612   3.116   1.840 -1.1464 -0.0887 -1.7812
16728TIP3    H271600   3.728   3.023   1.812 -0.1829  0.3628  0.4946
16729TIP3   OH271601   4.682   1.984  12.262 -0.3542  0.7991  0.2186
16729TIP3    H171602   4.628   1.988  12.182  1.4751  1.2114 -1.0555
16729TIP3    H271603   4.731   2.066  12.262  2.0899 -0.5793 -0.0329
16730TIP3   OH271604   1.057   3.252  15.641  0.1063 -0.3117  0.1437
16730TIP3    H171605   1.112   3.258  15.719  0.6589 -2.4584 -0.0176
16730TIP3    H271606   0.969   3.231  15.675  0.1709 -0.4524  0.2230
16731TIP3   OH271607   2.101   3.770   5.550 -0.0700 -0.0229  0.0473
16731TIP3    H171608   2.126   3.705   5.484 -2.8464 -0.1419 -1.0377
16731TIP3    H271609   2.095   3.853   5.502 -2.0339 -0.0927  0.0769
16732TIP3   OH271610   3.674   6.089   1.475  0.1030 -0.8592 -0.1910
16732TIP3    H171611   3.622   6.070   1.553  0.8663 -0.4617  0.4322
16732TIP3    H271612   3.706   6.178   1.489  1.0919 -1.1621 -0.4790
16733TIP3   OH271613   1.387   4.802  13.271 -0.0657  0.4838  0.2398
16733TIP3    H171614   1.406   4.876  13.329  0.3951 -1.0378  2.1500
16733TIP3    H271615   1.318   4.834  13.212 -0.2080  2.2652  1.3049
16734TIP3   OH271616   3.798   3.728   2.779 -0.3479  0.5787 -0.1380
16734TIP3    H171617   3.727   3.669   2.805 -0.4130  0.1911 -1.1453
16734TIP3    H271618   3.850   3.740   2.859  0.8676 -2.5131 -0.3207
16735TIP3   OH271619   1.930   1.284   2.001  0.1806 -0.0169 -0.1780
16735TIP3    H171620   1.954   1.358   1.945  0.7954  0.0501  0.1694
16735TIP3    H271621   2.012   1.255   2.040 -0.0054 -1.1105 -0.5667
16736TIP3   OH271622   1.408   5.167   5.265  0.1931 -0.5241 -0.1864
16736TIP3    H171623   1.344   5.195   5.330  0.3319  0.7118 -0.5534
16736TIP3    H271624   1.417   5.073   5.279 -1.0799 -0.5785  0.4109
16737TIP3   OH271625   5.771   0.645   3.195 -0.2352  0.7685 -0.3225
16737TIP3    H171626   5.714   0.707   3.150 -1.9308 -1.9811 -2.3498
16737TIP3    H271627   5.712   0.575   3.223  1.3665  0.5537  3.0314
16738TIP3   OH271628   1.717   5.270  15.715  0.1322  0.1242 -0.7515
16738TIP3    H171629   1.653   5.279  15.786 -0.5803  0.6177 -1.4513
16738TIP3    H271630   1.712   5.178  15.690 -0.3495  0.1726 -0.8423
16739TIP3   OH271631   5.553   3.363  13.041  0.1968 -0.4223 -0.2254
16739TIP3    H171632   5.647   3.376  13.026 -0.0343  0.4270 -1.0611
16739TIP3    H271633   5.548   3.315  13.123  1.4221 -1.7934 -0.9044
16740TIP3   OH271634   0.973   2.159  15.335  0.8247 -0.6311 -0.0630
16740TIP3    H171635   1.033   2.195  15.399  0.1360  0.2248  0.1284
16740TIP3    H271636   1.029   2.126  15.265  1.5466 -0.7941  0.5796
16741TIP3   OH271637   4.686   4.545  11.898  0.0081  0.6570 -0.3758
16741TIP3    H171638   4.722   4.631  11.876 -0.8731  1.1098 -0.0761
16741TIP3    H271639   4.685   4.497  11.815 -0.4610  1.2962 -0.7501
16742TIP3   OH271640   0.562   2.738  16.097 -0.1069 -0.3519  0.1191
16742TIP3    H171641   0.603   2.732  16.010  1.2317  0.1505  0.6748
16742TIP3    H271642   0.636   2.744  16.157 -1.0091  0.6296  1.1865
16743TIP3   OH271643   3.687   0.398  13.711  0.3487 -0.4850  0.2628
16743TIP3    H171644   3.602   0.388  13.754  0.5681 -0.9890  0.5927
16743TIP3    H271645   3.675   0.471  13.651  0.1501  0.5294  1.4857
16744TIP3   OH271646   4.567   1.331  13.666  0.3139 -0.9840 -0.1885
16744TIP3    H171647   4.618   1.288  13.734 -2.2641 -1.8506  1.3346
16744TIP3    H271648   4.544   1.417  13.703  0.0773 -0.8842 -0.5609
16745TIP3   OH271649   0.797   0.887   5.968 -0.0633 -0.0047 -0.2258
16745TIP3    H171650   0.743   0.821   6.011 -0.9803  0.4983 -0.5761
16745TIP3    H271651   0.735   0.941   5.920  0.7752  0.4848 -0.7879
16746TIP3   OH271652   6.545   1.160  14.641 -0.2964 -0.4494  0.4047
16746TIP3    H171653   6.474   1.221  14.662 -0.1066  1.6572 -3.8152
16746TIP3    H271654   6.618   1.217  14.615  0.6556 -2.4313 -1.6667
16747TIP3   OH271655   1.733   6.108   2.024 -0.2624 -0.6439  0.4256
16747TIP3    H171656   1.766   6.177   1.967  1.9530 -1.0492  1.1081
16747TIP3    H271657   1.661   6.069   1.975 -0.4924  1.0533 -0.6798
16748TIP3   OH271658   5.158   4.328   4.941  0.0215  0.4653 -0.7654
16748TIP3    H171659   5.151   4.415   4.978 -0.0925 -0.2348  0.9491
16748TIP3    H271660   5.069   4.307   4.912 -0.2947  0.3329  0.2594
16749TIP3   OH271661   0.476   2.564  16.631 -0.0809  0.0602 -0.3546
16749TIP3    H171662   0.554   2.534  16.586 -0.2079  1.0932 -1.2949
16749TIP3    H271663   0.409   2.500  16.608 -0.8971  1.9588 -4.0437
16750TIP3   OH271664   2.242   0.694   0.331 -0.1113  0.4804 -0.4132
16750TIP3    H171665   2.207   0.772   0.373 -0.2741  0.1823  0.0156
16750TIP3    H271666   2.274   0.640   0.403  1.1503  0.6968 -0.7845
16751TIP3   OH271667   4.522   0.952  15.336 -0.3736 -0.2657  0.0333
16751TIP3    H171668   4.497   1.032  15.383 -0.8212 -0.1760 -0.3405
16751TIP3    H271669   4.543   0.982  15.247 -2.1263 -0.7321 -0.5877
16752TIP3   OH271670   3.266   2.371   1.081  0.0221 -0.1116 -0.2029
16752TIP3    H171671   3.335   2.325   1.129 -0.4671  0.4936  1.1250
16752TIP3    H271672   3.295   2.368   0.990  2.4229  1.0833  0.4141
16753TIP3   OH271673   3.521   1.408  13.349  0.3359  0.0174 -0.9964
16753TIP3    H171674   3.460   1.481  13.346  0.1317 -0.0916  0.0673
16753TIP3    H271675   3.470   1.333  13.318  0.2016  0.0971 -0.9682
16754TIP3   OH271676   4.208   6.760  16.086  0.0030 -0.4196 -0.2286
16754TIP3    H171677   4.178   6.782  15.998  0.6934 -2.4648 -1.0424
16754TIP3    H271678   4.194   6.665  16.093  1.2196 -0.5232  1.3450
16755TIP3   OH271679   1.255   5.788  11.923  0.0736  0.2695 -0.3026
16755TIP3    H171680   1.193   5.830  11.982 -1.6831 -1.6105 -0.6918
16755TIP3    H271681   1.287   5.859  11.867 -1.5670  1.3505  0.0657
16756TIP3   OH271682   5.266   3.082  14.922 -0.1502  0.0224  0.2494
16756TIP3    H171683   5.267   3.118  15.011  1.6785 -0.0866  0.3284
16756TIP3    H271684   5.174   3.069  14.902 -0.7130  1.7807  1.4189
16757TIP3   OH271685   0.275   5.780   5.388 -0.2097 -0.0064  0.0037
16757TIP3    H171686   0.217   5.705   5.398 -1.2102  0.7781  0.2686
16757TIP3    H271687   0.223   5.854   5.418  0.3236  0.9759 -1.3884
16758TIP3   OH271688   0.891   6.183   4.597 -0.4174  0.1919  0.1725
16758TIP3    H171689   0.874   6.090   4.582 -1.5354  0.5428 -0.9021
16758TIP3    H271690   0.804   6.224   4.592 -0.0398  1.2054  1.3586
16759TIP3   OH271691   2.181   2.801   0.198 -0.2302 -1.2757  0.4806
16759TIP3    H171692   2.209   2.846   0.278 -1.1638 -2.7655  1.6985
16759TIP3    H271693   2.242   2.728   0.188 -0.2066 -1.1816 -0.1064
16760TIP3   OH271694   6.255   0.304   0.311 -0.2049  0.6205 -0.3125
16760TIP3    H171695   6.210   0.384   0.288 -0.7278  0.0336 -1.3971
16760TIP3    H271696   6.327   0.297   0.248 -0.4215  0.0305 -0.5044
16761TIP3   OH271697   0.951   4.992   3.972  0.2333  0.3430 -0.8224
16761TIP3    H171698   0.905   4.921   4.017 -1.4905  1.7883 -0.1722
16761TIP3    H271699   0.966   5.058   4.040  4.8300 -0.6029 -0.5809
16762TIP3   OH271700   4.821   3.866   5.100  0.2204  0.1676  0.6142
16762TIP3    H171701   4.891   3.869   5.166  0.0973  0.6737  0.7305
16762TIP3    H271702   4.760   3.800   5.132  1.3899 -1.4029 -0.2625
16763TIP3   OH271703   1.301   5.169   4.966 -0.2406 -0.0831  0.2886
16763TIP3    H171704   1.356   5.207   5.034 -0.3069  0.3726  0.0946
16763TIP3    H271705   1.220   5.146   5.009  0.0077 -0.5296  0.5262
16764TIP3   OH271706   6.395   0.034   2.749 -0.0908 -0.3148 -0.1142
16764TIP3    H171707   6.362   0.111   2.795  0.0206 -0.2165 -0.1958
16764TIP3    H271708   6.361   0.042   2.660 -3.1250 -2.2241  0.7263
16765TIP3   OH271709   2.673   4.805  13.283  0.2403  0.1711  0.1545
16765TIP3    H171710   2.717   4.889  13.299  1.2833 -0.4153  0.4504
16765TIP3    H271711   2.682   4.791  13.189  1.5322 -0.3671  0.3261
16766TIP3   OH271712   1.118   3.911  15.797  0.2844  0.2405  0.1419
16766TIP3    H171713   1.029   3.875  15.798  0.0906  0.7082  0.6214
16766TIP3    H271714   1.164   3.863  15.865  0.9981 -1.4021 -1.4186
16767TIP3   OH271715   2.090   6.226  11.513 -0.2203  0.6437 -0.4962
16767TIP3    H171716   2.149   6.186  11.450 -2.3191 -2.1501 -0.8559
16767TIP3    H271717   2.014   6.253  11.462 -0.8196  0.8176  0.4671
16768TIP3   OH271718   3.803   6.225  16.532 -0.2357  0.1161  0.5948
16768TIP3    H171719   3.846   6.205  16.449 -2.7885  1.0925 -1.1201
16768TIP3    H271720   3.792   6.140  16.575 -3.1275 -1.2964 -2.4415
16769TIP3   OH271721   1.865   2.920   3.300 -0.2156 -0.3541  0.3651
16769TIP3    H171722   1.840   2.980   3.230 -0.6493 -0.9044  0.0278
16769TIP3    H271723   1.956   2.898   3.281 -0.6446 -1.3822 -0.7304
16770TIP3   OH271724   5.562   5.018  11.689  0.4540 -0.2249 -0.1049
16770TIP3    H171725   5.627   5.066  11.638  1.1789 -0.3259  0.7091
16770TIP3    H271726   5.479   5.058  11.666  0.8330  0.1079 -0.9261
16771TIP3   OH271727   4.525   1.312  16.807 -0.4664 -0.1725 -0.3678
16771TIP3    H171728   4.595   1.348  16.861 -0.2818  1.2405 -1.5133
16771TIP3    H271729   4.450   1.306  16.867  0.1598 -0.1435  0.4384
16772TIP3   OH271730   0.187   1.811   0.203 -0.4429 -0.3436  0.0469
16772TIP3    H171731   0.118   1.876   0.192  0.5782  0.5598 -1.4157
16772TIP3    H271732   0.204   1.811   0.297 -0.1451  1.9251  0.0606
16773TIP3   OH271733   0.243   6.809   4.398 -0.1472 -0.5666 -0.3310
16773TIP3    H171734   0.157   6.788   4.360  0.1630  0.1281 -1.4576
16773TIP3    H271735   0.274   6.883   4.346  1.3179 -1.0657 -0.1952
16774TIP3   OH271736   1.895   0.982   1.277  0.1708  0.3007  0.4616
16774TIP3    H171737   1.978   0.970   1.232  0.3053 -0.8275  0.9842
16774TIP3    H271738   1.829   0.949   1.216  0.2219  0.0720  0.5297
16775TIP3   OH271739   4.141   5.817   2.556 -0.2540  0.0644 -0.7872
16775TIP3    H171740   4.164   5.734   2.515 -1.7127 -0.1144 -1.2890
16775TIP3    H271741   4.194   5.820   2.635  0.9903 -0.5927 -1.5752
16776TIP3   OH271742   2.099   1.061   3.306 -0.3100  0.1553  0.5244
16776TIP3    H171743   2.146   0.990   3.350 -0.3918  0.7008  1.5239
16776TIP3    H271744   2.069   1.023   3.223  0.7081 -0.5981  0.4885
16777TIP3   OH271745   2.265   5.130  16.135  0.0195 -0.3188 -0.4510
16777TIP3    H171746   2.185   5.150  16.184 -0.1920  1.1023 -1.3387
16777TIP3    H271747   2.328   5.197  16.163  0.6759 -0.9806 -0.3141
16778TIP3   OH271748   4.997   5.901   2.536  0.0579 -0.1354  0.3072
16778TIP3    H171749   4.995   5.997   2.529  1.9058 -0.1375 -1.2060
16778TIP3    H271750   4.920   5.872   2.487 -0.1691  0.5667  0.2281
16779TIP3   OH271751   4.248   6.171   5.067 -0.0489 -0.1327  0.1917
16779TIP3    H171752   4.321   6.109   5.059  0.2531  0.0626  1.2816
16779TIP3    H271753   4.288   6.250   5.104 -0.7336  0.1425  0.3525
16780TIP3   OH271754   1.407   1.033  15.355 -0.1915  0.1180  0.2368
16780TIP3    H171755   1.494   1.050  15.319 -0.1986 -0.9622 -0.3308
16780TIP3    H271756   1.360   1.116  15.346 -0.1128 -0.0455 -2.0512
16781TIP3   OH271757   0.216   5.686   1.892  0.3285  0.5868 -0.0243
16781TIP3    H171758   0.158   5.612   1.910  1.2419 -0.3002 -0.6012
16781TIP3    H271759   0.270   5.693   1.971  0.6661  0.2288 -0.2234
16782TIP3   OH271760   3.586   6.335  16.765  0.1478 -0.5548  0.1008
16782TIP3    H171761   3.548   6.389  16.696 -0.9720  0.1817  1.2481
16782TIP3    H271762   3.681   6.340  16.750 -0.0220  0.4852 -0.7295
16783TIP3   OH271763   1.945   3.671   0.864  0.2777 -0.2670  0.4839
16783TIP3    H171764   1.924   3.697   0.774 -1.0284  0.2381  0.9096
16783TIP3    H271765   2.023   3.723   0.886  0.6380 -0.4302 -0.3649
16784TIP3   OH271766   0.242   2.331  14.336  0.3110  1.0713  0.0196
16784TIP3    H171767   0.210   2.242  14.350  0.8905  1.0141  1.0264
16784TIP3    H271768   0.331   2.321  14.304 -0.5431  1.2372 -2.7473
16785TIP3   OH271769   5.828   0.705   2.553 -0.6684 -0.3900 -0.8248
16785TIP3    H171770   5.910   0.714   2.504 -0.0515  1.9863  0.4732
16785TIP3    H271771   5.774   0.777   2.522 -1.9558 -1.3946 -0.9986
16786TIP3   OH271772   2.167   0.413  16.662 -0.5937 -0.0285 -0.4933
16786TIP3    H171773   2.235   0.476  16.640 -0.5402  0.1696  0.2011
16786TIP3    H271774   2.204   0.328  16.638 -0.8972  0.2342 -1.9873
16787TIP3   OH271775   2.753   0.243   2.205  0.1662 -0.0891  0.0328
16787TIP3    H171776   2.734   0.327   2.248 -0.4822  0.8827 -2.0093
16787TIP3    H271777   2.669   0.197   2.205  0.4767 -0.6692  0.9745
16788TIP3   OH271778   2.291   1.177  13.572 -0.2627  0.2046  0.3089
16788TIP3    H171779   2.342   1.119  13.515 -2.3569 -1.1377 -0.3102
16788TIP3    H271780   2.339   1.178  13.654  0.8792 -0.8294 -0.3048
16789TIP3   OH271781   4.258   4.690  16.626 -0.4135  0.0875 -0.0382
16789TIP3    H171782   4.280   4.602  16.598 -0.0217  0.0048  0.5249
16789TIP3    H271783   4.342   4.732  16.643 -0.6427 -0.1204  1.7812
16790TIP3   OH271784   3.795   3.707   0.409  0.2415 -0.5141 -0.0923
16790TIP3    H171785   3.760   3.793   0.430  0.5392 -0.1403 -1.0550
16790TIP3    H271786   3.718   3.652   0.395  0.0440 -0.6271  1.3110
16791TIP3   OH271787   2.208   0.885  11.228 -0.6283 -0.6972 -0.3956
16791TIP3    H171788   2.163   0.840  11.299 -0.1838  0.8966  0.9602
16791TIP3    H271789   2.300   0.886  11.256 -0.6440  1.1037 -0.3127
16792TIP3   OH271790   0.482   2.634   5.225 -0.2615  0.5893  0.5242
16792TIP3    H171791   0.514   2.688   5.298  0.9328 -0.9971  1.2392
16792TIP3    H271792   0.521   2.675   5.147 -0.6790  1.6817  0.8672
16793TIP3   OH271793   0.399   4.703  14.009 -0.5200 -0.3425  0.5471
16793TIP3    H171794   0.328   4.664  14.060 -2.5942  0.4617 -1.5524
16793TIP3    H271795   0.379   4.796  14.008 -0.7453 -0.3660 -1.9408
16794TIP3   OH271796   0.952   1.681  12.848  0.7150  0.2736 -0.0057
16794TIP3    H171797   0.858   1.688  12.831  0.8989  3.4311 -0.2646
16794TIP3    H271798   0.969   1.587  12.849 -2.1651 -0.3779 -1.4159
16795TIP3   OH271799   5.825   5.191  13.236  0.4848 -0.1888 -0.2432
16795TIP3    H171800   5.911   5.231  13.222  0.9592 -0.9339  0.4551
16795TIP3    H271801   5.815   5.188  13.331 -0.6483  0.5648 -0.3249
16796TIP3   OH271802   6.475   0.369   1.021 -0.4639  0.5015  0.1942
16796TIP3    H171803   6.527   0.370   0.941  0.4322  1.1604  0.7572
16796TIP3    H271804   6.529   0.320   1.084 -0.8151  0.6334  0.6022
16797TIP3   OH271805   1.953   0.116  12.186  0.4514 -0.8861 -0.2218
16797TIP3    H171806   2.034   0.099  12.137  0.5445 -0.1929 -0.3270
16797TIP3    H271807   1.885   0.071  12.137  0.6859 -0.9658 -0.4784
16798TIP3   OH271808   0.525   3.286  15.422 -0.4305 -0.2347 -0.3134
16798TIP3    H171809   0.483   3.372  15.419 -2.1270 -1.0456 -1.1284
16798TIP3    H271810   0.469   3.230  15.369 -0.1393 -2.1698  1.3064
16799TIP3   OH271811   0.192   1.259   1.646 -0.8163 -0.0366  0.6987
16799TIP3    H171812   0.173   1.263   1.553  0.8211 -0.6002  0.3060
16799TIP3    H271813   0.264   1.322   1.659  0.6152 -1.6568  1.0799
16800TIP3   OH271814   2.253   1.697   4.836  0.1027  0.1202  0.4128
16800TIP3    H171815   2.329   1.689   4.894 -0.1301 -0.0418  0.6946
16800TIP3    H271816   2.180   1.720   4.894 -0.0027  0.5757  0.1010
16801TIP3   OH271817   4.736   5.232  10.242  0.4217 -0.0069  0.2846
16801TIP3    H171818   4.807   5.248  10.305  1.4747 -1.1430 -0.5634
16801TIP3    H271819   4.712   5.320  10.211 -0.4731  0.6300  2.5815
16802TIP3   OH271820   3.758   1.213   5.758 -0.6404 -0.2782  0.4866
16802TIP3    H171821   3.804   1.135   5.726  1.1346  1.2314 -0.9027
16802TIP3    H271822   3.774   1.213   5.852 -1.7006 -2.1705  0.7310
16803TIP3   OH271823   3.068   0.789  15.729 -0.6759 -0.3625  0.0965
16803TIP3    H171824   3.128   0.715  15.725  0.2595  0.3165  0.8690
16803TIP3    H271825   3.125   0.866  15.724 -1.4692  0.3013  0.9073
16804TIP3   OH271826   4.593   3.373  12.635  0.0075 -0.0652  0.6903
16804TIP3    H171827   4.665   3.428  12.604 -0.2308 -0.1739 -0.0939
16804TIP3    H271828   4.584   3.306  12.567 -1.3377  0.4190  0.3578
16805TIP3   OH271829   4.580   3.055  13.362 -0.1955  0.0385 -0.3989
16805TIP3    H171830   4.499   3.068  13.410  0.0002  0.0133 -0.0605
16805TIP3    H271831   4.607   2.965  13.384 -0.4876 -0.2362 -1.1308
16806TIP3   OH271832   2.011   2.928  12.631  0.2580 -0.0459 -0.4225
16806TIP3    H171833   1.985   2.848  12.676 -0.2122 -0.2798 -1.1076
16806TIP3    H271834   2.020   2.903  12.539 -0.8527  0.8972 -0.8189
16807TIP3   OH271835   1.631   0.766   4.685 -0.4349  0.5368 -0.2184
16807TIP3    H171836   1.581   0.691   4.717  1.9646 -0.3428  1.8435
16807TIP3    H271837   1.616   0.834   4.751  0.7761  0.3357  0.3038
16808TIP3   OH271838   6.456   1.085  12.069  0.0884 -0.3837  0.1494
16808TIP3    H171839   6.388   1.018  12.081  0.5540 -0.8187  0.4364
16808TIP3    H271840   6.538   1.037  12.080  0.4432  0.1326 -0.2151
16809TIP3   OH271841   1.752   6.613   0.093  0.3067 -0.1736  0.1834
16809TIP3    H171842   1.666   6.601   0.053  0.8133 -0.0091 -0.9765
16809TIP3    H271843   1.799   6.673   0.034  1.1691 -0.1353  0.8777
16810TIP3   OH271844   3.411   6.046  13.144 -0.3682 -0.1620 -0.1816
16810TIP3    H171845   3.451   6.088  13.067 -2.5806  2.0450 -0.2651
16810TIP3    H271846   3.443   6.098  13.218  0.7304 -1.4790  0.3019
16811TIP3   OH271847   5.966   1.771  16.261 -0.2051  0.0099 -0.2875
16811TIP3    H171848   5.974   1.825  16.339  0.1751  1.2592 -1.1653
16811TIP3    H271849   6.033   1.805  16.201 -0.9506 -0.4541 -1.4170
16812TIP3   OH271850   0.093   6.623   4.114  0.0208 -0.5652  0.8011
16812TIP3    H171851   0.053   6.559   4.054 -0.3531 -0.6548  1.1464
16812TIP3    H271852   0.028   6.636   4.183 -0.2469  0.7910  0.3292
16813TIP3   OH271853   4.279   6.422  14.359  0.4534  0.0329 -0.4104
16813TIP3    H171854   4.325   6.416  14.442  0.1863 -1.5150 -0.3519
16813TIP3    H271855   4.345   6.452  14.297  1.1092 -0.5197  0.0085
16814TIP3   OH271856   1.513   4.420  10.167 -0.3202  0.1903 -0.0542
16814TIP3    H171857   1.530   4.349  10.229 -0.1187  0.0453 -0.2715
16814TIP3    H271858   1.591   4.474  10.170  0.2154 -0.4985 -1.0812
16815TIP3   OH271859   2.921   0.264  15.806  0.5562 -0.3151 -0.5851
16815TIP3    H171860   2.943   0.344  15.854  0.3372 -1.3386  1.3137
16815TIP3    H271861   2.825   0.266  15.798  0.6324  0.1135 -1.4898
16816TIP3   OH271862   4.621   2.161   1.484 -0.1597 -0.1769  0.8168
16816TIP3    H171863   4.657   2.106   1.553 -0.7010 -1.4272  0.1398
16816TIP3    H271864   4.689   2.164   1.417  0.8640  2.0252  1.8394
16817TIP3   OH271865   5.350   6.749  13.752  0.0476 -0.6008  0.1517
16817TIP3    H171866   5.255   6.753  13.747  0.0720 -0.5826 -0.3423
16817TIP3    H271867   5.371   6.776  13.842 -0.3395  0.8259 -0.1611
16818TIP3   OH271868   4.681   1.586   2.148  0.2569  0.3926  0.4531
16818TIP3    H171869   4.750   1.614   2.209  0.0698  0.1517  0.7764
16818TIP3    H271870   4.644   1.508   2.188 -0.7266  0.9496  0.6635
16819TIP3   OH271871   2.847   4.023   3.112  0.1411  0.0347  0.2814
16819TIP3    H171872   2.809   3.989   3.192 -0.6934 -0.5021 -0.3223
16819TIP3    H271873   2.800   4.105   3.097 -0.2569 -0.2521 -0.0636
16820TIP3   OH271874   4.155   1.988  12.674 -0.0250  0.3564 -0.1946
16820TIP3    H171875   4.191   1.907  12.710 -1.9717 -0.9473 -0.9819
16820TIP3    H271876   4.086   2.013  12.736 -0.1579  0.8138 -0.5226
16821TIP3   OH271877   1.178   0.995   4.621 -0.7172 -0.8398 -0.5635
16821TIP3    H171878   1.202   1.052   4.548 -1.4934 -0.2432 -0.3695
16821TIP3    H271879   1.219   0.911   4.601 -0.7650 -0.6256 -1.5935
16822TIP3   OH271880   5.995   1.801  12.456 -0.3126  0.1346 -0.6631
16822TIP3    H171881   5.962   1.890  12.446 -1.6250 -0.5414 -3.3109
16822TIP3    H271882   6.090   1.811  12.463 -0.5232  1.7683  0.2379
16823TIP3   OH271883   2.146   3.721  11.194 -0.1759  0.6076  0.4777
16823TIP3    H171884   2.107   3.649  11.243 -3.0339  1.1320 -0.8338
16823TIP3    H271885   2.145   3.795  11.254  1.3305  0.0190  1.3004
16824TIP3   OH271886   0.671   6.403  14.893  0.8653 -0.7068 -0.2635
16824TIP3    H171887   0.580   6.431  14.883  1.4707  1.6856  0.3540
16824TIP3    H271888   0.713   6.431  14.811  1.6591  1.0812  0.6955
16825TIP3   OH271889   5.394   4.884  14.035 -0.2309 -0.6083 -1.0577
16825TIP3    H171890   5.482   4.905  14.066 -0.5503 -1.2992  0.3959
16825TIP3    H271891   5.408   4.823  13.962  0.4877 -1.8679  0.0868
16826TIP3   OH271892   0.140   1.696  13.059  0.0970 -0.3925 -0.5565
16826TIP3    H171893   0.069   1.709  13.122  1.0599  0.9985  0.2999
16826TIP3    H271894   0.205   1.644  13.106  0.8718  0.7488 -0.3255
16827TIP3   OH271895   3.747   0.147   0.002 -0.1619 -0.7512  0.2726
16827TIP3    H171896   3.790   0.188   0.077 -0.7640 -3.5498  2.2930
16827TIP3    H271897   3.656   0.177   0.007 -0.5552 -2.0612  1.6213
16828TIP3   OH271898   2.383   0.706   0.992  0.0220 -0.0028  0.2713
16828TIP3    H171899   2.332   0.647   0.936 -3.6705  1.5593  1.6754
16828TIP3    H271900   2.404   0.780   0.935 -0.0583 -0.2544 -0.0910
16829TIP3   OH271901   3.052   3.431  15.178 -0.0661 -0.4090 -0.4315
16829TIP3    H171902   3.102   3.510  15.196  0.6951 -0.5596 -1.7564
16829TIP3    H271903   2.976   3.461  15.128  0.1700 -0.4918 -0.8459
16830TIP3   OH271904   6.460   6.740  16.091 -0.6650  0.0756 -0.3055
16830TIP3    H171905   6.379   6.733  16.040 -0.4207 -1.1881 -0.5476
16830TIP3    H271906   6.453   6.669  16.155 -1.4267  2.1933  2.1375
16831TIP3   OH271907   4.655   2.730   5.881  0.1226 -0.4102  0.6278
16831TIP3    H171908   4.749   2.746   5.870 -0.4044  2.0099 -1.2760
16831TIP3    H271909   4.639   2.742   5.974  1.8231 -2.0917  1.2220
16832TIP3   OH271910   1.142   4.013  11.253  1.0807  0.1167 -0.1201
16832TIP3    H171911   1.114   4.102  11.231 -0.0401 -0.2690 -0.2939
16832TIP3    H271912   1.233   4.008  11.223  1.9432  1.9351  1.9083
16833TIP3   OH271913   3.330   6.786  13.413 -0.2699 -0.2891  0.0666
16833TIP3    H171914   3.240   6.816  13.417 -0.1329  0.1479 -0.0441
16833TIP3    H271915   3.335   6.734  13.333 -0.6803 -1.2015  0.6162
16834TIP3   OH271916   6.724   2.328  16.182 -0.0121  0.0193 -0.0810
16834TIP3    H171917   6.675   2.402  16.147  0.0752  1.0781  1.8878
16834TIP3    H271918   6.791   2.368  16.238  0.1605 -1.5337  0.8896
16835TIP3   OH271919   3.394   2.202  16.004  0.5527 -0.1190 -0.0522
16835TIP3    H171920   3.375   2.294  15.983  2.2788  0.5186  1.0038
16835TIP3    H271921   3.354   2.189  16.090  0.3630 -0.3326 -0.1734
16836TIP3   OH271922   3.228   1.174  14.714 -0.0742 -0.1468 -0.5094
16836TIP3    H171923   3.281   1.095  14.717  0.3622  0.0586 -2.0169
16836TIP3    H271924   3.288   1.244  14.742 -0.4848 -0.3164  0.9136
16837TIP3   OH271925   6.365   0.323   5.856  0.1291 -0.2004  0.0209
16837TIP3    H171926   6.310   0.283   5.923 -0.1666 -1.1698 -0.7740
16837TIP3    H271927   6.454   0.310   5.886 -0.0386  1.6551  1.4761
16838TIP3   OH271928   0.643   2.569   5.660 -0.2457  0.0528  0.4869
16838TIP3    H171929   0.652   2.663   5.644  2.4104 -0.2753 -0.5156
16838TIP3    H271930   0.640   2.530   5.573 -3.2188 -0.7732  0.8350
16839TIP3   OH271931   4.708   5.538  14.333  0.1204 -0.0083  0.0076
16839TIP3    H171932   4.768   5.561  14.263  0.3516  0.2459  0.2852
16839TIP3    H271933   4.750   5.571  14.412 -0.1948 -0.1845  0.2504
16840TIP3   OH271934   3.194   2.140  13.855  0.3708  0.7098  0.1161
16840TIP3    H171935   3.283   2.142  13.890  0.3191  2.3576  0.2360
16840TIP3    H271936   3.143   2.090  13.919  0.9643  0.8316  0.6875
16841TIP3   OH271937   6.734   3.173  14.866 -0.0740 -0.0017  0.4669
16841TIP3    H171938   6.659   3.226  14.894 -0.3386 -0.7763  1.2573
16841TIP3    H271939   6.694   3.092  14.834  0.3965 -0.1851  0.3428
16842TIP3   OH271940   2.196   5.374  15.078 -0.1050  0.1928 -0.3796
16842TIP3    H171941   2.278   5.379  15.128  0.2208 -1.3756 -0.7078
16842TIP3    H271942   2.143   5.446  15.112  0.9487  0.5147  0.6674
16843TIP3   OH271943   4.651   4.397  16.093 -0.0136 -0.1642  0.0278
16843TIP3    H171944   4.682   4.339  16.023 -0.4612  1.0158 -1.2003
16843TIP3    H271945   4.700   4.369  16.171  1.0420 -1.0503 -0.9102
16844TIP3   OH271946   2.880   2.610   5.596 -0.9674  0.2371 -0.0376
16844TIP3    H171947   2.928   2.639   5.674 -1.9086  0.8447  0.3361
16844TIP3    H271948   2.799   2.571   5.631 -1.9492  1.5763 -0.7292
16845TIP3   OH271949   1.948   6.347  15.402  0.1068 -0.5366 -0.0502
16845TIP3    H171950   2.012   6.374  15.336  1.1307 -2.0128  0.2920
16845TIP3    H271951   1.989   6.272  15.445 -0.2342  0.7762  2.7381
16846TIP3   OH271952   1.267   3.501   5.773  0.2455  0.6951 -0.2874
16846TIP3    H171953   1.262   3.443   5.696  0.4931 -0.9730  0.9019
16846TIP3    H271954   1.248   3.444   5.847 -0.5887  2.4009  0.8743
16847TIP3   OH271955   2.412   3.691  11.438  0.0364 -1.0946 -0.3380
16847TIP3    H171956   2.387   3.620  11.379  0.1255 -1.9550  0.6432
16847TIP3    H271957   2.328   3.731  11.463 -0.0349 -1.0554 -0.6310
16848TIP3   OH271958   3.092   5.625   2.309  0.0692 -0.2273  0.0454
16848TIP3    H171959   3.108   5.550   2.366  3.5149 -0.6152 -1.2056
16848TIP3    H271960   3.138   5.697   2.352  0.9135 -0.0377 -1.1328
16849TIP3   OH271961   5.032   6.118   4.339  0.0895  0.6400 -0.2708
16849TIP3    H171962   4.959   6.081   4.389  0.5477  0.7817  0.5328
16849TIP3    H271963   5.110   6.092   4.388  0.7766 -1.3306 -2.2513
16850TIP3   OH271964   0.486   2.715   6.125 -0.0335  0.2265 -0.0017
16850TIP3    H171965   0.494   2.793   6.070  0.2187 -0.7459 -1.3926
16850TIP3    H271966   0.574   2.680   6.132 -0.4399 -1.1779 -1.3176
16851TIP3   OH271967   1.307   4.765   0.895  0.7587 -0.6100  0.3482
16851TIP3    H171968   1.335   4.711   0.821  1.0812 -1.1142  0.8243
16851TIP3    H271969   1.389   4.789   0.939  0.5093 -1.5942  1.4088
16852TIP3   OH271970   3.244   4.777   2.748 -0.2629  0.3806  0.0146
16852TIP3    H171971   3.174   4.840   2.730 -1.6811 -0.9954  0.5621
16852TIP3    H271972   3.212   4.727   2.823  1.0515 -0.6898 -0.1117
16853TIP3   OH271973   3.670   0.495  14.580 -0.3008  0.0232 -0.4512
16853TIP3    H171974   3.632   0.471  14.664 -0.8028 -0.5957 -0.8408
16853TIP3    H271975   3.603   0.550  14.539 -1.4344 -2.1056 -1.6814
16854TIP3   OH271976   4.264   4.173   3.968 -0.1646  0.3732 -0.3429
16854TIP3    H171977   4.280   4.259   4.007 -0.2042  0.6334 -0.8934
16854TIP3    H271978   4.288   4.183   3.876 -3.0926  0.6791 -1.1799
16855TIP3   OH271979   4.428   5.349   0.343  0.4025  0.1418 -0.0479
16855TIP3    H171980   4.481   5.313   0.413  0.2778 -0.1379 -0.0952
16855TIP3    H271981   4.352   5.291   0.338 -0.9016  1.6168  1.3161
16856TIP3   OH271982   4.717   5.153   1.026  0.5565 -0.6017 -0.4857
16856TIP3    H171983   4.672   5.237   1.030  0.0275 -0.8587 -0.8836
16856TIP3    H271984   4.785   5.166   0.959  2.2618  0.3251  1.3268
16857TIP3   OH271985   2.393   0.532   0.521  0.0829  0.3198 -0.3775
16857TIP3    H171986   2.340   0.577   0.587 -2.9782 -0.4580 -2.0941
16857TIP3    H271987   2.434   0.460   0.568  0.3257  1.4266  1.1918
16858TIP3   OH271988   6.533   2.433   2.310 -0.1935 -0.2023  0.1679
16858TIP3    H171989   6.539   2.345   2.274  1.4936  0.4926 -1.4073
16858TIP3    H271990   6.482   2.482   2.245  1.3778  0.6469 -0.4666
16859TIP3   OH271991   2.727   3.896  15.947 -0.1339  0.2726 -0.1195
16859TIP3    H171992   2.744   3.820  16.003 -0.4096  1.0557  1.0738
16859TIP3    H271993   2.647   3.873  15.899 -1.0143  0.3096  1.2499
16860TIP3   OH271994   2.407   3.866  10.744  0.1985 -0.1185 -0.3724
16860TIP3    H171995   2.497   3.890  10.764  0.2793 -1.2016  0.6538
16860TIP3    H271996   2.375   3.938  10.689  1.2176  1.0090  0.4428
16861TIP3   OH271997   3.740   0.660  12.209  0.4785 -0.1558 -0.2337
16861TIP3    H171998   3.686   0.593  12.167 -2.2357  2.2813 -1.0153
16861TIP3    H271999   3.691   0.684  12.287  1.3786  0.9270  0.0187
16862TIP3   OH272000   5.236   5.748   1.830  0.0645  0.7631 -0.3086
16862TIP3    H172001   5.203   5.716   1.914 -1.2024 -2.0269 -1.7514
16862TIP3    H272002   5.320   5.705   1.819 -0.4688 -0.1015 -1.1184
16863TIP3   OH272003   3.890   6.322  14.864  0.3651  0.1099  0.0340
16863TIP3    H172004   3.920   6.337  14.774  0.9070  0.0118  0.1903
16863TIP3    H272005   3.971   6.321  14.916  0.1435 -0.8331  0.3849
16864TIP3   OH272006   0.043   5.891  11.842  0.0136  0.8390 -0.7903
16864TIP3    H172007  -0.039   5.870  11.885 -0.0258  0.0530 -1.2113
16864TIP3    H272008   0.017   5.930  11.758  0.0617  0.3306 -1.0447
16865TIP3   OH272009   3.351   6.517   5.800  0.5810 -0.0781 -0.4697
16865TIP3    H172010   3.325   6.602   5.763 -1.6912 -0.7325 -0.4675
16865TIP3    H272011   3.367   6.462   5.723 -0.4552 -0.3600 -0.4947
16866TIP3   OH272012   5.697   3.136   5.091 -0.3227  0.6455  0.1448
16866TIP3    H172013   5.649   3.195   5.032  0.0562  1.2112  0.3908
16866TIP3    H272014   5.746   3.195   5.148  2.3213  0.1013 -1.4044
16867TIP3   OH272015   5.885   2.382  11.218  0.4218  0.2236 -0.6245
16867TIP3    H172016   5.810   2.367  11.160 -0.1113  0.1684  0.0726
16867TIP3    H272017   5.955   2.412  11.159 -0.5400  1.5942 -1.0966
16868TIP3   OH272018   0.908   3.267   1.241 -0.1805  0.2441  0.0340
16868TIP3    H172019   0.928   3.286   1.332 -2.8894  0.4718  0.6743
16868TIP3    H272020   0.921   3.350   1.195  3.0126 -0.2922 -0.2576
16869TIP3   OH272021   2.119   4.659   3.544 -0.5403  0.2938 -0.0495
16869TIP3    H172022   2.208   4.671   3.578 -0.3924 -0.1800 -0.2573
16869TIP3    H272023   2.130   4.653   3.449 -0.5156 -1.9014  0.0314
16870TIP3   OH272024   6.026   0.208  12.572  0.6512  0.6047 -0.1803
16870TIP3    H172025   6.118   0.232  12.581  1.0765 -0.5404 -1.1896
16870TIP3    H272026   5.995   0.258  12.496  0.6337  0.4755 -0.2588
16871TIP3   OH272027   2.235   0.287  16.292  0.6523  0.1748 -0.1117
16871TIP3    H172028   2.195   0.220  16.347  0.2772  1.0835  0.7564
16871TIP3    H272029   2.298   0.240  16.237 -0.8679 -1.1354 -0.7886
16872TIP3   OH272030   3.004   6.742  11.346  0.0053 -0.2397 -0.2915
16872TIP3    H172031   3.048   6.827  11.347 -1.4183  0.5676  2.1173
16872TIP3    H272032   2.919   6.759  11.307 -0.5795 -0.3497  0.8868
16873TIP3   OH272033   3.473   0.271   0.016  0.4204  0.1522 -0.2496
16873TIP3    H172034   3.407   0.334   0.047 -0.6918  0.2461 -2.5435
16873TIP3    H272035   3.440   0.186   0.045 -0.1654  0.2940 -0.4784
16874TIP3   OH272036   4.684   2.230  14.361  0.0662  0.0302  0.4640
16874TIP3    H172037   4.696   2.291  14.433 -0.9086  0.7374  0.0400
16874TIP3    H272038   4.594   2.242  14.333  0.0806 -1.0632 -0.1246
16875TIP3   OH272039   3.867   1.507  14.491 -0.3289 -0.0360 -0.2785
16875TIP3    H172040   3.900   1.493  14.403 -0.0858 -0.1512 -0.1692
16875TIP3    H272041   3.780   1.546  14.478 -0.2138  0.1267 -0.5662
16876TIP3   OH272042   2.948   0.665  12.153  0.0174 -0.0242  0.1913
16876TIP3    H172043   2.959   0.581  12.108 -0.5206 -0.0991  0.1963
16876TIP3    H272044   3.030   0.677  12.202  0.2569 -0.3512 -0.1245
16877TIP3   OH272045   6.542   4.031  15.685  0.0608 -0.0446 -0.0593
16877TIP3    H172046   6.479   4.095  15.717 -0.3111 -1.2872  1.8433
16877TIP3    H272047   6.498   3.988  15.612 -1.2597 -0.7614  1.1184
16878TIP3   OH272048   4.685   1.492   1.871  0.2076  0.0481 -0.3683
16878TIP3    H172049   4.681   1.398   1.891  0.8256  0.0727 -0.1084
16878TIP3    H272050   4.668   1.535   1.955  0.2561  0.1671 -0.4195
16879TIP3   OH272051   1.221   2.113   3.387 -0.3494  0.7221  0.5652
16879TIP3    H172052   1.196   2.071   3.469  0.7919  0.8310  0.9859
16879TIP3    H272053   1.296   2.063   3.356 -2.1488 -0.8048 -1.6583
16880TIP3   OH272054   0.255   1.502   1.374 -0.0537  0.3718  0.5617
16880TIP3    H172055   0.311   1.555   1.431  0.0789 -0.6818  1.4481
16880TIP3    H272056   0.304   1.496   1.291  0.2742  1.0107  0.7069
16881TIP3   OH272057   4.682   0.124  13.481  0.5760 -0.7100 -0.1456
16881TIP3    H172058   4.624   0.150  13.410  0.6159 -1.1846 -0.3559
16881TIP3    H272059   4.666   0.188  13.551  1.2870  0.3845 -0.9521
16882TIP3   OH272060   4.005   3.735   1.620 -0.0753  0.3605 -0.0959
16882TIP3    H172061   4.055   3.653   1.613  0.7281  0.6095  1.8468
16882TIP3    H272062   4.066   3.802   1.590 -0.1251  0.4178 -0.0672
16883TIP3   OH272063   4.644   3.779   0.836  0.0512 -0.0198  0.1756
16883TIP3    H172064   4.671   3.790   0.745 -0.0319 -2.0232 -0.1358
16883TIP3    H272065   4.559   3.823   0.841  0.2364  0.4514 -0.5848
16884TIP3   OH272066   3.517   3.006  12.509 -0.4113  0.0054 -0.0692
16884TIP3    H172067   3.546   2.992  12.600 -0.5932 -0.2032 -0.0415
16884TIP3    H272068   3.502   2.918  12.475  1.6932 -0.0517 -0.9842
16885TIP3   OH272069   5.763   1.300  10.033 -0.3296  0.2377 -0.3976
16885TIP3    H172070   5.761   1.205  10.021 -1.2153  0.1081  0.5986
16885TIP3    H272071   5.843   1.328   9.990 -0.5321 -0.8423 -1.5392
16886TIP3   OH272072   0.602   6.052   2.253  0.4720 -0.0560  0.5518
16886TIP3    H172073   0.635   6.005   2.330 -1.0681 -1.1501  0.5845
16886TIP3    H272074   0.550   6.123   2.289  0.5137 -0.0045  0.5108
16887TIP3   OH272075   4.371   5.965   0.650  1.0543 -0.1340 -0.0501
16887TIP3    H172076   4.354   5.871   0.646  1.7118 -0.2929  0.7542
16887TIP3    H272077   4.285   6.005   0.662  0.9767 -0.7776  1.7342
16888TIP3   OH272078   0.784   5.111  16.802  0.1758 -0.1407  0.0591
16888TIP3    H172079   0.875   5.125  16.829  0.4154 -0.5818 -0.4917
16888TIP3    H272080   0.756   5.034  16.850 -1.1486  2.0411  3.1117
16889TIP3   OH272081   4.778   1.035  15.201 -0.4571 -0.7823  0.9095
16889TIP3    H172082   4.848   1.100  15.192 -1.7396  0.9486  2.5894
16889TIP3    H272083   4.804   0.982  15.276 -0.8364 -0.2467  1.4286
16890TIP3   OH272084   4.591   6.410   1.625 -0.1766  0.8783  0.0089
16890TIP3    H172085   4.582   6.319   1.654 -0.1795  0.8531 -0.0726
16890TIP3    H272086   4.626   6.456   1.702 -0.5406  0.8831  0.1737
16891TIP3   OH272087   1.235   5.513   0.223 -0.4816  0.1446 -0.2063
16891TIP3    H172088   1.310   5.484   0.172  0.9533 -0.4591  2.0698
16891TIP3    H272089   1.164   5.453   0.197  0.8032 -1.5726  0.0655
16892TIP3   OH272090   5.539   4.382   1.481 -0.0977  0.1923 -0.5836
16892TIP3    H172091   5.521   4.449   1.415 -0.0743  2.0358  1.1575
16892TIP3    H272092   5.456   4.369   1.526  0.2752  0.2959  0.1566
16893TIP3   OH272093   2.173   0.798  14.993 -0.8243 -0.1154 -0.0265
16893TIP3    H172094   2.133   0.884  14.988  0.4465  0.7929  3.0715
16893TIP3    H272095   2.267   0.815  15.000 -0.3676 -1.8784 -1.1656
16894TIP3   OH272096   3.645   4.607  13.216  0.3147 -0.3013 -0.3334
16894TIP3    H172097   3.665   4.694  13.182 -1.8176  0.8660  1.1546
16894TIP3    H272098   3.657   4.548  13.142  1.3642  1.3207 -1.5019
16895TIP3   OH272099   1.563   0.711   1.705  0.3975 -0.5631  0.0976
16895TIP3    H172100   1.535   0.712   1.613 -0.2862  0.6452  0.3080
16895TIP3    H272101   1.565   0.803   1.731  2.2627 -0.7591  0.8142
16896TIP3   OH272102   2.387   5.679   2.902  0.3032  0.2211  0.2791
16896TIP3    H172103   2.438   5.603   2.875 -0.8435 -1.2549  2.0795
16896TIP3    H272104   2.328   5.696   2.829 -0.4849 -1.5970  0.4689
16897TIP3   OH272105   2.808   5.634  14.050 -0.5463 -0.4487 -0.2586
16897TIP3    H172106   2.755   5.580  14.109  0.5437  0.9909  2.1848
16897TIP3    H272107   2.885   5.580  14.031  0.9750  0.3704  2.8936
16898TIP3   OH272108   6.678   6.782  15.916  0.4627 -0.1986  0.2550
16898TIP3    H172109   6.712   6.700  15.880  0.6397  0.8298 -2.0867
16898TIP3    H272110   6.622   6.755  15.989  1.0640 -2.3422 -0.0111
16899TIP3   OH272111   3.007   4.353   2.595  0.2175  0.1975  0.8676
16899TIP3    H172112   3.055   4.364   2.513  0.2418 -1.9944  0.5370
16899TIP3    H272113   3.075   4.357   2.663  0.2204  1.8283  0.8037
16900TIP3   OH272114   6.231   2.005   2.088  0.2078  0.3070  0.1045
16900TIP3    H172115   6.156   2.061   2.106 -0.7566  0.3516 -3.4547
16900TIP3    H272116   6.196   1.916   2.085  0.4398  0.2333 -0.7278
16901TIP3   OH272117   3.319   4.904  12.896 -0.4035 -0.3155  0.3873
16901TIP3    H172118   3.267   4.943  12.826 -0.4938  1.2453  1.2716
16901TIP3    H272119   3.282   4.940  12.977  0.9176 -0.5304  1.1212
16902TIP3   OH272120   6.703   3.342  13.896  0.6898  0.3568  0.4832
16902TIP3    H172121   6.696   3.356  13.801 -2.2160  0.3269  0.6224
16902TIP3    H272122   6.716   3.430  13.932  1.2942  0.4245  0.1255
16903TIP3   OH272123   1.269   2.338  10.802 -0.3336  0.0123  0.4133
16903TIP3    H172124   1.207   2.401  10.838 -0.6022 -0.8550  1.5417
16903TIP3    H272125   1.215   2.265  10.773 -0.1170  0.6190 -1.7463
16904TIP3   OH272126   3.372   6.404  14.106 -0.0069 -0.3038  0.3373
16904TIP3    H172127   3.360   6.336  14.040 -0.5167  0.4269 -0.3297
16904TIP3    H272128   3.311   6.474  14.082  1.3187  0.9052  0.3189
16905TIP3   OH272129   4.799   4.240  15.930  0.1567  0.4747 -0.0399
16905TIP3    H172130   4.846   4.227  15.848  0.2769 -1.8395  0.3331
16905TIP3    H272131   4.868   4.253  15.995  0.2925 -1.6266  0.2938
16906TIP3   OH272132   0.969   0.536   3.185  0.0714  0.1415  0.0241
16906TIP3    H172133   0.920   0.609   3.223  0.8586 -0.2248  1.8271
16906TIP3    H272134   0.943   0.460   3.237  0.4121 -0.6014 -0.8565
16907TIP3   OH272135   5.162   4.862  15.308 -0.5507 -0.5644  0.2638
16907TIP3    H172136   5.145   4.786  15.253  0.2395 -0.3676 -0.2756
16907TIP3    H272137   5.075   4.895  15.331 -0.9068 -0.5478 -1.0212
16908TIP3   OH272138   2.952   4.045   0.791 -0.4688 -0.8614 -0.4715
16908TIP3    H172139   3.004   4.086   0.861 -1.0526 -0.3788 -0.3103
16908TIP3    H272140   3.005   4.058   0.712  0.2163 -1.4495 -0.1186
16909TIP3   OH272141   0.332   4.057  16.278  0.0205 -0.0508 -0.0590
16909TIP3    H172142   0.385   3.978  16.290  0.1879 -0.0869 -0.9891
16909TIP3    H272143   0.391   4.129  16.296 -0.3700 -0.1257  1.7254
16910TIP3   OH272144   4.713   5.175  13.493 -0.3279 -0.6889  0.2505
16910TIP3    H172145   4.752   5.100  13.539 -0.0528  0.8632  2.6835
16910TIP3    H272146   4.787   5.219  13.451 -0.1924 -0.6402  0.5373
16911TIP3   OH272147   2.845   6.796  14.164 -0.5304 -0.2032  0.0065
16911TIP3    H172148   2.752   6.780  14.177 -0.1121 -2.1803  0.9218
16911TIP3    H272149   2.856   6.889  14.183 -2.1387 -0.1791  1.0154
16912TIP3   OH272150   3.488   1.556  14.515  0.7160  0.1736  0.0613
16912TIP3    H172151   3.510   1.467  14.487  0.1517 -0.5127  1.6575
16912TIP3    H272152   3.545   1.613  14.463  0.3844 -1.0418 -1.6992
16913TIP3   OH272153   6.021   1.095  12.186  0.1668  0.0892  0.4539
16913TIP3    H172154   6.056   1.183  12.200 -1.3025  0.4405  2.3572
16913TIP3    H272155   5.927   1.104  12.199 -0.2963 -1.4120 -1.3696
16914TIP3   OH272156   5.371   1.929  14.377 -0.2558  0.1453  0.0879
16914TIP3    H172157   5.317   1.892  14.447  2.3930  0.6981  2.6158
16914TIP3    H272158   5.371   1.862  14.309 -1.9044 -0.9861  1.1179
16915TIP3   OH272159   6.756   1.539  16.140 -0.2141 -0.2001 -0.4050
16915TIP3    H172160   6.800   1.458  16.114 -2.1305 -0.9872 -1.4073
16915TIP3    H272161   6.765   1.541  16.236  2.1632 -0.1534 -0.5784
16916TIP3   OH272162   3.012   6.329   3.141 -0.4216 -0.7280  0.5926
16916TIP3    H172163   2.953   6.403   3.130  0.5809 -0.2895 -4.6478
16916TIP3    H272164   2.998   6.275   3.064  3.1782 -2.7246  1.0782
16917TIP3   OH272165   3.369   1.198  15.169  0.5236 -0.2812 -0.9628
16917TIP3    H172166   3.407   1.214  15.082 -1.1196  0.3135 -1.6163
16917TIP3    H272167   3.441   1.215  15.230  1.6826 -0.5778 -2.1910
16918TIP3   OH272168   2.485   1.844   5.046  0.8793 -0.2551  0.2555
16918TIP3    H172169   2.417   1.899   5.008  1.6902 -0.1482 -1.1062
16918TIP3    H272170   2.556   1.905   5.068 -0.0761 -0.0695  3.4101
16919TIP3   OH272171   5.359   6.440  11.865 -0.5786  0.5834 -0.3255
16919TIP3    H172172   5.413   6.516  11.886  0.0108  0.0004  0.3416
16919TIP3    H272173   5.309   6.424  11.945 -2.3517  1.5736 -1.1705
16920TIP3   OH272174   6.800   5.323  16.273  0.5584  0.4443  0.3680
16920TIP3    H172175   6.818   5.255  16.338  1.7614 -0.2385 -0.6461
16920TIP3    H272176   6.884   5.367  16.260  1.2146 -1.4262 -2.9108
16921TIP3   OH272177   4.882   1.885   3.624 -0.0057 -0.0716  0.6896
16921TIP3    H172178   4.859   1.914   3.536 -0.2532 -1.4459  0.2770
16921TIP3    H272179   4.970   1.848   3.616  0.3443  0.6301  1.2165
16922TIP3   OH272180   0.725   1.877   5.982 -0.2578  0.1735  0.1028
16922TIP3    H172181   0.715   1.804   6.043 -0.2608  0.0287 -0.0704
16922TIP3    H272182   0.793   1.932   6.022 -0.9401  0.5887  0.7241
16923TIP3   OH272183   6.134   5.999  10.628 -0.3576  0.7307  0.2343
16923TIP3    H172184   6.039   5.998  10.615 -0.7247  0.7354  2.3970
16923TIP3    H272185   6.168   5.929  10.572 -1.6707  0.5835 -0.4003
16924TIP3   OH272186   1.239   1.502   2.041  0.1238  0.1499  0.2918
16924TIP3    H172187   1.299   1.487   2.114  0.4149 -0.3968 -0.0531
16924TIP3    H272188   1.170   1.437   2.054 -0.4088  0.7919  0.7005
16925TIP3   OH272189   2.875   6.700  14.481 -0.6844  0.1596 -0.4393
16925TIP3    H172190   2.929   6.770  14.445 -0.8631  1.6673  2.0100
16925TIP3    H272191   2.790   6.740  14.497 -0.1585  0.2150  3.1270
16926TIP3   OH272192   2.093   4.920  14.336  0.1242 -0.3453 -0.2171
16926TIP3    H172193   2.168   4.934  14.279  0.3311  1.1777  0.3730
16926TIP3    H272194   2.019   4.959  14.289 -0.4431 -2.3164 -1.0404
16927TIP3   OH272195   0.735   0.294   2.596 -0.5581 -0.0923  0.1617
16927TIP3    H172196   0.768   0.228   2.658 -0.3064 -0.8283 -0.7241
16927TIP3    H272197   0.756   0.257   2.510  0.2874  1.5136 -0.3503
16928TIP3   OH272198   2.184   1.880  16.364 -0.2162 -0.2038  0.3632
16928TIP3    H172199   2.147   1.794  16.344 -0.5468  0.3023 -1.3344
16928TIP3    H272200   2.152   1.900  16.452 -1.5675 -1.0672  0.0986
16929TIP3   OH272201   5.916   6.438   0.758  0.2193 -0.4115  0.9753
16929TIP3    H172202   5.880   6.367   0.810 -0.7100 -1.4721 -1.0025
16929TIP3    H272203   5.908   6.408   0.667  0.3949  1.9514  0.1049
16930TIP3   OH272204   6.069   0.467   1.112 -0.0271  0.0607 -0.1638
16930TIP3    H172205   5.989   0.519   1.102  0.4494  0.5785 -1.5629
16930TIP3    H272206   6.139   0.523   1.080  0.8506 -0.5554  0.6076
16931TIP3   OH272207   3.015   6.281  15.943  0.4975 -0.0110 -0.0660
16931TIP3    H172208   3.078   6.323  15.885  0.7261  0.1433  0.2913
16931TIP3    H272209   3.037   6.314  16.030 -0.4185  0.4589 -0.0005
16932TIP3   OH272210   5.068   4.345  15.959 -0.1074 -0.1965 -0.3515
16932TIP3    H172211   5.034   4.404  16.026 -0.1000  0.5667 -1.0062
16932TIP3    H272212   5.122   4.282  16.007 -3.1368 -2.0691  0.8694
16933TIP3   OH272213   5.033   2.530  14.040 -0.2548 -0.2967 -0.4985
16933TIP3    H172214   5.054   2.437  14.038  3.6606  0.4004 -1.7692
16933TIP3    H272215   5.008   2.547  14.131 -0.8257 -2.4862 -0.1844
16934TIP3   OH272216   3.613   1.415   1.650 -0.1043  0.1090  0.4148
16934TIP3    H172217   3.705   1.405   1.623 -0.2382 -0.4077  0.1396
16934TIP3    H272218   3.578   1.481   1.591 -0.3255 -0.8290 -0.5169
16935TIP3   OH272219   0.717   1.757   3.604  0.3379 -0.0612 -0.4624
16935TIP3    H172220   0.648   1.820   3.624 -0.1128 -0.9695  1.0346
16935TIP3    H272221   0.746   1.725   3.689  0.7292 -1.6805 -1.1647
16936TIP3   OH272222   0.153   4.745   1.050 -0.5408 -0.0497  0.3886
16936TIP3    H172223   0.245   4.763   1.034 -0.6277  0.0789  0.0194
16936TIP3    H272224   0.121   4.821   1.098 -0.4523 -0.0995  0.5261
16937TIP3   OH272225   3.093   6.519   2.468  0.4750 -0.1462  0.1301
16937TIP3    H172226   3.036   6.484   2.537 -1.1281  0.3225 -0.9124
16937TIP3    H272227   3.080   6.460   2.394  0.6132  0.5030 -0.4219
16938TIP3   OH272228   1.416   1.081   2.115  0.2229 -0.0878  0.2160
16938TIP3    H172229   1.504   1.108   2.144 -0.7521  1.4153  1.9561
16938TIP3    H272230   1.431   1.000   2.067  2.7169  0.8280 -0.7303
16939TIP3   OH272231   5.164   0.137   5.909  0.1073 -0.4446 -0.1190
16939TIP3    H172232   5.173   0.048   5.945 -1.9808 -1.4141 -1.7704
16939TIP3    H272233   5.169   0.125   5.814 -2.4737  0.7989 -0.5098
16940TIP3   OH272234   0.592   4.899  13.443 -0.0978 -0.1484  0.8135
16940TIP3    H172235   0.654   4.904  13.517 -1.1530  1.1518  1.6492
16940TIP3    H272236   0.580   4.805  13.429 -0.2247 -0.4433  2.6175
16941TIP3   OH272237   1.419   2.842  12.621 -0.4795  0.4642 -0.9031
16941TIP3    H172238   1.481   2.840  12.548  0.3477 -1.2922 -0.1977
16941TIP3    H272239   1.414   2.751  12.650 -0.0836  1.2478  1.8308
16942TIP3   OH272240   6.073   6.137  10.912 -0.7431  0.2185  0.4261
16942TIP3    H172241   6.020   6.057  10.919 -1.0850  0.3227 -0.7482
16942TIP3    H272242   6.040   6.181  10.833  0.0433  1.0731  0.5571
16943TIP3   OH272243   3.427   4.124   3.762 -0.3610  0.0909  0.5638
16943TIP3    H172244   3.374   4.046   3.782 -1.2005  0.4804 -0.0769
16943TIP3    H272245   3.451   4.113   3.670 -0.9749  0.8643  0.3052
16944TIP3   OH272246   5.824   4.030  13.829  0.6463  0.2238 -0.0416
16944TIP3    H172247   5.756   4.026  13.762 -0.6974 -0.8239  1.3199
16944TIP3    H272248   5.906   4.041  13.780 -0.3583  0.2581 -1.7844
16945TIP3   OH272249   4.180   3.190  15.685 -0.5821 -0.7384  1.2450
16945TIP3    H172250   4.201   3.223  15.597  0.4365 -0.7835  1.4590
16945TIP3    H272251   4.195   3.096  15.680  1.1227 -0.5310  1.9025
16946TIP3   OH272252   4.901   3.274  13.007 -0.2460  0.0481  0.2173
16946TIP3    H172253   4.827   3.259  12.948 -0.4295 -0.4244  0.5636
16946TIP3    H272254   4.876   3.232  13.089 -0.0180  0.7552  0.6577
16947TIP3   OH272255   2.911   6.232  12.664  0.0282  0.4175  0.5392
16947TIP3    H172256   2.896   6.327  12.663  0.8468  0.5457 -0.0496
16947TIP3    H272257   2.936   6.213  12.754  0.9341  0.9320  0.4032
16948TIP3   OH272258   4.007   2.757   4.369 -0.2432  0.1865  0.0390
16948TIP3    H172259   3.944   2.690   4.398  1.3791 -1.0029  0.9559
16948TIP3    H272260   4.005   2.751   4.274  0.2485 -1.5769  0.0980
16949TIP3   OH272261   0.991   1.993  13.564  0.1765  0.3111  0.5480
16949TIP3    H172262   0.968   2.038  13.483  2.7287  2.2986  0.7913
16949TIP3    H272263   0.933   2.031  13.630 -1.3463 -0.7183 -0.1575
16950TIP3   OH272264   2.373   4.246  11.985  0.4882 -0.0841  0.1791
16950TIP3    H172265   2.317   4.169  11.995  0.9152 -0.6578 -1.5134
16950TIP3    H272266   2.349   4.282  11.900  1.5522  0.5986  0.1501
16951TIP3   OH272267   3.606   5.742   2.869  0.6897 -0.3849 -0.9878
16951TIP3    H172268   3.625   5.835   2.864  2.1625 -0.4866  1.3033
16951TIP3    H272269   3.629   5.707   2.783  1.7433  1.0922 -1.3304
16952TIP3   OH272270   6.229   3.163  15.355  0.4183  0.2656  0.1005
16952TIP3    H172271   6.291   3.194  15.290 -0.3413  2.0561  0.1729
16952TIP3    H272272   6.266   3.080  15.386  1.9315  0.4951 -0.9822
16953TIP3   OH272273   2.056   4.318  11.616 -0.0473  0.2031 -0.3318
16953TIP3    H172274   2.147   4.304  11.641  0.3146 -0.1477 -1.7686
16953TIP3    H272275   2.032   4.401  11.657  1.9191  1.9675 -2.5115
16954TIP3   OH272276   1.121   3.585  15.677 -0.1917  0.4969  0.4969
16954TIP3    H172277   1.045   3.530  15.698 -1.0039  0.6438 -1.8124
16954TIP3    H272278   1.087   3.652  15.618  1.1955  2.3361  1.6501
16955TIP3   OH272279   3.313   3.382  13.341  0.3120  0.1237 -0.0117
16955TIP3    H172280   3.314   3.477  13.325  0.9569  0.0969 -0.1627
16955TIP3    H272281   3.288   3.344  13.257  1.1476  0.1130 -0.2693
16956TIP3   OH272282   1.191   0.618  11.135  0.6230  0.1066  1.0127
16956TIP3    H172283   1.174   0.555  11.065  0.9933 -0.8516  1.7594
16956TIP3    H272284   1.139   0.585  11.209 -1.5838  2.3236  0.6016
16957TIP3   OH272285   1.864   2.642  14.353 -0.2018  0.3600 -0.5144
16957TIP3    H172286   1.780   2.686  14.364 -0.0363  0.3875  0.8717
16957TIP3    H272287   1.916   2.670  14.429  0.1580 -1.6198  0.0461
16958TIP3   OH272288   2.243   0.944  13.053  0.1462  0.2760 -0.0684
16958TIP3    H172289   2.154   0.913  13.068  0.4128  0.2688  1.6117
16958TIP3    H272290   2.233   1.031  13.016 -0.5600 -0.6625 -2.3155
16959TIP3   OH272291   3.072   4.081  13.214  0.1095  0.6999 -0.4520
16959TIP3    H172292   3.065   4.086  13.310 -1.7564  0.6500 -0.5405
16959TIP3    H272293   3.084   4.171  13.186  0.8019  0.6994 -0.1643
16960TIP3   OH272294   0.221   6.660   2.372 -0.3580  0.3313  0.3051
16960TIP3    H172295   0.285   6.618   2.314  0.5668  0.4097  1.2366
16960TIP3    H272296   0.142   6.670   2.318  0.5794  0.7288 -1.0448
16961TIP3   OH272297   1.051   4.930  13.660  0.8217 -0.2373 -0.1956
16961TIP3    H172298   1.114   5.002  13.666 -1.8322  2.2263  0.1489
16961TIP3    H272299   1.013   4.923  13.747 -0.9549 -0.0835 -0.9181
16962TIP3   OH272300   4.469   4.830  15.058 -0.1665 -0.1513 -0.0415
16962TIP3    H172301   4.475   4.891  15.132 -2.7420 -0.4322  0.4708
16962TIP3    H272302   4.377   4.831  15.033  0.6455  0.0126 -3.3853
16963TIP3   OH272303   2.667   0.384  15.793 -0.1339 -0.0296 -0.3217
16963TIP3    H172304   2.646   0.421  15.708  2.3624 -2.1636 -2.0526
16963TIP3    H272305   2.583   0.366  15.834 -1.4002  1.4095 -2.1603
16964TIP3   OH272306   2.708   4.130  13.349  0.0100 -0.0031  0.2574
16964TIP3    H172307   2.613   4.123  13.357 -0.1450  0.0610 -1.2865
16964TIP3    H272308   2.730   4.210  13.397 -0.8400  0.5153 -0.1915
16965TIP3   OH272309   1.721   4.901   2.875 -0.1674 -0.4360  0.4730
16965TIP3    H172310   1.692   4.893   2.966  0.9034 -0.5251  0.8183
16965TIP3    H272311   1.730   4.811   2.845 -1.0847 -0.4041  0.0866
16966TIP3   OH272312   0.407   2.169  14.806 -0.0686 -0.4826 -0.1722
16966TIP3    H172313   0.444   2.108  14.870  0.2489 -0.0096  0.1010
16966TIP3    H272314   0.378   2.244  14.857  2.1127  0.8574 -0.7396
16967TIP3   OH272315   4.382   5.663  12.654 -0.1143 -0.3003 -0.3650
16967TIP3    H172316   4.420   5.714  12.583  1.6484 -1.7652 -0.5728
16967TIP3    H272317   4.406   5.710  12.733  0.8827 -0.3829 -0.5944
16968TIP3   OH272318   2.903   1.378   1.201 -0.4922 -0.5053 -0.6156
16968TIP3    H172319   2.844   1.428   1.145  0.1629  1.2692  0.1993
16968TIP3    H272320   2.967   1.340   1.141  0.0015  1.0803 -1.1512
16969TIP3   OH272321   1.205   2.224  11.955  0.5994  0.0872  0.1283
16969TIP3    H172322   1.112   2.239  11.968  0.7641  0.9911  0.3757
16969TIP3    H272323   1.235   2.183  12.037  0.3013 -0.8185 -0.2106
16970TIP3   OH272324   2.158   3.107   0.380  0.0420 -0.6142  0.0459
16970TIP3    H172325   2.156   3.172   0.450 -0.7102 -1.5513  0.9413
16970TIP3    H272326   2.226   3.045   0.406 -1.5433 -2.0481  1.0330
16971TIP3   OH272327   5.520   0.243   0.164 -0.3527 -0.0928 -0.2575
16971TIP3    H172328   5.447   0.204   0.212 -0.6261  0.9003  0.1516
16971TIP3    H272329   5.535   0.327   0.207  2.3148 -1.0870  0.9340
16972TIP3   OH272330   3.184   1.957   1.322  0.0614 -0.4524  0.5942
16972TIP3    H172331   3.255   1.932   1.382  1.7971 -1.2603 -1.6263
16972TIP3    H272332   3.158   2.044   1.351  0.9092 -0.7325  2.3870
16973TIP3   OH272333   0.333   3.546   3.311 -0.0921  0.0850 -0.2245
16973TIP3    H172334   0.324   3.563   3.405  3.6368  0.5868  0.2175
16973TIP3    H272335   0.359   3.631   3.274  1.3720 -0.7193 -1.1336
16974TIP3   OH272336   1.123   4.775   3.686  0.3634 -0.3805  0.2286
16974TIP3    H172337   1.141   4.682   3.672 -0.5008 -0.6887  1.0866
16974TIP3    H272338   1.167   4.795   3.769  0.5096 -0.0292  0.0674
16975TIP3   OH272339   2.298   3.268  15.634 -0.0465  0.5077 -0.2074
16975TIP3    H172340   2.301   3.172  15.643 -0.0398  0.6271  1.3514
16975TIP3    H272341   2.280   3.299  15.722 -1.7503  1.8946 -0.9841
16976TIP3   OH272342   0.427   3.539  15.443 -0.4809  0.3392  0.1095
16976TIP3    H172343   0.421   3.634  15.442 -1.5485  0.3671  2.4948
16976TIP3    H272344   0.342   3.510  15.476  1.1288 -1.2009  3.2629
16977TIP3   OH272345   1.645   6.658   2.573  0.0875  0.4828  0.3880
16977TIP3    H172346   1.639   6.697   2.661 -1.0211  1.8248 -0.2507
16977TIP3    H272347   1.558   6.621   2.558 -0.0922  1.2698 -0.5788
16978TIP3   OH272348   1.019   0.471  12.675 -0.0853 -0.2891  0.1851
16978TIP3    H172349   1.012   0.393  12.731 -2.6754  0.3869  0.9375
16978TIP3    H272350   0.969   0.538  12.720 -0.4545  0.9441 -1.9107
16979TIP3   OH272351   3.422   4.079   5.841  0.7073 -0.2618  0.1452
16979TIP3    H172352   3.341   4.129   5.842 -0.7086 -2.3720 -1.0853
16979TIP3    H272353   3.488   4.138   5.877 -1.3780  1.4856  1.2727
16980TIP3   OH272354   1.951   0.186   4.448 -0.2396  0.4134  1.0422
16980TIP3    H172355   1.864   0.218   4.468 -0.1964  1.5463 -0.4124
16980TIP3    H272356   1.957   0.188   4.353  0.9685 -0.7967  1.0446
16981TIP3   OH272357   5.778   3.282   4.027  0.1770 -0.2570  0.0083
16981TIP3    H172358   5.778   3.370   4.066  2.0313 -0.9253  1.6962
16981TIP3    H272359   5.800   3.224   4.100 -1.1060 -2.1723 -1.0549
16982TIP3   OH272360   6.771   0.586  11.902  0.3074 -0.1336 -0.0992
16982TIP3    H172361   6.795   0.648  11.833 -2.3518  1.0128 -0.0820
16982TIP3    H272362   6.689   0.619  11.937 -0.0480 -2.4648  1.4676
16983TIP3   OH272363   0.185   5.723   1.005  0.9763 -0.1257  0.5413
16983TIP3    H172364   0.210   5.809   1.039 -0.8781  0.0023  1.7138
16983TIP3    H272365   0.252   5.702   0.940  2.2757  1.5432  1.2828
16984TIP3   OH272366   4.173   3.665   0.077 -0.4050  0.2985 -0.4834
16984TIP3    H172367   4.203   3.696  -0.008 -0.8149  0.4048 -0.5922
16984TIP3    H272368   4.089   3.710   0.091 -0.1117  0.6486  0.1917
16985TIP3   OH272369   1.347   6.476  14.128 -0.4221  0.3173 -0.3026
16985TIP3    H172370   1.320   6.541  14.063  0.3222  0.7839 -0.1569
16985TIP3    H272371   1.303   6.396  14.102 -1.4399  0.8965 -0.4373
16986TIP3   OH272372   6.531   2.185   0.899  0.3810  0.3923 -0.5169
16986TIP3    H172373   6.474   2.111   0.877  1.4230 -0.1404 -1.5132
16986TIP3    H272374   6.567   2.213   0.814  1.9820  0.3955  0.1359
16987TIP3   OH272375   5.053   3.724  14.413 -0.5221  0.0462  0.4410
16987TIP3    H172376   5.065   3.682  14.498  0.0217 -1.0148 -0.1384
16987TIP3    H272377   5.031   3.815  14.434  0.5084  0.0276  1.6984
16988TIP3   OH272378   3.964   5.470  13.327 -0.0601  0.1166 -0.5028
16988TIP3    H172379   3.915   5.403  13.374 -1.4504  1.5084  0.1169
16988TIP3    H272380   3.902   5.505  13.263  0.4924  1.1091 -0.5237
16989TIP3   OH272381   1.126   5.228  14.850  0.1056 -0.2208 -0.1210
16989TIP3    H172382   1.150   5.203  14.940 -0.2074  0.1152  0.0592
16989TIP3    H272383   1.083   5.313  14.860 -0.9354 -0.7021 -0.4625
16990TIP3   OH272384   2.372   5.268  14.764  0.1176 -0.3821 -0.0775
16990TIP3    H172385   2.290   5.315  14.777  0.2981 -0.3455  1.0557
16990TIP3    H272386   2.362   5.187  14.815  0.9660 -0.1263  0.5335
16991TIP3   OH272387   3.682   5.822  11.226  0.4765  0.2304 -0.6328
16991TIP3    H172388   3.739   5.852  11.297  0.6510 -0.0831 -0.6408
16991TIP3    H272389   3.713   5.869  11.149 -0.2497  1.2106 -0.3467
16992TIP3   OH272390   3.055   5.000   0.226  0.4732 -0.3270 -0.5244
16992TIP3    H172391   3.025   4.909   0.216  2.1767 -1.0125  0.2464
16992TIP3    H272392   3.039   5.020   0.318  2.4850 -0.7890 -0.0384
16993TIP3   OH272393   1.460   6.266  15.592 -0.2832 -0.1254 -0.0038
16993TIP3    H172394   1.427   6.281  15.503 -0.9750  2.7351  0.6391
16993TIP3    H272395   1.553   6.289  15.586 -0.7397  1.9382  0.3755
16994TIP3   OH272396   4.813   1.342  14.074 -0.5045  0.2419 -0.2403
16994TIP3    H172397   4.841   1.325  14.164 -1.4942 -1.2006 -0.1545
16994TIP3    H272398   4.860   1.421  14.047  1.0314 -0.2185  0.9882
16995TIP3   OH272399   6.336   5.640   1.396  0.6344  0.2905 -0.2687
16995TIP3    H172400   6.255   5.663   1.350  1.0313  1.7882 -0.2870
16995TIP3    H272401   6.387   5.591   1.332  0.0452 -0.0525 -0.4882
16996TIP3   OH272402   3.963   5.750  14.695  0.2579  0.1447 -0.0206
16996TIP3    H172403   4.016   5.823  14.726 -1.4551  2.1394 -1.4808
16996TIP3    H272404   3.961   5.760  14.600 -0.7058 -1.3214 -0.1968
16997TIP3   OH272405   3.771   1.151   1.595 -0.0467  0.4266 -0.6128
16997TIP3    H172406   3.720   1.169   1.674 -1.9687 -0.6120 -1.5446
16997TIP3    H272407   3.742   1.065   1.566  1.3502  0.3454 -1.9149
16998TIP3   OH272408   0.153   4.316   3.085  0.6860 -0.1798 -0.0634
16998TIP3    H172409   0.133   4.408   3.069 -0.3556 -0.5370 -0.9467
16998TIP3    H272410   0.245   4.316   3.112  1.0597  1.0159 -1.2158
16999TIP3   OH272411   5.667   6.415   0.364  0.0846  0.0882 -0.5107
16999TIP3    H172412   5.575   6.435   0.347  0.4258  0.6965 -1.7995
16999TIP3    H272413   5.714   6.495   0.339  0.9116  0.0676  0.8639
17000TIP3   OH272414   2.175   2.594   6.268 -0.0593  0.4872 -0.1172
17000TIP3    H172415   2.161   2.652   6.194 -0.8615 -0.5335 -0.7958
17000TIP3    H272416   2.201   2.652   6.340 -3.0053  1.9930 -0.1317
17001TIP3   OH272417   4.380   5.055   4.744 -0.1765 -0.2305 -0.3327
17001TIP3    H172418   4.312   5.121   4.732 -0.3729 -0.2288  0.6496
17001TIP3    H272419   4.345   4.998   4.813  0.8443 -0.2038  0.2192
17002TIP3   OH272420   2.735   4.488   1.446  0.1812 -0.2402 -0.0869
17002TIP3    H172421   2.736   4.582   1.464 -0.1236 -0.2126 -0.2072
17002TIP3    H272422   2.742   4.481   1.351 -1.2017 -0.2861 -0.2112
17003TIP3   OH272423   6.492   1.183  12.367  0.3173 -0.1448 -0.5989
17003TIP3    H172424   6.518   1.186  12.459 -0.4950  0.6509 -0.3852
17003TIP3    H272425   6.427   1.112  12.363  0.0939  0.0540 -0.4918
17004TIP3   OH272426   3.120   4.132  14.229 -0.1791  0.2969  0.1444
17004TIP3    H172427   3.165   4.214  14.210  1.3510  0.0024  2.1578
17004TIP3    H272428   3.172   4.065  14.186 -1.4755  0.3158 -1.5724
17005TIP3   OH272429   0.733   6.572   6.563 -0.1280 -0.5921 -0.1089
17005TIP3    H172430   0.778   6.496   6.599  0.4109  0.7360  2.2299
17005TIP3    H272431   0.799   6.616   6.509  0.4548 -0.3009  0.8208
17006TIP3   OH272432   4.139   3.197  16.122 -0.1232  0.8020  0.0864
17006TIP3    H172433   4.086   3.276  16.116  0.4329  1.1437 -0.4329
17006TIP3    H272434   4.218   3.217  16.072 -0.4338 -0.4440 -0.9925
17007TIP3   OH272435   1.766   3.186  16.522  0.0169 -0.1970 -0.0476
17007TIP3    H172436   1.804   3.125  16.586  0.8446 -2.1971 -2.2945
17007TIP3    H272437   1.673   3.191  16.546  0.4491 -0.1042  1.8343
17008TIP3   OH272438   6.812   0.698   2.057 -0.2562 -0.0617  0.7678
17008TIP3    H172439   6.897   0.733   2.031 -0.4840 -0.1467 -0.1183
17008TIP3    H272440   6.825   0.669   2.148  1.4962 -2.7246 -0.2030
17009TIP3   OH272441   4.260   5.732  13.264 -0.6896 -0.0474 -0.0469
17009TIP3    H172442   4.187   5.695  13.213  1.5019  0.2750 -3.7820
17009TIP3    H272443   4.286   5.810  13.214  1.7357  0.2637  1.5871
17010TIP3   OH272444   2.653   3.543  13.465  0.0236 -0.1232  0.3125
17010TIP3    H172445   2.615   3.620  13.507  0.5635  0.3005  0.0356
17010TIP3    H272446   2.711   3.507  13.532 -0.8395 -0.7694  0.7338
17011TIP3   OH272447   6.148   2.280  12.943 -0.3710 -0.2968 -0.1612
17011TIP3    H172448   6.135   2.357  12.998  0.3185 -0.5267  0.3313
17011TIP3    H272449   6.205   2.310  12.872 -0.5744 -0.2129 -0.2906
17012TIP3   OH272450   2.092   2.433  14.563 -0.4755 -0.0501 -0.3361
17012TIP3    H172451   2.104   2.380  14.485 -1.3095 -0.9603  0.1416
17012TIP3    H272452   2.031   2.384  14.618  0.4551  0.3179  1.1200
17013TIP3   OH272453   5.024   4.498  11.208 -0.3125  0.1616 -0.1420
17013TIP3    H172454   4.961   4.545  11.261  0.3964  2.0681 -0.9134
17013TIP3    H272455   4.981   4.486  11.123 -0.0658  0.4872 -0.3181
17014TIP3   OH272456   4.691   6.553  13.142 -0.4734  0.0333 -0.0913
17014TIP3    H172457   4.696   6.543  13.237  2.9262 -2.9453 -0.4019
17014TIP3    H272458   4.636   6.480  13.113  1.9790 -1.7683 -0.5502
17015TIP3   OH272459   0.929   2.324  14.345  1.0106  0.0346  0.5984
17015TIP3    H172460   0.951   2.346  14.436  1.1029 -0.1366  0.6164
17015TIP3    H272461   0.965   2.236  14.332 -1.8294 -1.3667  1.4283
17016TIP3   OH272462   1.631   3.923   0.471 -0.5600 -0.5149 -0.4429
17016TIP3    H172463   1.598   3.943   0.383 -0.0235 -2.0891 -1.0406
17016TIP3    H272464   1.561   3.952   0.529 -1.4644 -0.5391 -1.4700
17017TIP3   OH272465   5.834   1.424  15.218  0.2852  0.1199  0.0611
17017TIP3    H172466   5.767   1.355  15.222 -1.0234  1.2556 -1.2575
17017TIP3    H272467   5.856   1.431  15.126  2.0721 -0.0327  0.4426
17018TIP3   OH272468   0.163   1.040  14.916 -0.6552  0.5342  0.3215
17018TIP3    H172469   0.101   0.998  14.976 -0.5388  0.5248  0.4361
17018TIP3    H272470   0.199   1.113  14.967  1.6598 -1.2097  1.3371
17019TIP3   OH272471   6.550   5.372  13.233  0.2277  0.0823  0.2374
17019TIP3    H172472   6.584   5.345  13.148  1.6083  0.7887  0.5397
17019TIP3    H272473   6.628   5.392  13.286 -0.6302  1.8099  0.9450
17020TIP3   OH272474   6.267   5.763   4.688  0.5638  0.2091 -0.5469
17020TIP3    H172475   6.339   5.826   4.679 -0.9748  2.2954  0.7641
17020TIP3    H272476   6.201   5.794   4.627  0.1500 -0.7463 -0.5996
17021TIP3   OH272477   0.703   1.675   2.058  0.2937 -0.0770 -0.0779
17021TIP3    H172478   0.760   1.747   2.033  1.6528 -1.0940 -0.0028
17021TIP3    H272479   0.626   1.717   2.095  0.3440  1.3540 -1.5071
17022TIP3   OH272480   2.955   3.350  13.234 -0.4054  0.3948 -0.5542
17022TIP3    H172481   2.988   3.398  13.311  1.8077 -0.8702 -0.6272
17022TIP3    H272482   2.922   3.418  13.176 -0.5659  1.5198  0.7976
17023TIP3   OH272483   4.065   2.850  10.921 -0.2660  0.0996  0.2256
17023TIP3    H172484   4.014   2.772  10.901  0.8346 -0.2134 -1.5902
17023TIP3    H272485   4.011   2.899  10.983 -2.0382 -0.9682 -0.4000
17024TIP3   OH272486   0.162   3.668   3.978  0.5316 -0.1963  0.2612
17024TIP3    H172487   0.219   3.597   3.948  1.8794  0.3644  1.3454
17024TIP3    H272488   0.136   3.714   3.898  0.9749 -0.9303 -0.3206
17025TIP3   OH272489   0.276   4.593   5.783 -0.4908 -0.7126 -0.4490
17025TIP3    H172490   0.351   4.630   5.828  0.2984 -0.2306 -2.0788
17025TIP3    H272491   0.282   4.499   5.800 -1.0731 -0.4271  1.6182
17026TIP3   OH272492   3.465   4.863  14.055  0.3855  0.9693 -0.4412
17026TIP3    H172493   3.443   4.941  14.003  0.5784  1.2194 -0.1579
17026TIP3    H272494   3.384   4.840  14.100  0.3897  1.1729 -0.3216
17027TIP3   OH272495   4.170   5.599  16.517  0.4430  0.4472 -0.2978
17027TIP3    H172496   4.246   5.598  16.576  0.6464  0.5822 -0.5542
17027TIP3    H272497   4.097   5.628  16.572 -0.0747 -2.4451  0.6953
17028TIP3   OH272498   4.161   6.393  16.595 -0.2035 -0.4492 -0.2302
17028TIP3    H172499   4.095   6.460  16.612 -0.4988 -1.0087  0.9191
17028TIP3    H272500   4.166   6.388  16.500 -1.2129  0.1829 -0.3303
17029TIP3   OH272501   1.969   2.984   5.466  0.0589  0.1163  0.0786
17029TIP3    H172502   1.937   2.898   5.492 -0.6138  0.3792  0.1246
17029TIP3    H272503   1.908   3.012   5.397  0.8792  0.1131 -0.6705
17030TIP3   OH272504   3.091   6.286   6.293  0.2895 -0.6563 -0.3196
17030TIP3    H172505   3.023   6.348   6.266 -1.1024  0.2510  4.3663
17030TIP3    H272506   3.047   6.202   6.298  0.7245 -0.9636 -1.3681
17031TIP3   OH272507   6.189   6.315  16.027 -0.4042  0.2378  0.6623
17031TIP3    H172508   6.119   6.381  16.033 -1.3240 -0.7626  1.2357
17031TIP3    H272509   6.160   6.256  15.957 -0.1718 -0.2278  0.9575
17032TIP3   OH272510   0.011   3.782   0.170 -0.5131 -0.4846 -0.6022
17032TIP3    H172511   0.044   3.708   0.220 -0.1931  1.6593  2.6494
17032TIP3    H272512  -0.072   3.805   0.212 -0.0374  1.6973 -0.7233
17033TIP3   OH272513   2.647   3.185  16.890 -0.9152 -0.1437 -0.1665
17033TIP3    H172514   2.724   3.241  16.885  0.4535 -1.9585 -0.3225
17033TIP3    H272515   2.573   3.246  16.888  0.4870  1.8616  2.3485
17034TIP3   OH272516   4.228   4.200  12.407 -0.2599  0.1526  0.0003
17034TIP3    H172517   4.151   4.178  12.354 -0.5745  2.8302 -0.8114
17034TIP3    H272518   4.193   4.208  12.496 -0.5054 -0.6159 -0.0196
17035TIP3   OH272519   5.719   1.919  15.702 -0.0906  0.2931  0.2467
17035TIP3    H172520   5.714   1.958  15.790  1.9222  1.1034  0.0568
17035TIP3    H272521   5.795   1.861  15.706 -0.0065  0.2994 -0.9308
17036TIP3   OH272522   3.180   5.688  16.207  0.4098  0.3908  0.3063
17036TIP3    H172523   3.123   5.713  16.280 -1.4696  0.7932 -1.2100
17036TIP3    H272524   3.238   5.622  16.244 -0.9912  0.0085  1.9780
17037TIP3   OH272525   1.628   5.416   3.688  0.2467 -0.3475  0.4010
17037TIP3    H172526   1.639   5.506   3.719  0.8688 -0.8076  1.5680
17037TIP3    H272527   1.537   5.395   3.709 -0.2948  0.4124 -1.0332
17038TIP3   OH272528   5.746   1.931   4.830 -0.2231 -0.6728  0.0578
17038TIP3    H172529   5.700   1.927   4.915  0.6967 -3.5420  0.5072
17038TIP3    H272530   5.697   1.997   4.780 -3.8196 -2.2943  1.1118
17039TIP3   OH272531   4.759   0.929  16.420  0.3196  0.1191 -0.3386
17039TIP3    H172532   4.808   0.940  16.501 -2.2614  0.9959  1.2251
17039TIP3    H272533   4.736   0.836  16.417 -2.3822  0.6136  1.7955
17040TIP3   OH272534   2.566   5.928  12.872  0.5143 -0.3177  0.1955
17040TIP3    H172535   2.517   5.957  12.948  1.0252  0.3930  0.2594
17040TIP3    H272536   2.612   5.850  12.901  0.2442 -0.3915  0.4335
17041TIP3   OH272537   3.149   1.348   1.778 -0.2047 -0.0827  0.4903
17041TIP3    H172538   3.081   1.281   1.770 -0.5955  0.3643 -0.0192
17041TIP3    H272539   3.230   1.298   1.789 -0.4901 -0.6451  0.1219
17042TIP3   OH272540   0.997   2.669  15.170 -0.3491  0.7122 -0.2408
17042TIP3    H172541   0.937   2.719  15.114 -0.1233  1.0479 -0.1878
17042TIP3    H272542   1.004   2.721  15.250 -0.3906  0.4131 -0.0419
17043TIP3   OH272543   6.425   1.047   3.926  0.5933  0.2076  0.0092
17043TIP3    H172544   6.339   1.057   3.966  0.8512  1.3896  0.3193
17043TIP3    H272545   6.478   1.116   3.966  0.8641  1.4711 -2.3712
17044TIP3   OH272546   3.542   4.244   0.557  0.2810  0.4144  0.3342
17044TIP3    H172547   3.603   4.316   0.542  0.4805  0.2492  0.3544
17044TIP3    H272548   3.523   4.211   0.469  2.3815 -1.3283  0.4749
17045TIP3   OH272549   0.412   5.019  14.134  0.1989  0.3613 -0.1204
17045TIP3    H172550   0.351   5.086  14.165 -2.1097 -1.7386  0.1625
17045TIP3    H272551   0.444   4.977  14.215  0.9287  0.5105 -0.3236
17046TIP3   OH272552   5.822   3.963   2.457  0.3462  0.7319 -0.0086
17046TIP3    H172553   5.865   4.003   2.532 -0.5418 -0.2188  1.0499
17046TIP3    H272554   5.852   3.872   2.458 -0.3760  0.4862 -0.2638
17047TIP3   OH272555   4.360   5.104  14.807 -0.5430  0.1988  0.5619
17047TIP3    H172556   4.290   5.048  14.774 -0.1881  0.1298 -0.0908
17047TIP3    H272557   4.428   5.044  14.837 -0.7967  0.2647  1.2772
17048TIP3   OH272558   5.286   5.963  11.771  0.8802 -0.0234 -0.2256
17048TIP3    H172559   5.209   5.924  11.730  0.5150  0.7857 -0.3365
17048TIP3    H272560   5.250   6.031  11.829  1.4644 -0.2553  0.4262
17049TIP3   OH272561   4.758   0.159  11.987 -0.5172 -0.0244 -0.2122
17049TIP3    H172562   4.665   0.181  11.978 -0.7810 -0.5324  0.9777
17049TIP3    H272563   4.803   0.214  11.923 -1.6379  0.2225 -0.8073
17050TIP3   OH272564   6.016   6.136  11.608  0.1599 -0.4061  0.7708
17050TIP3    H172565   6.003   6.092  11.524  1.2396  1.7276 -0.6304
17050TIP3    H272566   6.106   6.114  11.633  0.4906  0.4482  0.3765
17051TIP3   OH272567   3.861   2.810  14.811  0.5335 -0.0224  0.0121
17051TIP3    H172568   3.798   2.748  14.849  2.6700 -2.1305  0.3029
17051TIP3    H272569   3.934   2.809  14.872  2.1154  0.0599 -1.8091
17052TIP3   OH272570   4.128   3.128  13.957  0.7019  0.1666  0.3332
17052TIP3    H172571   4.173   3.151  14.038  1.2682 -0.2285  0.1431
17052TIP3    H272572   4.172   3.047  13.928  0.3483  0.1748 -0.2354
17053TIP3   OH272573   3.997   2.712   1.266  0.0872  0.4140  0.2697
17053TIP3    H172574   4.014   2.795   1.311  1.9839  0.8622 -1.1565
17053TIP3    H272575   3.960   2.737   1.182  5.0565  0.3279 -2.2695
17054TIP3   OH272576   3.572   6.327  16.207 -0.1338 -0.4079 -0.4057
17054TIP3    H172577   3.632   6.255  16.186  0.5163  0.1932 -0.6082
17054TIP3    H272578   3.587   6.392  16.138 -0.4815  0.0756 -0.0303
17055TIP3   OH272579   4.818   6.751  16.826 -0.0098 -0.3123  0.3643
17055TIP3    H172580   4.862   6.666  16.829  0.7766  0.0785  0.2921
17055TIP3    H272581   4.751   6.742  16.759 -1.2920 -1.4958  1.7468
17056TIP3   OH272582   3.390   3.390  15.232 -0.0587  0.4086 -0.1563
17056TIP3    H172583   3.362   3.328  15.165  2.5665 -1.1334  0.0357
17056TIP3    H272584   3.432   3.336  15.299 -0.5214  2.1271  1.6057
17057TIP3   OH272585   2.706   2.918  13.079 -0.2330 -0.0931 -0.0003
17057TIP3    H172586   2.613   2.938  13.068 -0.1813  0.5613  0.7204
17057TIP3    H272587   2.722   2.847  13.016 -0.9972  0.4205 -0.8075
17058TIP3   OH272588   2.155   3.333  11.571  0.3829  0.0637 -0.4164
17058TIP3    H172589   2.167   3.340  11.476 -1.6745 -0.0041 -0.7290
17058TIP3    H272590   2.083   3.393  11.590  1.2189  0.5974  1.2309
17059TIP3   OH272591   4.750   4.515  11.621  0.2606  0.1317  0.0381
17059TIP3    H172592   4.766   4.608  11.637 -0.1106  0.5088 -1.6142
17059TIP3    H272593   4.810   4.492  11.550 -1.3763 -0.2354 -1.2873
17060TIP3   OH272594   1.595   3.517  14.392  0.4695  0.0086 -0.2041
17060TIP3    H172595   1.662   3.495  14.456 -0.6759 -1.5481  0.5242
17060TIP3    H272596   1.513   3.509  14.439 -0.2866  1.6009 -1.1462
17061TIP3   OH272597   5.040   3.201  14.685 -0.1835  0.4981  0.1437
17061TIP3    H172598   5.008   3.130  14.629  0.5503  0.5372 -0.3209
17061TIP3    H272599   5.020   3.171  14.774 -1.6269  0.5703 -0.1232
17062TIP3   OH272600   5.033   2.574   0.704  0.4905 -0.1234 -0.1864
17062TIP3    H172601   5.077   2.639   0.649 -0.4623  0.0266 -0.7871
17062TIP3    H272602   5.024   2.497   0.647  2.6555 -1.2558  0.8637
17063TIP3   OH272603   1.525   5.787  16.281 -0.4703  0.4311 -0.0756
17063TIP3    H172604   1.602   5.731  16.280 -0.4455  0.4124  1.1114
17063TIP3    H272605   1.533   5.841  16.203  2.2393  2.3847  1.3608
17064TIP3   OH272606   4.041   1.244   4.990  0.0373  0.8518 -0.1102
17064TIP3    H172607   4.103   1.217   4.923 -2.4394 -3.2320 -1.1028
17064TIP3    H272608   4.077   1.211   5.072  0.0048  0.0271 -0.4255
17065TIP3   OH272609   4.395   4.264  16.037  0.0732 -0.9489 -0.0114
17065TIP3    H172610   4.424   4.177  16.065  0.3508  0.0853  3.3464
17065TIP3    H272611   4.472   4.320  16.047 -0.3592 -0.1059 -1.1829
17066TIP3   OH272612   4.289   1.794   5.950  0.6748  0.3446 -0.4062
17066TIP3    H172613   4.232   1.799   6.026  1.0247 -1.4137  0.0068
17066TIP3    H272614   4.342   1.873   5.955  0.5820  0.3339  1.0963
17067TIP3   OH272615   2.696   4.294   5.646 -0.3874 -0.5814  0.3722
17067TIP3    H172616   2.696   4.206   5.609 -1.6012 -0.4652  0.0664
17067TIP3    H272617   2.642   4.287   5.725 -0.1865 -0.1822  0.5494
17068TIP3   OH272618   3.914   5.481  11.851  0.0753 -0.4670 -0.1669
17068TIP3    H172619   3.924   5.397  11.806 -1.8460 -1.5999  1.3550
17068TIP3    H272620   3.999   5.496  11.893  0.6039 -1.4205 -0.8493
17069TIP3   OH272621   4.147   4.006  15.510  0.1909 -0.0332 -0.5371
17069TIP3    H172622   4.111   4.090  15.541 -1.0808  0.2249 -2.5042
17069TIP3    H272623   4.242   4.017  15.517  0.0290  1.1761  0.1881
17070TIP3   OH272624   5.769   0.755   0.199 -0.4073  0.0859 -0.6678
17070TIP3    H172625   5.798   0.842   0.228  0.5238 -0.0297 -1.2176
17070TIP3    H272626   5.792   0.752   0.106 -1.9228 -0.1438 -1.0641
17071TIP3   OH272627   1.310   0.854   6.461 -0.3528  0.2090 -0.0825
17071TIP3    H172628   1.226   0.807   6.455 -0.2279 -0.4092  2.1851
17071TIP3    H272629   1.285   0.944   6.482 -0.4549 -0.0634  1.0002
17072TIP3   OH272630   4.541   3.537  11.771  0.7728  0.2659  0.1855
17072TIP3    H172631   4.533   3.447  11.803 -0.1972 -0.1658 -1.2085
17072TIP3    H272632   4.623   3.568  11.809  1.5181 -1.4571  0.0863
17073TIP3   OH272633   2.869   4.426   6.516 -0.4026 -0.1353  0.2752
17073TIP3    H172634   2.912   4.508   6.490 -0.4546  0.1438  1.0431
17073TIP3    H272635   2.935   4.359   6.502  0.5149  0.3516  1.9450
17074TIP3   OH272636   1.334   1.569  16.599  0.0298  0.0108 -0.4541
17074TIP3    H172637   1.282   1.619  16.662 -1.0258  1.3587 -2.3062
17074TIP3    H272638   1.273   1.507  16.561  0.4966 -0.3463 -0.6309
17075TIP3   OH272639   1.666   2.305  12.774 -0.1770 -0.0623 -0.5470
17075TIP3    H172640   1.609   2.314  12.850  0.2677 -0.8572 -0.1049
17075TIP3    H272641   1.614   2.338  12.701 -0.9313 -0.1016 -0.0376
17076TIP3   OH272642   3.245   0.794  14.549  0.2287 -0.1213  0.2951
17076TIP3    H172643   3.203   0.734  14.488 -1.7545  0.0210  1.4205
17076TIP3    H272644   3.264   0.741  14.626  2.2737 -0.1944 -0.2184
17077TIP3   OH272645   4.881   5.186   1.963  0.1527  0.6835 -0.1119
17077TIP3    H172646   4.891   5.276   1.933 -3.2449  1.5798  0.9545
17077TIP3    H272647   4.844   5.139   1.888 -0.7168  0.9076  0.1665
17078TIP3   OH272648   6.797   5.680   2.863  0.6235 -0.5131  0.0759
17078TIP3    H172649   6.796   5.590   2.831  0.4710 -0.1538 -0.9701
17078TIP3    H272650   6.867   5.723   2.812 -0.1279  0.2618 -0.3311
17079TIP3   OH272651   2.598   3.778   2.413  0.3594  0.1796  0.4347
17079TIP3    H172652   2.636   3.863   2.433  1.4048 -0.1331 -0.1769
17079TIP3    H272653   2.539   3.761   2.487  0.8396  1.0109  1.0288
17080TIP3   OH272654   5.723   4.904  14.567  0.0523  0.5272  0.1150
17080TIP3    H172655   5.648   4.963  14.570 -1.3393 -1.0596 -1.3658
17080TIP3    H272656   5.788   4.951  14.514 -0.4294  1.3470  0.2303
17081TIP3   OH272657   1.750   0.911  16.483  0.1528  0.1815 -0.4894
17081TIP3    H172658   1.679   0.912  16.547 -0.5750  0.1554 -1.2839
17081TIP3    H272659   1.816   0.854  16.522 -0.4266 -0.1159  0.0766
17082TIP3   OH272660   6.459   3.260  14.322 -0.1954  0.0184  0.1427
17082TIP3    H172661   6.552   3.239  14.321  0.2815  2.0132 -0.5518
17082TIP3    H272662   6.431   3.241  14.412  1.4383  1.6142  1.0460
17083TIP3   OH272663   3.936   2.116  12.862 -0.2334 -0.2078 -0.6657
17083TIP3    H172664   3.874   2.173  12.907  0.8075  0.5349 -0.1434
17083TIP3    H272665   3.938   2.036  12.914  1.0569  0.6871  0.7232
17084TIP3   OH272666   4.059   2.972   1.386 -0.5551  0.0681  0.0385
17084TIP3    H172667   4.128   3.037   1.375 -1.0109  0.3715 -1.2959
17084TIP3    H272668   3.979   3.017   1.359 -1.2684 -0.3320  1.3822
17085TIP3   OH272669   1.168   2.782   1.808 -0.6392  0.3173 -0.0531
17085TIP3    H172670   1.085   2.759   1.765 -1.2074 -1.8278  1.9919
17085TIP3    H272671   1.169   2.729   1.888  3.0882 -0.4074 -0.3983
17086TIP3   OH272672   5.363   6.254   2.164 -0.4778 -0.4846  0.3116
17086TIP3    H172673   5.383   6.314   2.236  0.7084 -0.0535 -0.3426
17086TIP3    H272674   5.336   6.311   2.092 -2.1458 -0.9432  0.5249
17087TIP3   OH272675   4.125   5.290   2.082  0.0271 -0.5290 -0.2736
17087TIP3    H172676   4.156   5.377   2.109 -1.4657  0.0500 -0.3373
17087TIP3    H272677   4.189   5.261   2.017  0.7913  0.3267  0.0741
17088TIP3   OH272678   5.142   6.816   3.392  0.2680 -0.2319  0.2084
17088TIP3    H172679   5.112   6.860   3.313  0.0174  0.5158  0.7111
17088TIP3    H272680   5.080   6.844   3.460 -0.4160 -2.0285  0.3785
17089TIP3   OH272681   1.800   4.667   2.774 -0.2435 -0.3373  0.4026
17089TIP3    H172682   1.846   4.621   2.703 -0.8891 -2.0623  1.0568
17089TIP3    H272683   1.776   4.599   2.836 -3.3667  0.4782  0.2935
17090TIP3   OH272684   1.627   3.119  14.269 -0.4716 -0.5704  0.3443
17090TIP3    H172685   1.598   3.148  14.182  2.4474  1.9959  0.0722
17090TIP3    H272686   1.701   3.061  14.251  0.6603  0.6079  1.0768
17091TIP3   OH272687   5.201   5.714   0.432 -0.2451 -0.3836  0.4558
17091TIP3    H172688   5.217   5.778   0.363  0.9709 -0.5181  0.5984
17091TIP3    H272689   5.267   5.646   0.418  1.0336  0.3035  2.6227
17092TIP3   OH272690   2.950   1.180   1.863 -0.4855 -0.1469  0.2085
17092TIP3    H172691   2.920   1.097   1.898  1.5814 -0.3149  1.7492
17092TIP3    H272692   2.912   1.184   1.775  0.0287 -3.1138 -0.2592
17093TIP3   OH272693   3.842   5.321   0.879 -0.1328 -0.0435  0.8090
17093TIP3    H172694   3.891   5.400   0.901 -2.3961  1.2831  1.3733
17093TIP3    H272695   3.782   5.348   0.809 -1.1498 -1.1506  1.2138
17094TIP3   OH272696   0.394   5.260   2.145  0.1982  0.2041 -0.0531
17094TIP3    H172697   0.466   5.197   2.144 -0.0341 -0.0746  0.2574
17094TIP3    H272698   0.419   5.323   2.212  0.0646 -0.0048  0.1972
17095TIP3   OH272699   5.378   6.380  12.743 -0.4431 -0.1765 -0.1303
17095TIP3    H172700   5.429   6.441  12.796 -0.0414  0.7031 -1.4665
17095TIP3    H272701   5.349   6.432  12.668  3.6387 -2.4311 -3.7635
17096TIP3   OH272702   3.656   0.646   4.404  0.9534  0.0551 -0.2044
17096TIP3    H172703   3.730   0.591   4.425  2.0728  0.6603 -2.3130
17096TIP3    H272704   3.682   0.734   4.434  0.0387 -0.1392  1.2566
17097TIP3   OH272705   5.556   3.072   5.513  0.3696  0.1826 -0.4394
17097TIP3    H172706   5.564   3.158   5.554  0.0254  0.4430 -0.9026
17097TIP3    H272707   5.497   3.023   5.569 -1.4535  1.0847 -1.4490
17098TIP3   OH272708   1.097   4.037  11.884  0.1496 -0.5850  0.1341
17098TIP3    H172709   1.021   4.044  11.826 -0.1486 -0.2467  0.5570
17098TIP3    H272710   1.144   4.119  11.871  0.1353 -0.5508  0.2968
17099TIP3   OH272711   0.788   2.782  10.909 -0.2189  0.2066  0.1023
17099TIP3    H172712   0.846   2.791  10.833  0.4698 -1.6726  0.3431
17099TIP3    H272713   0.736   2.863  10.910  1.6017  1.4458 -0.7859
17100TIP3   OH272714   4.593   6.496   5.486  0.0399  0.4383  0.7912
17100TIP3    H172715   4.505   6.459   5.497 -0.4695  1.6052  0.7880
17100TIP3    H272716   4.579   6.591   5.482  1.2101  0.5889 -0.1946
17101TIP3   OH272717   6.031   1.993  12.925 -0.0207  0.1447 -0.0201
17101TIP3    H172718   6.034   1.945  13.008  0.0857 -0.3271 -0.2918
17101TIP3    H272719   6.070   2.078  12.944 -3.5127  1.6410  1.4510
17102TIP3   OH272720   4.078   2.849   0.962  0.1314  0.2734 -0.0001
17102TIP3    H172721   4.151   2.823   1.018  1.6046 -0.1864 -2.0276
17102TIP3    H272722   4.041   2.766   0.932 -0.7841  0.5097  0.4525
17103TIP3   OH272723   3.975   4.197  15.634  0.4898 -1.0308  0.3513
17103TIP3    H172724   4.039   4.263  15.662 -3.0327  3.0137 -0.1069
17103TIP3    H272725   3.935   4.166  15.715  0.1065 -0.2316  0.4815
17104TIP3   OH272726   6.538   0.208   3.506 -0.2754  0.3959  0.2515
17104TIP3    H172727   6.473   0.168   3.449 -0.5455  1.1062  0.0401
17104TIP3    H272728   6.503   0.197   3.594  0.1978 -0.8031  0.2977
17105TIP3   OH272729   6.515   0.206   5.242 -0.4778  0.2906 -0.0053
17105TIP3    H172730   6.548   0.278   5.188 -0.4798  0.8158  0.6756
17105TIP3    H272731   6.441   0.170   5.193 -1.1008  1.3916  0.1063
17106TIP3   OH272732   4.364   6.768   0.474 -0.1062 -0.0048 -0.0355
17106TIP3    H172733   4.330   6.697   0.420  0.4452 -0.0735 -0.2950
17106TIP3    H272734   4.431   6.810   0.420 -0.6137  0.8910  0.0061
17107TIP3   OH272735   6.548   0.518  14.295 -0.0481  0.3774 -0.4644
17107TIP3    H172736   6.601   0.524  14.216  0.2644  0.5194 -0.2457
17107TIP3    H272737   6.612   0.520  14.367  0.1894 -4.0973 -0.2144
17108TIP3   OH272738   0.737   3.773  16.615  0.3347 -0.2532  0.0658
17108TIP3    H172739   0.778   3.822  16.543  0.0971 -1.1396 -0.6896
17108TIP3    H272740   0.645   3.766  16.589 -0.0232  0.5307  1.0883
17109TIP3   OH272741   4.729   3.258  11.297  0.6525 -0.6638 -0.4181
17109TIP3    H172742   4.795   3.190  11.310 -0.4084 -1.9518 -1.4001
17109TIP3    H272743   4.733   3.279  11.204  1.1616  0.8705 -0.0798
17110TIP3   OH272744   0.039   6.776  16.689 -0.2729 -0.6566 -0.0834
17110TIP3    H172745  -0.023   6.837  16.729 -0.2806 -1.6297  1.4853
17110TIP3    H272746   0.101   6.832  16.642 -1.7520  0.3829 -0.8719
17111TIP3   OH272747   3.670   3.108  13.936  0.6798 -0.1997  0.0264
17111TIP3    H172748   3.581   3.089  13.967  1.4820 -1.1602  1.8626
17111TIP3    H272749   3.679   3.202  13.946  0.1936 -0.2218  0.7431
17112TIP3   OH272750   4.219   4.084  14.958 -0.1521  0.4357 -0.3545
17112TIP3    H172751   4.215   4.126  14.872  1.7745 -0.4695 -0.9299
17112TIP3    H272752   4.161   4.008  14.950  0.0579  0.3241 -0.8938
17113TIP3   OH272753   4.957   1.690   6.042  0.0030 -0.0778 -0.7389
17113TIP3    H172754   5.014   1.766   6.052  1.2704 -0.9028 -1.4880
17113TIP3    H272755   4.885   1.706   6.103 -0.1976  2.1064 -1.4604
17114TIP3   OH272756   4.731   5.968  16.446 -0.0183  0.3199  0.1468
17114TIP3    H172757   4.649   6.014  16.460 -0.3577 -0.5565  1.1606
17114TIP3    H272758   4.708   5.875  16.450  1.3235  0.0173  2.6926
17115TIP3   OH272759   0.631   6.392   3.964  0.1138  0.8117  0.0546
17115TIP3    H172760   0.632   6.372   3.870 -0.1085  0.3810  0.1422
17115TIP3    H272761   0.724   6.406   3.986  0.3151 -0.4278  0.0464
17116TIP3   OH272762   0.279   6.437   0.250  0.1262  0.4676  0.1430
17116TIP3    H172763   0.322   6.500   0.193  1.2980  0.2451  0.7481
17116TIP3    H272764   0.222   6.387   0.192  2.7359 -1.0700 -1.2850
17117TIP3   OH272765   4.725   1.966  16.947 -0.1675  0.0466 -0.3210
17117TIP3    H172766   4.743   1.941  16.857  2.5438 -1.1164  0.4531
17117TIP3    H272767   4.811   1.975  16.988 -1.2137 -2.5719  2.9253
17118TIP3   OH272768   6.398   3.110   4.375  0.1063 -0.4990 -0.2878
17118TIP3    H172769   6.454   3.050   4.424  0.1552  0.8501  1.4013
17118TIP3    H272770   6.431   3.198   4.397 -0.6466  0.2140 -1.8091
17119TIP3   OH272771   2.237   2.054   1.218  0.3913 -0.1161 -0.1465
17119TIP3    H172772   2.225   2.129   1.276  0.7743  0.4167 -0.7474
17119TIP3    H272773   2.328   2.028   1.230  0.2661 -0.4844  0.0483
17120TIP3   OH272774   6.333   5.630   3.076 -0.3217 -0.2419 -0.1638
17120TIP3    H172775   6.394   5.696   3.043 -1.3108  1.6867  1.6636
17120TIP3    H272776   6.246   5.661   3.050 -0.7879 -1.1160  0.2681
17121TIP3   OH272777   3.745   1.757   0.073 -0.6075  0.7847  0.3864
17121TIP3    H172778   3.751   1.734  -0.020  0.0378  0.0489  0.6006
17121TIP3    H272779   3.659   1.800   0.082 -0.4242  1.3921 -0.6529
17122TIP3   OH272780   1.903   3.420   3.958  0.1127 -0.0622 -0.1487
17122TIP3    H172781   1.874   3.440   4.047 -1.2602 -2.4843  0.0459
17122TIP3    H272782   1.821   3.404   3.910  0.8801  0.1938 -1.5766
17123TIP3   OH272783   0.311   6.092   4.391  0.0340 -0.6831 -0.0666
17123TIP3    H172784   0.374   6.133   4.449 -1.9195  1.0501  0.9530
17123TIP3    H272785   0.293   6.007   4.431 -0.1841 -0.1157  1.0737
17124TIP3   OH272786   5.003   4.099   5.700  0.0526 -1.0601 -0.2016
17124TIP3    H172787   5.037   4.045   5.628 -1.5198 -0.9636 -1.0458
17124TIP3    H272788   4.971   4.178   5.658  0.7126 -0.2222  0.8359
17125TIP3   OH272789   4.688   1.979  11.186 -0.1210  0.0147  0.1117
17125TIP3    H172790   4.776   1.943  11.186  0.5240  1.5327 -0.0424
17125TIP3    H272791   4.642   1.929  11.254  0.8806 -0.6859  0.3004
17126TIP3   OH272792   4.474   4.926  11.572  0.1209  0.4176 -0.1056
17126TIP3    H172793   4.474   4.859  11.641  1.9692 -0.3474 -0.7934
17126TIP3    H272794   4.408   4.989  11.600  0.1972 -0.3293  1.9054
17127TIP3   OH272795   3.849   2.300  15.469  0.3821  0.3904  0.1900
17127TIP3    H172796   3.852   2.268  15.559 -4.4239  0.1684  0.5733
17127TIP3    H272797   3.814   2.389  15.476  0.8804  0.7627 -1.4506
17128TIP3   OH272798   1.584   0.602   5.226  0.0101  0.5812  0.3305
17128TIP3    H172799   1.516   0.574   5.288  0.0880  0.7130  0.4766
17128TIP3    H272800   1.666   0.571   5.263  0.3547  2.8426  1.6362
17129TIP3   OH272801   2.685   5.013   3.396 -0.1313 -0.3498 -1.0285
17129TIP3    H172802   2.667   5.104   3.419 -0.8066 -0.9649  1.0778
17129TIP3    H272803   2.635   4.997   3.316  0.8577  1.3915 -2.0502
17130TIP3   OH272804   4.726   5.499   0.610 -0.6682 -0.3911 -0.3552
17130TIP3    H172805   4.734   5.593   0.626 -0.0220 -0.5754  0.4942
17130TIP3    H272806   4.814   5.470   0.588 -0.4559 -1.1078  1.2974
17131TIP3   OH272807   3.081   5.384   4.000  0.0791  1.1229 -0.2191
17131TIP3    H172808   3.155   5.407   3.944  0.8644 -1.5654 -0.3988
17131TIP3    H272809   3.063   5.465   4.049  1.5786  2.5397 -1.8465
17132TIP3   OH272810   1.174   3.142  16.858  0.0846  0.3555  0.1447
17132TIP3    H172811   1.130   3.224  16.882 -0.2814 -0.4590  2.5742
17132TIP3    H272812   1.264   3.153  16.889  0.1625  0.0246  0.0391
17133TIP3   OH272813   4.408   6.702  11.904  0.1080 -0.4148 -0.2844
17133TIP3    H172814   4.368   6.711  11.990  2.9086 -1.9059  1.3272
17133TIP3    H272815   4.347   6.647  11.855 -1.4504  0.2840  0.7811
17134TIP3   OH272816   1.016   6.451   2.221  0.5166  0.2246  0.2075
17134TIP3    H172817   1.015   6.479   2.313  0.2662  1.6981 -0.2273
17134TIP3    H272818   0.988   6.359   2.224 -2.9413  1.1723  1.3166
17135TIP3   OH272819   2.533   4.723  15.289 -0.1741  0.1925  0.2591
17135TIP3    H172820   2.514   4.650  15.229  1.4490  0.6853 -0.9274
17135TIP3    H272821   2.466   4.716  15.357 -0.0956 -2.4047  0.1800
17136TIP3   OH272822   3.881   3.912  14.733 -0.4782  0.3473  0.3661
17136TIP3    H172823   3.930   3.962  14.668  0.7540 -0.6975  0.4502
17136TIP3    H272824   3.867   3.973  14.805  1.9720  0.3301  0.9515
17137TIP3   OH272825   4.588   5.537   1.068 -0.2034 -0.0181 -0.0806
17137TIP3    H172826   4.619   5.526   0.978 -5.3771 -0.2786 -2.2096
17137TIP3    H272827   4.596   5.631   1.084 -0.2064  0.2150 -1.2804
17138TIP3   OH272828   4.132   6.356  15.041 -0.7475  0.2058  0.4916
17138TIP3    H172829   4.103   6.437  15.084 -2.5881 -0.5062  0.7141
17138TIP3    H272830   4.141   6.293  15.112 -1.1629 -0.2709  0.1285
17139TIP3   OH272831   3.274   3.049   1.574 -0.0676 -0.0828  0.2418
17139TIP3    H172832   3.253   3.010   1.490  1.3232 -0.0657 -0.1429
17139TIP3    H272833   3.239   3.138   1.569  2.5433  0.9806 -1.5552
17140TIP3   OH272834   0.049   4.777  12.421 -0.0827 -0.0492 -0.1094
17140TIP3    H172835  -0.003   4.749  12.496 -0.3494 -1.2467 -0.7151
17140TIP3    H272836   0.045   4.703  12.360  1.7870  0.0727 -0.4554
17141TIP3   OH272837   4.938   5.739  13.501 -0.9987 -0.2574 -0.0777
17141TIP3    H172838   4.977   5.796  13.568  0.5916  0.1381 -1.2639
17141TIP3    H272839   4.948   5.650  13.536 -0.4876 -0.0338  0.3561
17142TIP3   OH272840   3.600   2.554   1.932 -0.4883  0.2344 -0.2013
17142TIP3    H172841   3.505   2.565   1.927 -0.2665  1.9713 -2.5431
17142TIP3    H272842   3.635   2.628   1.882  2.0486 -1.4715 -1.1430
17143TIP3   OH272843   0.847   6.119   0.463  0.3977 -0.0809 -0.6524
17143TIP3    H172844   0.809   6.094   0.379  0.7984 -0.1130 -0.8224
17143TIP3    H272845   0.920   6.176   0.441 -0.3290  1.0315 -0.2797
17144TIP3   OH272846   0.520   2.416  10.356  0.1206 -0.2289  0.2469
17144TIP3    H172847   0.438   2.434  10.309  1.0481 -1.2592 -1.8374
17144TIP3    H272848   0.521   2.321  10.367  1.3467 -0.2901 -0.3301
17145TIP3   OH272849   4.523   1.770   5.447 -0.0316 -0.4579 -0.1834
17145TIP3    H172850   4.520   1.714   5.369  0.6216 -0.1563 -0.4347
17145TIP3    H272851   4.553   1.855   5.414  0.8924 -0.5001  0.4885
17146TIP3   OH272852   0.017   5.027   2.819  0.1160  0.9839 -0.1886
17146TIP3    H172853   0.000   5.120   2.802 -0.1809  0.8791 -0.4752
17146TIP3    H272854   0.037   4.990   2.733 -0.7937  0.5758 -0.2374
17147TIP3   OH272855   4.203   6.297   0.571  0.2595 -0.0003  0.4053
17147TIP3    H172856   4.209   6.205   0.547  0.9418  0.0915  0.1987
17147TIP3    H272857   4.210   6.345   0.489  0.4618  0.2493  0.5634
17148TIP3   OH272858   2.704   2.271  11.819 -0.8155 -0.2649  0.4428
17148TIP3    H172859   2.759   2.346  11.840 -0.5660  0.1225 -1.4556
17148TIP3    H272860   2.647   2.261  11.896 -0.0550  1.1048  1.2219
17149TIP3   OH272861   6.611   0.663   1.096 -0.4206 -0.4713  0.1988
17149TIP3    H172862   6.521   0.637   1.075 -0.6254 -0.0166  0.4998
17149TIP3    H272863   6.601   0.730   1.163  0.0248  1.4950 -1.5883
17150TIP3   OH272864   1.374   1.229  10.848 -0.4577 -0.5008  0.0816
17150TIP3    H172865   1.320   1.238  10.926 -0.8545  0.0081 -0.2511
17150TIP3    H272866   1.324   1.271  10.778 -0.6057 -1.8953 -0.6853
17151TIP3   OH272867   1.014   1.517   4.745  0.1000 -0.2660  0.4956
17151TIP3    H172868   0.938   1.574   4.756  0.3268  0.2526 -0.5573
17151TIP3    H272869   1.089   1.575   4.757  0.3359 -0.5857  0.5781
17152TIP3   OH272870   0.985   2.631   5.108 -0.1050 -0.5657 -0.5441
17152TIP3    H172871   1.030   2.675   5.181 -3.9657 -1.3850  2.6982
17152TIP3    H272872   1.032   2.547   5.099  1.6178  0.3322 -0.4005
17153TIP3   OH272873   4.111   0.552   5.617  0.0553  0.2212  0.3302
17153TIP3    H172874   4.108   0.624   5.554  0.9536  0.1282  0.1626
17153TIP3    H272875   4.193   0.507   5.598 -2.3800 -3.6716 -2.6437
17154TIP3   OH272876   0.415   1.399   4.648  0.0048 -0.5745  0.3667
17154TIP3    H172877   0.330   1.398   4.692 -0.0536 -2.5406  0.2915
17154TIP3    H272878   0.475   1.436   4.713 -0.5903 -0.8465  1.0871
17155TIP3   OH272879   2.346   2.519   0.476 -0.0238  0.1489  0.2004
17155TIP3    H172880   2.397   2.600   0.469 -0.0856  0.1329 -0.4994
17155TIP3    H272881   2.327   2.495   0.385  0.5954 -1.0383  0.3690
17156TIP3   OH272882   0.111   6.818  14.556  0.6251 -0.1980  0.8590
17156TIP3    H172883   0.156   6.776  14.630  1.6021  0.1432  0.4702
17156TIP3    H272884   0.167   6.891  14.533  1.0224 -1.0553 -1.0677
17157TIP3   OH272885   1.494   0.898   2.693 -0.5786 -0.1100 -0.3126
17157TIP3    H172886   1.499   0.810   2.655  0.7550  0.1979 -0.8956
17157TIP3    H272887   1.543   0.891   2.775 -1.0116 -0.0488 -0.0414
17158TIP3   OH272888   1.958   2.015   4.687 -0.1770  0.0091 -0.2959
17158TIP3    H172889   1.965   2.054   4.774  2.9044  0.0563 -0.4525
17158TIP3    H272890   1.939   2.089   4.629  0.9468  0.5212 -0.0277
17159TIP3   OH272891   4.253   1.639   3.780 -0.8030 -0.7619  0.6886
17159TIP3    H172892   4.240   1.722   3.825  2.1468 -0.2551  0.8493
17159TIP3    H272893   4.175   1.587   3.801 -1.7608  1.2041  2.3051
17160TIP3   OH272894   0.182   1.202   6.692 -0.2757 -0.1841 -0.1864
17160TIP3    H172895   0.101   1.171   6.652 -0.1917  0.1572 -0.6291
17160TIP3    H272896   0.230   1.122   6.715 -0.1542 -0.3861 -1.1165
17161TIP3   OH272897   5.391   2.822   1.644  0.6014 -0.5933 -0.5065
17161TIP3    H172898   5.323   2.813   1.578 -0.8824 -0.2671  0.8929
17161TIP3    H272899   5.398   2.917   1.659  1.6140 -0.5988 -0.8594
17162TIP3   OH272900   1.915   6.711   4.624  0.1727 -0.4118  0.2467
17162TIP3    H172901   1.940   6.792   4.668  1.2825 -0.5102 -0.1574
17162TIP3    H272902   1.993   6.687   4.574 -0.5289 -1.1365 -0.5152
17163TIP3   OH272903   3.110   1.528  16.569 -0.5773  0.6453  0.3588
17163TIP3    H172904   3.115   1.436  16.545 -1.4659  0.3734  1.1416
17163TIP3    H272905   3.016   1.549  16.563 -0.3743  1.5316  0.0754
17164TIP3   OH272906   0.088   1.311  11.669 -0.5450 -0.2929  0.7126
17164TIP3    H172907   0.021   1.373  11.640  1.0567  0.9798 -0.4718
17164TIP3    H272908   0.113   1.342  11.756  1.4645  1.9270 -0.5328
17165TIP3   OH272909   3.333   6.737   4.384 -0.1589 -0.0016 -0.2984
17165TIP3    H172910   3.270   6.730   4.455  0.1919 -0.4561 -0.0338
17165TIP3    H272911   3.299   6.809   4.329 -0.2806  0.5369  0.4672
17166TIP3   OH272912   0.880   3.361   2.857 -0.9820 -0.2900 -0.1944
17166TIP3    H172913   0.848   3.419   2.788 -0.7642  0.4934  0.3451
17166TIP3    H272914   0.819   3.374   2.930 -0.7094 -0.4518  0.0663
17167TIP3   OH272915   3.433   4.615  11.724  0.6008 -0.3351  0.3703
17167TIP3    H172916   3.483   4.634  11.645  1.8320 -1.3383  0.8887
17167TIP3    H272917   3.344   4.600  11.693  0.8732  0.1952 -0.7100
17168TIP3   OH272918   2.669   5.560  15.589 -0.0466  0.0065  0.1631
17168TIP3    H172919   2.746   5.542  15.535 -0.3005  0.7371 -0.4428
17168TIP3    H272920   2.685   5.511  15.670  0.6595 -0.5256 -0.2884
17169TIP3   OH272921   3.205   2.276  15.666 -0.3804  0.1684 -0.0605
17169TIP3    H172922   3.242   2.362  15.649 -0.3846  0.8424  2.7642
17169TIP3    H272923   3.278   2.215  15.653 -0.2633  0.6111 -1.6498
17170TIP3   OH272924   0.931   0.675  11.760  0.6379 -0.0071  0.2223
17170TIP3    H172925   0.939   0.769  11.776 -0.0377 -0.0147  0.6530
17170TIP3    H272926   1.021   0.645  11.744  0.6615  1.1145 -2.3437
17171TIP3   OH272927   6.155   6.408  13.610 -0.1876 -0.7420 -0.1694
17171TIP3    H172928   6.231   6.353  13.592  0.3347 -0.0110 -0.2295
17171TIP3    H272929   6.155   6.473  13.540  0.0627  0.2363  0.7140
17172TIP3   OH272930   0.822   3.882  12.078  0.8479  0.3666 -0.0967
17172TIP3    H172931   0.843   3.973  12.058  1.1556  0.5508  0.9730
17172TIP3    H272932   0.834   3.875  12.173  2.2305 -1.1446 -0.3398
17173TIP3   OH272933   2.338   5.434  16.159  0.3848  0.1674  0.3097
17173TIP3    H172934   2.414   5.476  16.197  0.3124  0.7644 -0.1873
17173TIP3    H272935   2.266   5.454  16.220  0.7675 -1.0935  1.2124
17174TIP3   OH272936   5.263   0.144  12.687  0.3032 -0.6390  0.1617
17174TIP3    H172937   5.335   0.166  12.746 -1.2944  1.2206  1.5314
17174TIP3    H272938   5.239   0.055  12.711  3.0124 -1.9350 -1.3620
17175TIP3   OH272939   2.675   0.488   2.276 -0.0734 -0.0438 -0.4091
17175TIP3    H172940   2.642   0.552   2.340  2.0102  0.1050  0.5916
17175TIP3    H272941   2.599   0.467   2.222 -1.4862  1.1604  1.0145
17176TIP3   OH272942   3.858   2.971   2.343 -0.0980  0.6928 -0.1184
17176TIP3    H172943   3.860   2.946   2.435 -1.1220 -0.8349 -0.4787
17176TIP3    H272944   3.765   2.987   2.325  0.2984  3.1799 -0.3714
17177TIP3   OH272945   0.648   5.850  15.908  0.3092 -0.5602  0.0229
17177TIP3    H172946   0.573   5.801  15.940 -0.2571  0.8905  1.0353
17177TIP3    H272947   0.723   5.794  15.926 -0.0827 -0.2220  3.1681
17178TIP3   OH272948   5.070   0.470  11.293  0.0266 -0.0644  0.2367
17178TIP3    H172949   5.014   0.430  11.227 -1.7548 -0.1284  1.6897
17178TIP3    H272950   5.037   0.435  11.376  3.3059 -1.3861  1.1189
17179TIP3   OH272951   4.629   5.552   4.567 -0.5091  0.8577 -0.1495
17179TIP3    H172952   4.676   5.545   4.483  0.2389 -1.2829  0.3966
17179TIP3    H272953   4.667   5.629   4.609  0.8747  0.5158 -0.7290
17180TIP3   OH272954   1.794   3.489  11.928 -0.1175  0.3962  0.2348
17180TIP3    H172955   1.842   3.531  12.000 -0.6044  0.3513  0.5886
17180TIP3    H272956   1.747   3.560  11.885  0.4386  0.4758 -0.2570
17181TIP3   OH272957   5.552   5.745   3.819 -0.6229  0.3979 -0.1851
17181TIP3    H172958   5.641   5.710   3.826  0.5381  3.1036 -0.3814
17181TIP3    H272959   5.541   5.764   3.726 -1.4329  0.1020 -0.1583
17182TIP3   OH272960   5.951   5.384   2.126 -0.1803 -0.7621  0.0446
17182TIP3    H172961   5.908   5.444   2.065  2.3929  0.5097 -0.6591
17182TIP3    H272962   5.890   5.378   2.200 -0.2005  3.7927  0.7306
17183TIP3   OH272963   5.455   2.443  14.688  0.7966  0.3134 -0.1603
17183TIP3    H172964   5.412   2.460  14.604 -0.0416  0.5925  0.3124
17183TIP3    H272965   5.519   2.513  14.698  1.8822 -0.4877 -1.1918
17184TIP3   OH272966   1.197   0.276   2.475 -0.0079  0.1166 -0.8404
17184TIP3    H172967   1.130   0.224   2.518  0.3254 -0.4415 -0.9920
17184TIP3    H272968   1.157   0.362   2.464 -0.6055 -0.1410 -0.7026
17185TIP3   OH272969   6.546   2.186   5.377 -0.1368 -0.4767  0.8383
17185TIP3    H172970   6.524   2.093   5.374  0.1090 -0.5176  0.3538
17185TIP3    H272971   6.549   2.206   5.471  0.7084 -1.1695  0.9705
17186TIP3   OH272972   5.960   0.449   3.818  0.3561 -0.3109 -0.0971
17186TIP3    H172973   5.891   0.511   3.842  0.5357 -0.5259  1.0527
17186TIP3    H272974   5.931   0.366   3.855  1.2974 -0.3713  0.5584
17187TIP3   OH272975   2.016   6.325   5.224 -0.0933 -0.2174 -0.3273
17187TIP3    H172976   2.093   6.375   5.251  2.8915 -1.5834 -5.0706
17187TIP3    H272977   2.049   6.236   5.209 -3.2700 -1.5537 -0.1851
17188TIP3   OH272978   0.870   4.515  14.537  0.0033 -0.1687 -1.0723
17188TIP3    H172979   0.832   4.592  14.494  1.0892  1.2462  0.4076
17188TIP3    H272980   0.831   4.514  14.624  2.9829  1.1839  0.4185
17189TIP3   OH272981   3.336   1.933  11.952  0.3507  0.0978 -0.5648
17189TIP3    H172982   3.284   1.905  12.028  0.5202 -1.1579 -0.8855
17189TIP3    H272983   3.298   1.885  11.878  0.6397  0.7686 -1.1618
17190TIP3   OH272984   3.267   2.049  16.894  0.0046  0.4522 -0.0746
17190TIP3    H172985   3.341   2.071  16.837  0.4886 -0.0942  0.3269
17190TIP3    H272986   3.283   1.957  16.918 -0.9989  0.2197 -0.2791
17191TIP3   OH272987   6.658   0.530   3.063 -0.3327  0.8204  0.1385
17191TIP3    H172988   6.681   0.617   3.031  0.3289  1.1491  1.4256
17191TIP3    H272989   6.712   0.470   3.012  0.8325  1.3422  0.7268
17192TIP3   OH272990   2.100   4.388  10.695  0.2086  0.3536 -0.0692
17192TIP3    H172991   2.059   4.446  10.630 -0.0035  0.6682  0.3420
17192TIP3    H272992   2.057   4.303  10.681  0.8432  0.1650 -0.9800
17193TIP3   OH272993   0.174   0.447   2.939 -0.3697  0.3547  0.4653
17193TIP3    H172994   0.226   0.473   3.016 -0.8039  1.2047  0.4781
17193TIP3    H272995   0.177   0.351   2.940  0.0540  0.3648  1.2534
17194TIP3   OH272996   6.185   0.551   5.026  0.1449 -0.4187 -0.0690
17194TIP3    H172997   6.157   0.474   5.074  0.9103  1.0534  2.9765
17194TIP3    H272998   6.105   0.586   4.986 -0.6042 -1.5085  0.4509
17195TIP3   OH272999   0.097   5.243   3.132  0.2402 -0.5352  0.1042
17195TIP3    H173000   0.191   5.230   3.141 -0.0587 -2.4064  1.3315
17195TIP3    H273001   0.070   5.177   3.069  0.2186  2.8080 -3.7617
17196TIP3   OH273002   3.105   4.647   4.978  0.0270 -0.0766 -0.2829
17196TIP3    H173003   3.138   4.608   5.059 -1.1619 -0.4437  0.0444
17196TIP3    H273004   3.043   4.714   5.007 -3.0949 -2.5046 -0.7895
17197TIP3   OH273005   4.108   1.823   6.172  0.7976  0.7053  0.2045
17197TIP3    H173006   4.121   1.879   6.249  2.0889  2.1987 -1.0175
17197TIP3    H273007   4.023   1.849   6.137  1.2056  1.6179 -0.1188
17198TIP3   OH273008   4.129   6.724  10.707 -0.6240  0.3612 -0.0307
17198TIP3    H173009   4.201   6.707  10.646 -0.1795 -0.0708  0.5963
17198TIP3    H273010   4.137   6.817  10.727 -0.0343  0.2602  0.2609
17199TIP3   OH273011   2.028   3.646   2.003 -0.0083  0.9200  0.5175
17199TIP3    H173012   1.975   3.571   1.979 -1.3992  1.4037  1.8688
17199TIP3    H273013   2.100   3.647   1.940  0.8383 -2.3174  1.2693
17200TIP3   OH273014   0.758   6.698  11.757 -0.4643 -0.4935 -0.3993
17200TIP3    H173015   0.662   6.696  11.762 -0.4761  0.7741  0.2602
17200TIP3    H273016   0.777   6.748  11.678 -0.3643  0.3326  0.1375
17201TIP3   OH273017   4.739   0.999  15.619  0.4878 -0.1363 -1.3761
17201TIP3    H173018   4.660   0.959  15.582  1.1846 -2.0050 -0.9552
17201TIP3    H273019   4.750   0.957  15.704  1.8475  0.2138 -1.3501
17202TIP3   OH273020   6.445   4.017  11.725 -0.0429  0.0047 -0.2352
17202TIP3    H173021   6.433   4.109  11.748  1.5657  0.3167 -0.5216
17202TIP3    H273022   6.400   4.007  11.640 -2.3462 -0.1297  0.9167
17203TIP3   OH273023   4.734   0.776   1.336  0.4128  0.7129 -0.5121
17203TIP3    H173024   4.772   0.688   1.325 -0.4305  0.3752 -0.7961
17203TIP3    H273025   4.809   0.832   1.357  1.0923  0.0951 -1.2235
17204TIP3   OH273026   0.427   1.922   6.133  0.1403 -0.4635 -0.1111
17204TIP3    H173027   0.412   1.885   6.219 -0.3472 -1.7838 -0.7431
17204TIP3    H273028   0.488   1.861   6.091  0.6224  0.3314 -0.6012
17205TIP3   OH273029   2.923   6.388   2.683  0.1189  0.7398  0.0111
17205TIP3    H173030   3.002   6.362   2.730 -0.7799 -1.5555  0.3913
17205TIP3    H273031   2.858   6.322   2.708 -1.8467  2.3856 -0.5181
17206TIP3   OH273032   1.653   4.244  13.979 -0.0923 -0.3654 -0.1048
17206TIP3    H173033   1.608   4.304  14.039 -1.0003 -1.2395  0.1331
17206TIP3    H273034   1.652   4.289  13.895  0.6702  0.6269  0.3901
17207TIP3   OH273035   0.045   0.954   0.757  0.1123 -0.2246 -0.1865
17207TIP3    H173036   0.060   0.916   0.844 -0.4077 -1.2443 -0.5321
17207TIP3    H273037  -0.042   0.923   0.732  1.1244 -1.8039 -2.0052
17208TIP3   OH273038   0.196   2.898   4.082  0.1170  0.4566 -0.5744
17208TIP3    H173039   0.214   2.930   3.994  0.1438  0.6565 -0.4982
17208TIP3    H273040   0.257   2.946   4.138  1.1011 -0.7162 -0.6029
17209TIP3   OH273041   3.040   0.178   0.595  0.5550  0.3693  0.2658
17209TIP3    H173042   2.964   0.223   0.558  0.7232  0.9291  0.5757
17209TIP3    H273043   3.046   0.211   0.685 -0.3148 -1.5554  1.0866
17210TIP3   OH273044   6.304   2.473   4.022 -0.2109 -0.0386 -0.3134
17210TIP3    H173045   6.270   2.558   4.051 -1.0767  0.1788 -1.8481
17210TIP3    H273046   6.399   2.481   4.030 -0.1921  1.5544 -1.6425
17211TIP3   OH273047   4.450   4.030  12.141  0.3669 -0.2793  0.0962
17211TIP3    H173048   4.461   4.097  12.209  0.7087  1.1651 -1.3216
17211TIP3    H273049   4.413   4.077  12.066 -1.0922 -2.0393 -0.3852
17212TIP3   OH273050   0.926   1.043  10.758 -0.0149  0.7808  0.4671
17212TIP3    H173051   1.020   1.026  10.760  0.3059  1.8930 -1.6895
17212TIP3    H273052   0.886   0.957  10.748  0.7622  0.2995  1.3750
17213TIP3   OH273053   1.657   1.153   1.343 -0.4003 -0.0514  1.0418
17213TIP3    H173054   1.660   1.209   1.265 -2.3153 -0.9791  0.2408
17213TIP3    H273055   1.747   1.151   1.375  0.1843  1.3842 -0.3988
17214TIP3   OH273056   2.348   0.873   3.416  0.1766 -0.2767  0.1596
17214TIP3    H173057   2.381   0.961   3.433  0.1103 -0.4036  0.9679
17214TIP3    H273058   2.306   0.846   3.498 -1.5603 -0.2853 -0.6900
17215TIP3   OH273059   3.819   4.580  11.238  0.4152 -0.1782  0.2277
17215TIP3    H173060   3.835   4.604  11.147 -0.4149 -1.1545 -0.1950
17215TIP3    H273061   3.879   4.507  11.255  1.7879  1.0973  1.0094
17216TIP3   OH273062   2.601   3.377   5.706  0.2132  0.4165 -0.1072
17216TIP3    H173063   2.633   3.425   5.783  2.3896  0.3634 -0.9008
17216TIP3    H273064   2.602   3.441   5.635 -0.2527  0.0715 -0.4343
17217TIP3   OH273065   0.268   0.453  17.018 -0.0853  0.2121  0.4986
17217TIP3    H173066   0.355   0.437  16.981 -0.3666 -0.3117  0.0554
17217TIP3    H273067   0.275   0.540  17.059  0.3447  0.6334 -0.4358
17218TIP3   OH273068   2.856   1.955   4.440 -0.1594 -0.1146  0.1452
17218TIP3    H173069   2.848   2.030   4.498 -0.3222  0.7843 -0.9949
17218TIP3    H273070   2.765   1.932   4.419 -0.0885  0.1684 -0.4897
17219TIP3   OH273071   1.985   0.714  16.129  0.3259 -0.7226  0.2315
17219TIP3    H173072   2.050   0.645  16.140  0.5129 -0.5782  0.0221
17219TIP3    H273073   1.913   0.688  16.187  1.9577  0.8438  3.2622
17220TIP3   OH273074   1.400   0.838  12.620 -0.8495 -0.1955  0.3258
17220TIP3    H173075   1.391   0.840  12.715  1.0972 -2.1243  0.6315
17220TIP3    H273076   1.329   0.781  12.591 -1.2824  0.1740  0.6448
17221TIP3   OH273077   1.609   2.458  10.239 -0.3411 -0.8099 -0.2617
17221TIP3    H173078   1.536   2.520  10.231 -0.2351 -0.7882 -1.2650
17221TIP3    H273079   1.573   2.384  10.288 -0.5291 -0.0549  0.7570
17222TIP3   OH273080   0.142   5.776  16.268 -0.1614  0.3124  0.4446
17222TIP3    H173081   0.082   5.809  16.335  0.5757 -1.1641  1.9040
17222TIP3    H273082   0.226   5.815  16.290  0.0077  0.1535  0.0918
17223TIP3   OH273083   1.012   0.600  13.054  0.3831 -0.0268 -0.3050
17223TIP3    H173084   0.955   0.601  12.978  1.5851 -1.2554 -1.2769
17223TIP3    H273085   0.955   0.577  13.127 -1.2194  3.1399 -0.3655
17224TIP3   OH273086   2.269   6.095   0.517  0.0637  0.1066 -0.2587
17224TIP3    H173087   2.257   6.010   0.559  0.8346  0.2590  0.2853
17224TIP3    H273088   2.363   6.113   0.524  0.1625  0.2914 -1.7740
17225TIP3   OH273089   5.825   1.860   5.111  0.0020  0.0194 -0.6136
17225TIP3    H173090   5.765   1.893   5.178 -1.3428 -2.0460 -0.7128
17225TIP3    H273091   5.852   1.775   5.144  2.5639  0.6702 -0.8219
17226TIP3   OH273092   4.627   5.485   1.338 -0.4012  0.6127 -0.2297
17226TIP3    H173093   4.645   5.466   1.246  1.3452 -1.5229  0.4739
17226TIP3    H273094   4.533   5.502   1.340 -0.7079 -0.4237 -2.2630
17227TIP3   OH273095   6.238   6.437  14.026 -0.4040 -0.3229  0.2286
17227TIP3    H173096   6.193   6.519  14.046 -0.3671 -0.4024  0.6455
17227TIP3    H273097   6.217   6.420  13.934  1.6141  1.4438 -0.6591
17228TIP3   OH273098   4.707   6.546   4.143  0.0210  0.3075  0.6603
17228TIP3    H173099   4.798   6.516   4.146 -0.0930 -0.3197 -1.0693
17228TIP3    H273100   4.700   6.608   4.215  3.1212  3.9247 -1.7634
17229TIP3   OH273101   3.555   0.381  14.798  0.2133  0.3468 -0.1979
17229TIP3    H173102   3.554   0.286  14.785 -0.5576  0.2772  0.3232
17229TIP3    H273103   3.524   0.394  14.887 -1.9352  1.1895 -1.0091
17230TIP3   OH273104   5.334   4.700   1.901  0.1936 -0.1578 -0.1523
17230TIP3    H173105   5.294   4.615   1.921  0.8476 -0.2042  1.0588
17230TIP3    H273106   5.305   4.757   1.972 -1.4193  1.0550 -1.7156
17231TIP3   OH273107   6.229   5.740   5.052 -0.5782  0.4345  0.5520
17231TIP3    H173108   6.143   5.705   5.073 -0.7625  0.9504  0.6801
17231TIP3    H273109   6.278   5.734   5.133 -0.0386 -1.1121  0.1494
17232TIP3   OH273110   3.413   3.764  14.944  0.2789 -0.6857 -0.1344
17232TIP3    H173111   3.506   3.784  14.940  0.3478 -1.1022 -0.6595
17232TIP3    H273112   3.403   3.686  14.891 -0.3140 -0.8553  0.2183
17233TIP3   OH273113   0.905   6.383  13.890  0.3446  0.2083  0.4814
17233TIP3    H173114   0.820   6.342  13.907  0.3384  0.3412  0.7965
17233TIP3    H273115   0.899   6.468  13.935  0.8957 -0.0760  1.1113
17234TIP3   OH273116   6.077   0.735   0.088 -0.5975  0.2392 -0.0278
17234TIP3    H173117   5.995   0.740   0.039  0.0383 -0.1013 -1.1501
17234TIP3    H273118   6.107   0.825   0.095 -0.7802  0.3055 -0.1031
17235TIP3   OH273119   4.198   4.825  14.774  0.0768 -0.4516  0.6080
17235TIP3    H173120   4.115   4.832  14.822  0.0083  0.1772  0.4090
17235TIP3    H273121   4.187   4.747  14.719 -0.4993 -0.2194  0.3808
17236TIP3   OH273122   0.794   0.547  13.194 -0.1806  0.8637 -0.0711
17236TIP3    H173123   0.743   0.613  13.240 -0.4584 -0.0057  0.9036
17236TIP3    H273124   0.732   0.505  13.135 -0.1660  0.9808 -0.1723
17237TIP3   OH273125   3.514   3.313  12.241 -0.7896  0.1484 -0.2814
17237TIP3    H173126   3.498   3.269  12.157 -0.6065  0.9303 -0.7344
17237TIP3    H273127   3.437   3.292  12.294 -1.9765  1.4248 -1.4066
17238TIP3   OH273128   3.563   5.692  16.462  0.1452 -0.2855  0.0014
17238TIP3    H173129   3.649   5.722  16.491  0.5353 -0.4343 -0.9753
17238TIP3    H273130   3.574   5.598  16.446 -0.1101 -0.2433 -0.4372
17239TIP3   OH273131   0.423   4.696   5.191 -0.0125  0.2365  0.3714
17239TIP3    H173132   0.420   4.684   5.285  0.8897 -0.4324  0.3317
17239TIP3    H273133   0.506   4.742   5.175  0.3137 -0.5219 -0.1753
17240TIP3   OH273134   4.616   6.355  16.493  0.0275  0.7638 -0.3510
17240TIP3    H173135   4.555   6.418  16.532  0.9233  1.8976 -0.7147
17240TIP3    H273136   4.629   6.387  16.403 -0.9321 -1.0153 -1.1718
17241TIP3   OH273137   2.683   2.225   3.503 -0.9324 -0.1551 -0.1874
17241TIP3    H173138   2.663   2.306   3.457 -1.4709 -1.1715 -1.8452
17241TIP3    H273139   2.778   2.218   3.501 -0.7896  1.0325  1.1101
17242TIP3   OH273140   4.598   4.282   2.306  0.1546  0.2808  0.2159
17242TIP3    H173141   4.657   4.209   2.323 -0.1764  0.2023  1.0737
17242TIP3    H273142   4.510   4.246   2.322 -0.0828  0.6154 -0.2670
17243TIP3   OH273143   2.606   1.481  11.438  0.5149 -0.2797 -0.3303
17243TIP3    H173144   2.675   1.415  11.438 -0.3096 -1.1612  0.4453
17243TIP3    H273145   2.596   1.507  11.529 -1.2345 -1.3239 -0.1770
17244TIP3   OH273146   4.288   4.784  16.103  0.3439 -0.0774  0.7624
17244TIP3    H173147   4.294   4.702  16.151 -0.3903 -0.5086  0.1455
17244TIP3    H273148   4.366   4.833  16.129  0.3847 -0.6400  1.7353
17245TIP3   OH273149   6.130   5.568  11.967  0.5036  0.3344  0.0556
17245TIP3    H173150   6.044   5.527  11.962  0.6726 -0.5294  2.7235
17245TIP3    H273151   6.179   5.530  11.895 -0.9228 -0.1859 -0.6847
17246TIP3   OH273152   0.070   2.348  15.227  0.7982 -0.4175 -0.0979
17246TIP3    H173153   0.159   2.383  15.224  1.0675 -1.1565 -2.1214
17246TIP3    H273154   0.075   2.265  15.179 -1.6505  1.2912 -3.7953
17247TIP3   OH273155   5.242   3.242   0.941 -0.0924  0.2350  0.2130
17247TIP3    H173156   5.203   3.176   0.884  0.7466 -0.9837  0.9909
17247TIP3    H273157   5.291   3.191   1.006  1.2821  1.6337  0.3331
17248TIP3   OH273158   4.382   4.298  12.696 -0.1849 -0.1312  0.9663
17248TIP3    H173159   4.290   4.324  12.693 -0.0304  0.4055  0.7776
17248TIP3    H273160   4.388   4.241  12.772 -0.3828  0.9913  1.8455
17249TIP3   OH273161   0.062   1.705   4.278  0.1522 -0.0739 -0.5982
17249TIP3    H173162  -0.005   1.644   4.247 -0.9940  1.0221 -0.3369
17249TIP3    H273163   0.023   1.747   4.355  1.6165 -0.2632  0.2814
17250TIP3   OH273164   5.337   4.617   3.327  0.2817 -0.2056 -0.1473
17250TIP3    H173165   5.261   4.575   3.285  1.6648 -0.6881 -2.3340
17250TIP3    H273166   5.413   4.576   3.285  1.7535  1.3059  0.9079
17251TIP3   OH273167   5.692   0.989  13.888 -0.0793 -0.0622 -0.0316
17251TIP3    H173168   5.711   0.914  13.945 -2.3265 -0.1808  0.6366
17251TIP3    H273169   5.597   0.995  13.887  0.0130  2.0122 -1.1287
17252TIP3   OH273170   3.006   6.550  11.999 -0.2665  0.5021 -0.3178
17252TIP3    H173171   2.951   6.618  12.037 -0.5725 -0.4457  0.9984
17252TIP3    H273172   3.068   6.528  12.069 -0.0737 -0.4569 -0.7786
17253TIP3   OH273173   4.269   1.706  14.295 -0.1631 -0.3309  0.0619
17253TIP3    H173174   4.274   1.646  14.220  0.6838  1.0880 -1.0735
17253TIP3    H273175   4.328   1.778  14.272  0.8508 -0.2804  2.5342
17254TIP3   OH273176   2.976   2.886  15.061  0.0454 -0.1472  0.0716
17254TIP3    H173177   2.903   2.862  15.118 -0.0047 -1.2535 -0.4257
17254TIP3    H273178   2.985   2.981  15.071 -0.6532 -0.1732  1.0834
17255TIP3   OH273179   6.085   6.427  15.096  0.0425 -0.1195 -0.0527
17255TIP3    H173180   6.032   6.419  15.175  1.8839 -0.8697  1.1689
17255TIP3    H273181   6.087   6.521  15.078 -0.1527  0.0983  0.9859
17256TIP3   OH273182   3.799   6.748  11.521  0.8527  0.0430 -0.4413
17256TIP3    H173183   3.729   6.773  11.461  0.1580  0.8901  0.6784
17256TIP3    H273184   3.785   6.655  11.537 -0.1044  0.2289 -0.1358
17257TIP3   OH273185   0.369   4.389  11.159  0.3730  0.7996 -1.0244
17257TIP3    H173186   0.374   4.410  11.252 -0.2844 -0.7752 -0.6001
17257TIP3    H273187   0.282   4.419  11.131  0.7544  1.7122 -1.2686
17258TIP3   OH273188   3.656   5.487  10.842 -0.3758  0.2555  0.6702
17258TIP3    H173189   3.694   5.457  10.759  0.6305  1.7034  0.5604
17258TIP3    H273190   3.562   5.472  10.833 -0.1007 -1.3059  0.0178
17259TIP3   OH273191   5.163   1.236  13.127 -0.4509  0.0612 -1.0088
17259TIP3    H173192   5.111   1.296  13.181  0.1768  0.0862 -0.4096
17259TIP3    H273193   5.245   1.227  13.175 -0.5893 -1.4123 -1.0053
17260TIP3   OH273194   5.378   0.577   1.777 -0.3271  0.2885 -0.5052
17260TIP3    H173195   5.316   0.650   1.768 -0.7525 -0.0749 -0.5749
17260TIP3    H273196   5.402   0.577   1.869 -0.1606  0.6496 -0.5476
17261TIP3   OH273197   0.140   1.622   2.426 -0.2438  0.3089  0.0977
17261TIP3    H173198   0.218   1.676   2.434 -0.2235  0.5955 -1.5864
17261TIP3    H273199   0.174   1.536   2.401 -0.4583  0.4488 -0.6928
17262TIP3   OH273200   1.529   6.798  15.049  0.3195  0.1211 -0.4514
17262TIP3    H173201   1.589   6.782  14.976  2.2096  0.5138  0.9055
17262TIP3    H273202   1.558   6.883  15.085 -2.2090  1.1943 -0.7559
17263TIP3   OH273203   4.311   2.165   2.697  0.0023  0.2152 -0.1244
17263TIP3    H173204   4.285   2.120   2.777  2.4470 -1.2099 -0.0524
17263TIP3    H273205   4.262   2.248   2.699 -0.3491  0.0165  2.5842
17264TIP3   OH273206   6.640   5.685   5.613 -0.7747  0.2122  0.4867
17264TIP3    H173207   6.680   5.605   5.646 -2.6537 -0.8290  0.3537
17264TIP3    H273208   6.686   5.703   5.531 -0.9334 -1.2755  0.0349
17265TIP3   OH273209   4.962   4.485  14.395  0.6330 -0.0321 -0.6046
17265TIP3    H173210   5.019   4.562  14.395  0.8729 -0.1314  1.8279
17265TIP3    H273211   4.874   4.520  14.389  0.5876  0.7081  2.6064
17266TIP3   OH273212   4.245   4.110   1.417  0.4119  0.5205 -0.2010
17266TIP3    H173213   4.311   4.042   1.426 -0.9867 -0.8882 -0.0145
17266TIP3    H273214   4.240   4.126   1.323 -0.9248 -1.4679 -0.5361
17267TIP3   OH273215   1.274   5.294   0.847  0.3817  0.4049 -0.5151
17267TIP3    H173216   1.308   5.302   0.936 -0.2188  1.7348 -0.3871
17267TIP3    H273217   1.251   5.202   0.838  1.9949 -0.0950  0.1242
17268TIP3   OH273218   6.433   1.195   1.353  0.2100  0.0555  0.0341
17268TIP3    H173219   6.383   1.275   1.363  3.9740  2.8732 -1.2039
17268TIP3    H273220   6.496   1.214   1.284  2.5668 -3.2864  0.9553
17269TIP3   OH273221   2.144   0.085  11.035  0.4451  0.4847  0.3295
17269TIP3    H173222   2.099   0.093  11.118  2.5380  1.8164  1.4310
17269TIP3    H273223   2.215   0.023  11.052  0.1019 -0.2772 -0.8739
17270TIP3   OH273224   5.726   0.108  13.690 -0.5553 -0.1467  0.0950
17270TIP3    H173225   5.645   0.124  13.642  0.2908 -0.5063 -1.5219
17270TIP3    H273226   5.728   0.175  13.758 -2.2970 -0.2650  0.2902
17271TIP3   OH273227   0.487   4.286   4.594 -0.6511  0.2730  0.6723
17271TIP3    H173228   0.412   4.299   4.652  0.4306  2.1899  1.7012
17271TIP3    H273229   0.505   4.372   4.558  0.6908 -0.2776 -0.0480
17272TIP3   OH273230   1.563   4.525  15.927  0.0496  0.2697 -0.1807
17272TIP3    H173231   1.637   4.543  15.869  0.4905 -0.2150  0.2177
17272TIP3    H273232   1.486   4.539  15.873  0.2408  4.0258  0.2236
17273TIP3   OH273233   5.693   1.188  11.351 -0.3169  0.3230  0.6914
17273TIP3    H173234   5.640   1.204  11.272 -0.7121  1.0467  1.0938
17273TIP3    H273235   5.681   1.095  11.369 -0.6896  0.2746  0.2277
17274TIP3   OH273236   1.416   4.102   2.277 -0.3083  0.0452  0.5247
17274TIP3    H173237   1.381   4.056   2.201 -0.7824  1.1527  0.0414
17274TIP3    H273238   1.505   4.125   2.252 -0.1878 -0.3081  0.6295
17275TIP3   OH273239   6.123   6.161   6.119 -0.2378  0.7944  0.9585
17275TIP3    H173240   6.098   6.153   6.211 -0.5397 -0.7428  0.7828
17275TIP3    H273241   6.111   6.072   6.084  1.5613  0.9446 -0.1442
17276TIP3   OH273242   2.984   4.269   5.735 -0.2661 -0.7315  0.3663
17276TIP3    H173243   2.897   4.279   5.696  0.0768 -0.1216 -0.2792
17276TIP3    H273244   2.989   4.337   5.802 -0.1490 -0.5186  0.1421
17277TIP3   OH273245   4.545   0.411   1.174 -0.0578 -0.8210 -0.3131
17277TIP3    H173246   4.473   0.442   1.120 -1.4167 -0.4875  1.5931
17277TIP3    H273247   4.522   0.321   1.196  0.4157 -0.9073 -0.1508
17278TIP3   OH273248   1.844   5.314   3.567 -0.5139  0.1495 -0.2332
17278TIP3    H173249   1.863   5.239   3.623 -0.9224 -0.9862 -1.5562
17278TIP3    H273250   1.763   5.351   3.602 -0.1438  0.1761  0.6130
17279TIP3   OH273251   6.551   5.913   5.023  0.7478  0.3427  0.1565
17279TIP3    H173252   6.546   6.000   5.063  0.9883  1.1468 -1.4625
17279TIP3    H273253   6.463   5.899   4.986  1.4754  1.1785 -2.0341
17280TIP3   OH273254   6.360   5.319   6.285  0.2053 -0.1563 -0.1623
17280TIP3    H173255   6.448   5.327   6.248  0.1921 -1.9328 -0.6830
17280TIP3    H273256   6.306   5.380   6.234  1.4546  2.5772  1.5364
17281TIP3   OH273257   2.883   5.897  14.042  0.0900 -0.0065 -0.6631
17281TIP3    H173258   2.952   5.881  13.977  0.0555 -0.8130 -0.5045
17281TIP3    H273259   2.863   5.811  14.078  2.1050  0.6500  2.4692
17282TIP3   OH273260   1.168   4.136   3.827 -0.3979 -0.0768 -0.0750
17282TIP3    H173261   1.076   4.144   3.852  0.2613  0.2160  2.5053
17282TIP3    H273262   1.178   4.044   3.804 -1.3607 -0.0720 -0.5727
17283TIP3   OH273263   1.904   2.096  15.962 -0.1245 -0.6835  0.0326
17283TIP3    H173264   1.938   2.060  16.044 -1.2174 -1.1279  0.3048
17283TIP3    H273265   1.901   2.022  15.902 -0.4175 -0.6029 -0.0533
17284TIP3   OH273266   1.040   3.959   4.838  0.3178 -0.3601  0.0101
17284TIP3    H173267   1.118   3.905   4.844 -1.0976 -2.6915 -1.2086
17284TIP3    H273268   1.051   4.008   4.756  0.5678 -0.5697 -0.0822
17285TIP3   OH273269   0.198   1.789  14.685 -0.2726 -0.3225  0.0664
17285TIP3    H173270   0.131   1.745  14.736 -0.0420 -0.3786  0.3259
17285TIP3    H273271   0.279   1.741  14.704  0.4230  1.4430  2.0399
17286TIP3   OH273272   2.674   0.496  14.128  0.1961 -0.0596 -0.4568
17286TIP3    H173273   2.641   0.571  14.079 -0.0270  0.3573  0.3165
17286TIP3    H273274   2.596   0.459  14.171  0.1050 -1.4211 -1.7100
17287TIP3   OH273275   2.129   6.309   0.452 -0.3477 -0.4167 -0.0210
17287TIP3    H173276   2.179   6.229   0.462 -2.2570 -1.6997 -0.2452
17287TIP3    H273277   2.110   6.337   0.541  1.6453  0.7483  0.1147
17288TIP3   OH273278   2.431   5.520   3.355 -0.7236 -0.1058 -0.1762
17288TIP3    H173279   2.418   5.599   3.303  1.2635 -0.4350 -1.2497
17288TIP3    H273280   2.364   5.459   3.323 -1.9775  0.9517  0.3472
17289TIP3   OH273281   1.968   3.191  13.434 -0.0004  0.1660 -0.2224
17289TIP3    H173282   1.927   3.180  13.348  3.9737 -1.1015 -2.1938
17289TIP3    H273283   2.016   3.274  13.427  1.6291 -0.7072  0.1141
17290TIP3   OH273284   6.566   6.141   0.866 -0.7488  0.2902 -0.5555
17290TIP3    H173285   6.479   6.129   0.828 -0.5468  1.0790 -1.3270
17290TIP3    H273286   6.626   6.115   0.796 -0.3641  0.3085 -0.2343
17291TIP3   OH273287   2.234   2.964  11.080 -0.0593 -0.1936 -0.6571
17291TIP3    H173288   2.326   2.940  11.093  0.2317  0.4353 -1.4831
17291TIP3    H273289   2.189   2.881  11.066  0.5050 -0.4518 -0.9736
17292TIP3   OH273290   6.582   1.930  11.401  0.1012 -0.2687  0.9888
17292TIP3    H173291   6.561   1.883  11.321  1.0743 -2.3102  1.8560
17292TIP3    H273292   6.661   1.979  11.380 -0.2242  0.0269  0.4253
17293TIP3   OH273293   6.256   0.676  15.341 -0.2910  0.3853  0.0205
17293TIP3    H173294   6.285   0.744  15.279  0.2264  0.7064  0.6085
17293TIP3    H273295   6.308   0.691  15.419 -0.4305 -0.4745  0.2855
17294TIP3   OH273296   1.044   2.090  14.240  0.0359  0.4895 -0.4073
17294TIP3    H173297   1.022   2.011  14.290 -0.8808  0.2717 -1.1200
17294TIP3    H273298   1.136   2.078  14.215  0.2154  0.1489  0.3812
17295TIP3   OH273299   4.981   2.156  11.332 -0.0584  0.2944  0.0856
17295TIP3    H173300   5.053   2.215  11.355 -1.3276  0.8212  3.0678
17295TIP3    H273301   4.948   2.123  11.415 -0.9959 -2.8107 -1.3423
17296TIP3   OH273302   3.612   2.904  10.951  0.2897  0.3347  0.3199
17296TIP3    H173303   3.647   2.988  10.921 -0.0834  1.1784  2.1680
17296TIP3    H273304   3.546   2.881  10.886  1.5164  0.6337 -1.0971
17297TIP3   OH273305   2.076   2.855  12.012 -0.1757 -0.0068  0.4122
17297TIP3    H173306   2.027   2.916  12.069 -0.6091 -0.3037  0.3636
17297TIP3    H273307   2.124   2.912  11.952  1.2279  0.3612  1.8178
17298TIP3   OH273308   0.234   2.561  15.997 -0.5028  0.3222  0.0309
17298TIP3    H173309   0.163   2.512  15.956  1.4081 -2.1932 -0.5774
17298TIP3    H273310   0.302   2.566  15.929  0.7812  0.6255  1.2754
17299TIP3   OH273311   5.695   2.459   2.307  0.0153 -0.3542 -0.0523
17299TIP3    H173312   5.621   2.402   2.328 -0.9432  0.3725 -1.2993
17299TIP3    H273313   5.665   2.547   2.332  0.1732  0.0382 -1.1776
17300TIP3   OH273314   5.216   1.568   3.449 -0.4403  0.3061  1.3042
17300TIP3    H173315   5.137   1.621   3.439 -0.4074  0.0305 -1.2423
17300TIP3    H273316   5.194   1.504   3.516 -1.9787  0.9471  1.4506
17301TIP3   OH273317   5.454   1.183   3.616  0.0310  0.4720 -0.2625
17301TIP3    H173318   5.499   1.220   3.540  0.4740  0.4543 -0.0141
17301TIP3    H273319   5.410   1.105   3.583  3.3848 -1.8657  0.1741
17302TIP3   OH273320   3.683   3.701  14.038  0.4569  0.2203 -0.3647
17302TIP3    H173321   3.596   3.673  14.068 -0.4695  1.4211 -1.7602
17302TIP3    H273322   3.718   3.753  14.111 -0.7373  1.1154 -0.3939
17303TIP3   OH273323   4.979   5.361   3.164  0.3446  0.0978 -0.6355
17303TIP3    H173324   5.058   5.380   3.214  0.2236 -0.9274 -0.0150
17303TIP3    H273325   4.995   5.275   3.126 -1.2546 -1.1281  1.2465
17304TIP3   OH273326   5.260   4.572  12.264 -0.2100  0.1753  0.1330
17304TIP3    H173327   5.173   4.595  12.232 -1.4657 -3.2268  0.7309
17304TIP3    H273328   5.318   4.596  12.192 -1.2814  4.0628  0.3524
17305TIP3   OH273329   2.902   1.001  10.513 -0.3195  0.7494  0.3962
17305TIP3    H173330   2.890   1.050  10.432  1.6300  0.9123  0.1606
17305TIP3    H273331   2.886   0.910  10.489  0.9103  0.7150 -0.3654
17306TIP3   OH273332   2.123   5.468  12.704  0.2012  0.3652  0.4390
17306TIP3    H173333   2.213   5.498  12.693 -0.0726  1.0673  0.0499
17306TIP3    H273334   2.075   5.546  12.732 -0.2911  0.0046  0.6111
17307TIP3   OH273335   5.117   4.340   2.372  0.1743  0.4257 -0.5121
17307TIP3    H173336   5.169   4.287   2.312 -1.1977  0.5317 -1.8352
17307TIP3    H273337   5.153   4.428   2.364 -0.5595  0.6165 -1.8634
17308TIP3   OH273338   2.786   0.398   6.581  0.0922  0.1729 -0.2759
17308TIP3    H173339   2.764   0.460   6.512 -0.3472 -1.5280 -1.7588
17308TIP3    H273340   2.727   0.324   6.566 -0.0499 -0.2565  1.9847
17309TIP3   OH273341   1.221   5.400  12.455  0.2489  0.1150 -0.5522
17309TIP3    H173342   1.172   5.371  12.532  0.8810  0.6839  0.0789
17309TIP3    H273343   1.158   5.394  12.383 -0.6726  0.5730  0.1881
17310TIP3   OH273344   3.780   0.074   2.326  0.3657  0.1352  0.2000
17310TIP3    H173345   3.750   0.161   2.352  0.2008  0.1176  0.0738
17310TIP3    H273346   3.776   0.022   2.406  1.2242  0.4491  0.4523
17311TIP3   OH273347   1.398   2.572   4.977  0.1066 -0.0623 -0.2849
17311TIP3    H173348   1.332   2.592   5.043  0.2029 -0.0052 -0.2050
17311TIP3    H273349   1.454   2.506   5.019  0.0771 -0.1396 -0.3664
17312TIP3   OH273350   6.570   0.052   5.601 -0.0259 -0.7090 -0.2014
17312TIP3    H173351   6.629   0.056   5.676  0.6368 -2.5446 -0.5533
17312TIP3    H273352   6.483   0.042   5.639  0.4394 -3.1455  0.4130
17313TIP3   OH273353   6.694   4.025  15.438 -0.1408  0.2312  0.2172
17313TIP3    H173354   6.729   3.936  15.448 -2.6844 -0.9901 -0.9217
17313TIP3    H273355   6.743   4.062  15.364  0.3205 -0.5559  0.1192
17314TIP3   OH273356   1.409   4.328  16.245 -0.1476 -0.1033 -0.2139
17314TIP3    H173357   1.479   4.327  16.310 -0.8589 -1.4981  0.5832
17314TIP3    H273358   1.356   4.405  16.268  0.0588 -0.1287  0.3781
17315TIP3   OH273359   5.765   3.756  16.180 -0.4910  0.1444  0.0984
17315TIP3    H173360   5.813   3.760  16.097 -0.6959 -1.7552 -0.1461
17315TIP3    H273361   5.682   3.800  16.162  0.0799  1.1185 -0.2359
17316TIP3   OH273362   5.813   6.287  11.699 -0.5492 -0.1260 -0.3017
17316TIP3    H173363   5.887   6.241  11.659 -1.2120 -0.5746 -1.0287
17316TIP3    H273364   5.852   6.367  11.735  0.3748 -0.5877 -0.2455
17317TIP3   OH273365   0.656   0.772  17.017 -0.2082  0.5712  0.2937
17317TIP3    H173366   0.740   0.817  17.030  0.6245 -0.6208 -0.7125
17317TIP3    H273367   0.627   0.747  17.105  0.5453  0.8907  0.6371
17318TIP3   OH273368   3.593   5.980  13.793  0.4398 -0.2984 -0.1050
17318TIP3    H173369   3.622   6.031  13.868  2.0285  0.6656 -1.3080
17318TIP3    H273370   3.564   6.045  13.729  3.4671 -0.6721 -2.0685
17319TIP3   OH273371   1.497   1.990   1.560 -0.9408 -0.1867 -0.3925
17319TIP3    H173372   1.452   2.074   1.558 -0.5049  0.0466 -2.2410
17319TIP3    H273373   1.448   1.938   1.623 -0.9846  1.5638  1.0824
17320TIP3   OH273374   0.224   2.077  12.113 -0.1112  0.0883  0.0591
17320TIP3    H173375   0.203   2.037  12.029 -0.9926  0.0828  0.2737
17320TIP3    H273376   0.309   2.118  12.100 -0.4788  0.5448 -0.9921
17321TIP3   OH273377   4.058   6.244  12.015  0.6280  0.0676 -0.6690
17321TIP3    H173378   4.037   6.155  12.044  0.2244  0.9146  1.8830
17321TIP3    H273379   4.035   6.245  11.922  1.2186 -2.6464 -0.9282
17322TIP3   OH273380   6.505   0.316  16.085 -0.0264 -0.0361  0.1541
17322TIP3    H173381   6.570   0.251  16.058  0.2427  0.3972 -0.2640
17322TIP3    H273382   6.501   0.377  16.012 -3.0780 -1.6307 -1.1963
17323TIP3   OH273383   2.617   4.560   4.096  0.4367  0.1633 -1.0409
17323TIP3    H173384   2.650   4.485   4.045 -0.9961 -2.5379  1.6939
17323TIP3    H273385   2.689   4.582   4.155  0.1093 -0.5070 -0.3870
17324TIP3   OH273386   1.700   1.140   2.162 -0.0302  0.4378 -0.5334
17324TIP3    H173387   1.784   1.163   2.122  0.1525 -1.6370 -1.5007
17324TIP3    H273388   1.724   1.090   2.240 -0.2713 -1.3116 -1.5150
17325TIP3   OH273389   5.407   5.367   3.485  0.1506 -0.4676 -0.0685
17325TIP3    H173390   5.422   5.273   3.478  1.7426 -0.1384 -2.8242
17325TIP3    H273391   5.462   5.395   3.558  0.9565 -1.4739 -0.2653
17326TIP3   OH273392   6.089   5.855  13.775  0.1628 -0.0519 -0.1878
17326TIP3    H173393   6.088   5.781  13.714  0.8216 -0.2396  0.0207
17326TIP3    H273394   6.002   5.854  13.816  0.0007 -0.4119 -0.5411
17327TIP3   OH273395   3.255   4.517  16.902  0.8925 -0.2437 -0.3753
17327TIP3    H173396   3.204   4.438  16.882  0.8963 -0.2736 -0.2662
17327TIP3    H273397   3.189   4.586  16.910  0.6342 -0.6715  1.9118
17328TIP3   OH273398   4.113   6.773  14.101 -0.2491  0.3232 -0.0266
17328TIP3    H173399   4.196   6.820  14.098 -0.5241  0.7750 -0.5754
17328TIP3    H273400   4.125   6.699  14.042  0.1025 -0.1796  0.6588
17329TIP3   OH273401   1.409   5.599   1.904 -0.4456  0.6489 -0.0528
17329TIP3    H173402   1.334   5.586   1.962  0.3807  0.7443  1.0608
17329TIP3    H273403   1.435   5.510   1.878 -0.4593  0.5723  0.1928
17330TIP3   OH273404   1.244   6.138  16.976 -0.0278  0.1252 -0.1838
17330TIP3    H173405   1.292   6.056  16.985  1.1762  0.7285 -0.9621
17330TIP3    H273406   1.267   6.189  17.054 -1.8400 -0.7553  1.0082
17331TIP3   OH273407   1.547   4.068  13.349 -0.6031  0.6256 -0.3487
17331TIP3    H173408   1.562   3.998  13.412 -0.5719  0.5836 -0.4025
17331TIP3    H273409   1.522   4.144  13.402 -0.0281  0.7464 -0.2505
17332TIP3   OH273410   1.960   3.411   1.521 -0.1713  0.0061 -0.5112
17332TIP3    H173411   1.965   3.321   1.490 -2.2787  0.0183 -1.0324
17332TIP3    H273412   1.909   3.406   1.602 -0.9193  0.7890 -0.9168
17333TIP3   OH273413   6.348   6.176   2.846 -0.0798 -0.6325 -0.8476
17333TIP3    H173414   6.299   6.252   2.878  1.2197 -0.8438  1.9490
17333TIP3    H273415   6.317   6.163   2.756 -3.5598  0.4848  0.0409
17334TIP3   OH273416   2.950   6.374   1.131 -0.9714 -0.2251 -0.3704
17334TIP3    H173417   2.961   6.403   1.221  1.2089  1.7551 -1.1570
17334TIP3    H273418   2.957   6.279   1.135  0.4343 -0.1017  1.4322
17335TIP3   OH273419   5.631   0.591  14.772 -0.0055  0.0267 -0.0801
17335TIP3    H173420   5.674   0.608  14.688  0.0613  1.9814  0.3170
17335TIP3    H273421   5.701   0.561  14.830  0.1936 -0.0023 -0.3322
17336TIP3   OH273422   4.980   3.439  14.584  0.5945 -0.0852  0.2834
17336TIP3    H173423   5.006   3.363  14.636 -1.0736 -0.0960  1.1466
17336TIP3    H273424   5.002   3.514  14.640  0.6464 -0.0116  0.1634
17337TIP3   OH273425   0.178   4.768   6.396  0.4140  0.0060  0.2260
17337TIP3    H173426   0.090   4.786   6.363  0.1716  1.6253  1.6329
17337TIP3    H273427   0.230   4.753   6.317 -0.9650 -0.2938 -0.6642
17338TIP3   OH273428   2.622   3.579  13.932 -0.2150 -0.3652  0.0631
17338TIP3    H173429   2.573   3.497  13.936  0.3604 -0.8629 -1.9205
17338TIP3    H273430   2.558   3.644  13.904 -0.2396 -0.5705 -0.3719
17339TIP3   OH273431   3.267   1.228   0.170  0.2436  0.3812  0.0777
17339TIP3    H173432   3.327   1.243   0.096  0.6956  0.2941  0.4208
17339TIP3    H273433   3.185   1.268   0.142  0.6258  1.0275 -0.1616
17340TIP3   OH273434   6.673   2.867  11.475  0.3845  0.1987  0.1451
17340TIP3    H173435   6.741   2.925  11.509  0.6732 -1.3468  2.3822
17340TIP3    H273436   6.719   2.785  11.457 -0.6887 -0.5274  0.6461
17341TIP3   OH273437   2.153   5.616   5.700  0.3071 -0.5252  0.4136
17341TIP3    H173438   2.084   5.627   5.766 -0.1687  0.5401 -0.2226
17341TIP3    H273439   2.108   5.631   5.617  1.0960 -0.8936 -0.0853
17342TIP3   OH273440   1.174   3.718   0.787  0.0151  0.2882  0.5361
17342TIP3    H173441   1.117   3.771   0.843 -3.1453 -2.2565  0.0317
17342TIP3    H273442   1.135   3.727   0.699  2.1539  0.6640 -0.4256
17343TIP3   OH273443   2.163   6.452   3.979 -0.2238 -0.3969 -0.0753
17343TIP3    H173444   2.233   6.393   4.007  0.5209  0.3979 -0.2456
17343TIP3    H273445   2.082   6.409   4.008  0.4690  0.4633  3.4889
17344TIP3   OH273446   1.474   4.964   4.711 -0.2838 -0.2145 -0.2896
17344TIP3    H173447   1.519   5.001   4.634  0.3577  0.0481  0.2015
17344TIP3    H273448   1.427   5.038   4.749  0.2950 -0.0942  0.1977
17345TIP3   OH273449   4.677   5.505  15.391  0.2200  0.2787 -0.2366
17345TIP3    H173450   4.661   5.485  15.483 -0.7984  0.2593 -0.4058
17345TIP3    H273451   4.769   5.532  15.388  0.6949 -1.1559  0.5242
17346TIP3   OH273452   0.801   3.152  11.863 -0.2912 -0.2555  0.2736
17346TIP3    H173453   0.741   3.224  11.845 -0.1741  0.5621  2.7333
17346TIP3    H273454   0.748   3.089  11.912 -0.0318 -1.2144 -0.6537
17347TIP3   OH273455   3.186   4.165  16.397 -0.0910 -0.2248 -0.6091
17347TIP3    H173456   3.241   4.230  16.354 -0.4345  0.2969 -0.2739
17347TIP3    H273457   3.238   4.133  16.470 -0.5766  0.9566  0.2772
17348TIP3   OH273458   2.440   5.009   3.672 -0.6809 -0.4062 -0.2213
17348TIP3    H173459   2.385   5.031   3.748 -0.8412 -1.2531 -0.0840
17348TIP3    H273460   2.518   5.064   3.682 -1.2966  0.4639 -0.1683
17349TIP3   OH273461   4.459   1.659   0.902 -0.6652  0.1940 -0.2668
17349TIP3    H173462   4.484   1.566   0.902 -1.7194 -0.1096  0.4776
17349TIP3    H273463   4.506   1.695   0.977  0.1035  0.3760 -0.8259
17350TIP3   OH273464   3.181   1.753   0.164 -0.5757 -0.2309  0.1825
17350TIP3    H173465   3.125   1.830   0.172 -0.0777  0.1593 -0.0170
17350TIP3    H273466   3.133   1.694   0.107 -0.2721  0.5898 -0.9568
17351TIP3   OH273467   6.351   5.793  16.842 -0.0166  0.5751 -0.2543
17351TIP3    H173468   6.344   5.874  16.893 -0.3883  1.3673 -1.5229
17351TIP3    H273469   6.414   5.814  16.773 -0.2283 -0.1688 -0.6768
17352TIP3   OH273470   2.971   0.331  14.817 -0.1987  0.1698 -0.3061
17352TIP3    H173471   2.935   0.419  14.801  0.8504  0.5934 -0.3929
17352TIP3    H273472   2.898   0.272  14.798 -1.6511  1.0909  1.9827
17353TIP3   OH273473   3.810   4.298  15.444 -0.1789 -0.0881  0.3915
17353TIP3    H173474   3.879   4.266  15.502 -1.4671 -0.2059  1.9453
17353TIP3    H273475   3.814   4.393  15.453  0.9041  0.0085 -0.9123
17354TIP3   OH273476   4.297   5.520   5.345 -0.1088 -0.0678  0.5061
17354TIP3    H173477   4.232   5.487   5.282 -1.8334  2.1711  0.9608
17354TIP3    H273478   4.327   5.441   5.391 -1.8494 -1.3097 -0.3368
17355TIP3   OH273479   4.246   5.087   5.703 -0.2942 -0.5145  0.0808
17355TIP3    H173480   4.162   5.111   5.662  1.7829  0.6696 -4.0151
17355TIP3    H273481   4.284   5.022   5.643  1.4981 -1.4924  2.1532
17356TIP3   OH273482   3.542   3.164   7.127 -0.8074 -0.1011  0.3973
17356TIP3    H173483   3.562   3.198   7.039  1.0283 -1.0237  0.4053
17356TIP3    H273484   3.483   3.091   7.111 -1.7498  0.7022  0.0808
17357TIP3   OH273485   5.724   0.430   6.292  0.2183  0.7904  0.4041
17357TIP3    H173486   5.751   0.519   6.269 -0.9969  0.6163 -2.0049
17357TIP3    H273487   5.642   0.441   6.340 -0.7770  0.9576 -1.2745
17358TIP3   OH273488   5.438   1.710   0.575 -0.1125  0.5352  0.0369
17358TIP3    H173489   5.432   1.698   0.480 -0.7739  2.3142 -0.1762
17358TIP3    H273490   5.500   1.782   0.586  1.5397 -0.9769  1.0864
17359TIP3   OH273491   5.530   1.490   1.738  0.0921 -0.3800  0.2270
17359TIP3    H173492   5.525   1.402   1.777 -0.2869  0.7556  2.9276
17359TIP3    H273493   5.565   1.475   1.650 -0.4139 -3.2733  0.4251
17360TIP3   OH273494   2.878   1.634   5.376 -0.3869  0.1437 -0.1890
17360TIP3    H173495   2.917   1.627   5.289 -1.3522 -1.4860 -0.5272
17360TIP3    H273496   2.797   1.683   5.362  0.4051  1.5895  0.1436
17361TIP3   OH273497   0.220   6.193  12.999 -0.1247 -0.6583 -0.3359
17361TIP3    H173498   0.293   6.252  12.981 -0.0776 -0.5123  0.3045
17361TIP3    H273499   0.205   6.148  12.917  0.0805 -0.0174 -0.7332
17362TIP3   OH273500   2.343   5.243  10.521  0.2651  0.3985  0.6009
17362TIP3    H173501   2.270   5.217  10.577 -0.9576 -1.0689 -1.5047
17362TIP3    H273502   2.303   5.298  10.454  0.4878 -2.2586 -1.9273
17363TIP3   OH273503   3.652   2.263  11.028 -0.1368 -0.1586  0.2685
17363TIP3    H173504   3.701   2.216  11.096 -0.9054  0.8676  1.5796
17363TIP3    H273505   3.719   2.317  10.985  0.0883  0.5083  1.4004
17364TIP3   OH273506   6.074   6.262  14.426  0.8387  0.1088  0.1923
17364TIP3    H173507   6.146   6.223  14.474  1.1449 -0.2235 -0.5327
17364TIP3    H273508   5.998   6.252  14.485  1.3514  0.3734  0.9086
17365TIP3   OH273509   2.081   2.185   2.636 -0.1647 -0.6392 -0.5547
17365TIP3    H173510   2.051   2.142   2.556 -1.8445 -2.3253  0.8973
17365TIP3    H273511   2.096   2.114   2.697 -2.1308  0.7092  1.6653
17366TIP3   OH273512   5.890   3.706   2.495 -0.2891 -0.8793 -0.3093
17366TIP3    H173513   5.967   3.677   2.446 -0.0981  0.0871 -0.5990
17366TIP3    H273514   5.895   3.658   2.577  1.1751 -0.1220  0.0843
17367TIP3   OH273515   0.734   5.265  11.879  0.2822  0.7211  0.7631
17367TIP3    H173516   0.666   5.230  11.822  1.2188 -2.2333  1.2461
17367TIP3    H273517   0.687   5.315  11.946 -1.0927  1.4451 -0.6960
17368TIP3   OH273518   1.471   5.728  13.977  0.2304 -0.4471  0.3750
17368TIP3    H173519   1.519   5.811  13.970  1.9212 -1.4556 -0.4511
17368TIP3    H273520   1.428   5.733  14.062  2.2812  0.2679  1.4334
17369TIP3   OH273521   1.615   1.118  14.688  0.3162 -0.5837 -0.2153
17369TIP3    H173522   1.524   1.148  14.696  0.0519 -1.4011 -0.0385
17369TIP3    H273523   1.622   1.047  14.751  0.9002 -0.9562 -0.6942
17370TIP3   OH273524   6.759   6.069   1.415 -0.4835 -0.1139  0.1389
17370TIP3    H173525   6.838   6.070   1.360 -0.9299 -0.3526 -0.5194
17370TIP3    H273526   6.786   6.112   1.496  0.7862 -1.6324  0.5586
17371TIP3   OH273527   5.959   6.527  11.796  0.3197 -0.2654 -0.2675
17371TIP3    H173528   5.983   6.483  11.878 -2.2198 -0.0043  0.7247
17371TIP3    H273529   6.042   6.553  11.757  1.6734 -1.6058  1.5480
17372TIP3   OH273530   3.643   4.769  12.552  0.4214  0.1161 -0.4175
17372TIP3    H173531   3.713   4.832  12.532  1.8834 -0.8474  1.3448
17372TIP3    H273532   3.600   4.805  12.630  0.3178 -0.3386 -0.2617
17373TIP3   OH273533   1.613   4.463   4.232 -0.3372  0.0402 -0.6634
17373TIP3    H173534   1.692   4.515   4.216 -0.2725  0.1194 -0.0947
17373TIP3    H273535   1.616   4.442   4.325 -0.5229 -0.7298 -0.8276
17374TIP3   OH273536   6.684   2.124  10.983  0.2606 -0.3464  0.0567
17374TIP3    H173537   6.659   2.186  11.052  2.1782  1.0104 -0.3732
17374TIP3    H273538   6.602   2.084  10.956 -0.8825  1.0430  1.2926
17375TIP3   OH273539   4.030   6.294   5.180  0.1839 -0.7324  0.1906
17375TIP3    H173540   4.104   6.238   5.155  0.2280  0.0077 -1.5174
17375TIP3    H273541   3.971   6.237   5.228  2.5868 -0.9782  3.1242
17376TIP3   OH273542   5.804   2.951   4.129 -0.2634  0.1533 -0.3504
17376TIP3    H173543   5.722   2.995   4.150 -0.5343 -0.2205 -0.6125
17376TIP3    H273544   5.859   2.962   4.207 -1.5994 -2.0804  1.0080
17377TIP3   OH273545   3.648   3.693  13.313 -0.1853 -0.0327 -0.3596
17377TIP3    H173546   3.602   3.674  13.231 -0.8618  1.9626 -0.4845
17377TIP3    H273547   3.727   3.741  13.286  1.5926 -2.5895 -0.0674
17378TIP3   OH273548   1.944   5.400  10.993 -0.2087 -0.6957  0.2544
17378TIP3    H173549   1.935   5.359  10.907 -1.2052 -0.9353  0.4580
17378TIP3    H273550   1.989   5.334  11.046  1.4272 -0.1132 -0.3652
17379TIP3   OH273551   2.725   3.350   3.082  0.1888  0.0711  0.0920
17379TIP3    H173552   2.631   3.357   3.098  0.2878 -1.6053  1.7806
17379TIP3    H273553   2.732   3.333   2.988 -1.0576  1.7091 -0.3511
17380TIP3   OH273554   1.437   5.503   2.326  0.2813  0.1864  0.5969
17380TIP3    H173555   1.483   5.573   2.280 -2.6274  1.2710 -0.9432
17380TIP3    H273556   1.414   5.541   2.410  1.8005 -0.2549  1.2471
17381TIP3   OH273557   1.357   0.788   2.151 -0.3143  0.0119  0.4131
17381TIP3    H173558   1.395   0.717   2.203 -0.7993  0.1887  1.0231
17381TIP3    H273559   1.284   0.820   2.204  0.9217  2.1069  0.9490
17382TIP3   OH273560   4.619   1.847  10.691 -0.1936  0.1190  0.5763
17382TIP3    H173561   4.523   1.848  10.695 -0.2519 -1.8080  0.5849
17382TIP3    H273562   4.647   1.896  10.768 -1.1598  1.1817  0.2734
17383TIP3   OH273563   2.172   6.645  14.834 -0.5071  0.1138 -0.0320
17383TIP3    H173564   2.215   6.725  14.864  1.5014 -0.8449 -0.2456
17383TIP3    H273565   2.097   6.677  14.783 -0.2280  1.8290  0.5514
17384TIP3   OH273566   0.269   2.730   0.425  0.9095 -0.5525  0.5074
17384TIP3    H173567   0.277   2.707   0.333  2.2744  0.3271  0.3692
17384TIP3    H273568   0.305   2.656   0.473 -1.2234 -1.6973  0.4565
17385TIP3   OH273569   4.666   1.514   4.950 -0.3680 -0.4362  0.1814
17385TIP3    H173570   4.744   1.473   4.912 -1.5962 -1.0333 -1.8297
17385TIP3    H273571   4.656   1.471   5.035  0.8590 -1.1476 -0.0057
17386TIP3   OH273572   2.986   0.585   3.810 -0.0270  0.4628 -0.4377
17386TIP3    H173573   2.943   0.602   3.894  2.3498 -0.7735  1.1468
17386TIP3    H273574   2.937   0.513   3.772 -0.4849  0.2849  0.4549
17387TIP3   OH273575   0.776   2.311   2.336 -0.3611  0.2714  0.0579
17387TIP3    H173576   0.775   2.365   2.257  0.7267 -1.5224 -1.2590
17387TIP3    H273577   0.830   2.361   2.398  1.8951  0.1102 -1.6312
17388TIP3   OH273578   1.467   6.757   1.522 -0.3818  0.2823  0.3111
17388TIP3    H173579   1.561   6.745   1.513 -0.2210  2.1087 -0.9652
17388TIP3    H273580   1.454   6.851   1.524 -2.4378  0.4528 -4.5120
17389TIP3   OH273581   6.608   5.743   0.170  0.1170 -0.0615  0.2582
17389TIP3    H173582   6.526   5.780   0.202 -0.8617 -1.3636 -0.6138
17389TIP3    H273583   6.591   5.649   0.164  0.9806 -0.1420 -1.8519
17390TIP3   OH273584   1.211   5.702   2.099  0.0339 -0.4613 -0.8468
17390TIP3    H173585   1.245   5.773   2.043  1.0952 -1.0382 -0.9538
17390TIP3    H273586   1.231   5.730   2.188 -2.1436  0.7176 -0.6650
17391TIP3   OH273587   2.727   0.228  14.723 -0.5575  0.2551  0.5163
17391TIP3    H173588   2.682   0.284  14.660 -2.3005 -0.2424  1.2843
17391TIP3    H273589   2.698   0.139  14.702  1.6595 -0.3565 -0.2638
17392TIP3   OH273590   5.303   1.151  14.373 -0.8148  0.1009  0.2060
17392TIP3    H173591   5.309   1.223  14.436 -0.6616  0.1619  0.1235
17392TIP3    H273592   5.288   1.073  14.426  1.0063 -0.1144  0.4736
17393TIP3   OH273593   0.001   3.654   3.593 -0.4345 -0.4531  0.3020
17393TIP3    H173594  -0.070   3.713   3.568  2.0309  1.3651 -3.3555
17393TIP3    H273595   0.017   3.674   3.685 -2.5738  1.3816  0.3597
17394TIP3   OH273596   4.844   3.988  10.474 -0.0643  0.0841 -0.2013
17394TIP3    H173597   4.848   3.893  10.483  1.1784  0.0531 -0.9008
17394TIP3    H273598   4.872   4.021  10.559  0.7432 -0.1896 -0.3497
17395TIP3   OH273599   3.022   4.666  13.538 -0.0284 -0.5837 -0.0273
17395TIP3    H173600   2.993   4.627  13.455 -0.2466  0.4458 -0.4501
17395TIP3    H273601   2.954   4.730  13.559  0.7573  0.1891  0.2021
17396TIP3   OH273602   4.363   5.321  10.940 -0.0712 -0.0499 -0.7931
17396TIP3    H173603   4.436   5.304  10.880  2.1832  2.8386  0.8676
17396TIP3    H273604   4.372   5.255  11.008 -0.0280 -0.7123 -1.4333
17397TIP3   OH273605   4.687   2.230   0.922  0.6602  0.0523 -0.1600
17397TIP3    H173606   4.729   2.315   0.938 -0.6987  0.7109  0.1312
17397TIP3    H273607   4.654   2.204   1.008  0.1162 -0.2277 -0.4489
17398TIP3   OH273608   3.882   5.578   5.043  0.4419  0.1734 -0.0676
17398TIP3    H173609   3.787   5.566   5.042  0.1509  1.5369  2.7525
17398TIP3    H273610   3.895   5.666   5.008  0.7516 -0.1611 -0.8306
17399TIP3   OH273611   1.558   1.807  15.203 -0.2013  1.3440  0.0689
17399TIP3    H173612   1.466   1.820  15.224 -1.7406 -1.8024 -3.5978
17399TIP3    H273613   1.568   1.839  15.114  1.9020  0.4233 -0.0883
17400TIP3   OH273614   0.172   1.865   2.118 -0.1735  0.1616 -0.1264
17400TIP3    H173615   0.150   1.772   2.122 -1.3338  0.4593  0.8311
17400TIP3    H273616   0.111   1.901   2.054  0.3541  0.2506 -0.5829
17401TIP3   OH273617   1.611   4.612   4.888 -0.0757  0.1223  0.0590
17401TIP3    H173618   1.589   4.520   4.904 -1.3858  0.3749 -0.1525
17401TIP3    H273619   1.692   4.626   4.937  0.6192 -1.3542 -0.5978
17402TIP3   OH273620   3.858   0.721  11.839 -0.3177  0.4732 -0.5484
17402TIP3    H173621   3.764   0.738  11.847 -0.3000  0.5291 -0.4598
17402TIP3    H273622   3.863   0.632  11.803 -0.4021  0.4373 -0.4713
17403TIP3   OH273623   4.691   3.212  15.477 -0.6347  0.2065 -0.1253
17403TIP3    H173624   4.642   3.290  15.452 -0.5228 -0.0213 -1.1135
17403TIP3    H273625   4.714   3.226  15.569  0.1104  1.7338 -0.5075
17404TIP3   OH273626   0.728   4.104   3.207 -0.1311 -0.4218  0.0588
17404TIP3    H173627   0.687   4.051   3.138  0.7010 -1.6755  0.4717
17404TIP3    H273628   0.758   4.183   3.162 -1.5702 -0.1820 -0.5482
17405TIP3   OH273629   4.356   5.876   5.299  0.1660 -0.9777 -0.2054
17405TIP3    H173630   4.421   5.945   5.289 -0.5247  0.0197  1.7928
17405TIP3    H273631   4.321   5.863   5.211  0.6298  0.8947 -0.7014
17406TIP3   OH273632   3.926   0.137  14.066 -0.1954  0.1833  0.0008
17406TIP3    H173633   3.975   0.215  14.093 -1.8987  1.4424 -0.3822
17406TIP3    H273634   3.988   0.065  14.077  2.1036  1.8005 -1.4883
17407TIP3   OH273635   4.862   4.687   2.276  0.1548  0.4493  0.1888
17407TIP3    H173636   4.852   4.593   2.261  1.1102  0.4619 -0.7361
17407TIP3    H273637   4.788   4.727   2.230  0.6135  0.2216 -0.7682
17408TIP3   OH273638   2.045   6.554   4.306  0.1728  0.0001  0.0643
17408TIP3    H173639   2.124   6.587   4.265 -0.6689  1.5617 -0.3966
17408TIP3    H273640   2.042   6.461   4.283  0.1325  0.6271 -2.8142
17409TIP3   OH273641   0.376   1.348   2.407  0.4781 -0.3519  0.2231
17409TIP3    H173642   0.433   1.383   2.339  1.7606 -1.0909  0.8775
17409TIP3    H273643   0.399   1.397   2.486  0.7077 -1.1110  0.6441
17410TIP3   OH273644   1.157   0.237  11.685 -0.8712 -0.5170  0.2593
17410TIP3    H173645   1.190   0.156  11.724  2.2470  0.6419  0.2904
17410TIP3    H273646   1.113   0.208  11.605 -2.2161 -2.4156  1.5790
17411TIP3   OH273647   1.600   2.737   1.475 -0.3798 -0.0038 -0.0048
17411TIP3    H173648   1.516   2.782   1.471 -0.6579 -0.5978 -3.3031
17411TIP3    H273649   1.579   2.648   1.503 -0.5748  0.2872  0.8164
17412TIP3   OH273650   3.279   5.794  10.816  0.1802  0.2905  0.5346
17412TIP3    H173651   3.289   5.794  10.720 -0.2536 -2.5091  0.4021
17412TIP3    H273652   3.191   5.829  10.831 -0.5146 -1.0032 -0.2786
17413TIP3   OH273653   0.965   6.718  11.499  0.0115  0.2174 -0.1466
17413TIP3    H173654   1.010   6.713  11.583  0.6539  3.9120 -0.0875
17413TIP3    H273655   0.978   6.809  11.471 -1.2322 -0.5537 -3.6694
17414TIP3   OH273656   3.721   0.362   3.865 -0.3876  0.1445  0.0531
17414TIP3    H173657   3.804   0.350   3.909 -0.4742  2.4124  0.9668
17414TIP3    H273658   3.716   0.289   3.803  1.9936 -0.3609  0.3572
17415TIP3   OH273659   0.864   1.930   3.424  0.6537  0.0688 -0.2552
17415TIP3    H173660   0.897   1.870   3.357 -0.1552 -0.1738 -0.4481
17415TIP3    H273661   0.876   1.882   3.507  0.4471 -0.1687 -0.3613
17416TIP3   OH273662   4.184   6.100  14.106 -0.1841 -0.4492 -0.4010
17416TIP3    H173663   4.237   6.161  14.055 -0.1462 -1.0295 -1.0710
17416TIP3    H273664   4.102   6.093  14.057 -0.2130 -0.8817 -0.2959
17417TIP3   OH273665   5.255   0.943   0.357  0.3026 -0.3344  0.3115
17417TIP3    H173666   5.187   0.996   0.398  2.0334  1.8521  0.6068
17417TIP3    H273667   5.208   0.874   0.311 -2.1617  1.5194 -0.1779
17418TIP3   OH273668   1.130   0.968  13.412  0.0655 -0.7334 -0.5271
17418TIP3    H173669   1.152   1.041  13.470  1.3417 -0.9351 -0.7293
17418TIP3    H273670   1.167   0.891  13.454 -0.6956 -1.1721 -0.6502
17419TIP3   OH273671   2.583   4.425   4.633 -0.1052 -0.0550  0.1917
17419TIP3    H173672   2.517   4.465   4.575  0.7009 -0.6856 -1.2258
17419TIP3    H273673   2.554   4.334   4.642  0.9062 -0.5203 -1.0119
17420TIP3   OH273674   1.862   4.753   0.868  0.3956 -0.1137 -0.7775
17420TIP3    H173675   1.798   4.712   0.809  0.5730 -0.4093 -0.7693
17420TIP3    H273676   1.841   4.718   0.954  1.0638 -0.8318 -0.8970
17421TIP3   OH273677   6.194   3.143  11.995  0.1172 -0.1970  0.4934
17421TIP3    H173678   6.135   3.209  12.033 -0.3281 -0.7016  0.6816
17421TIP3    H273679   6.204   3.169  11.903 -0.7100 -0.3382  0.3645
17422TIP3   OH273680   2.993   5.627  13.533  0.9335  0.5686 -0.4316
17422TIP3    H173681   2.978   5.720  13.552  1.0143  0.4703  0.1383
17422TIP3    H273682   3.087   5.615  13.543  0.8458  0.2967  0.1110
17423TIP3   OH273683   3.859   4.082  14.954  0.1048 -0.0296  0.0500
17423TIP3    H173684   3.839   4.069  15.047  1.2136 -0.4886  0.2446
17423TIP3    H273685   3.809   4.160  14.929 -0.3391 -0.0036  0.9838
17424TIP3   OH273686   0.048   6.197   3.038  0.2344  0.0397  0.3907
17424TIP3    H173687   0.055   6.274   3.094 -1.1966  0.0369  0.6072
17424TIP3    H273688  -0.022   6.145   3.077 -0.2521 -0.3530 -0.9396
17425TIP3   OH273689   3.969   1.499   2.307  0.0642  0.0074 -0.7534
17425TIP3    H173690   3.981   1.495   2.212 -0.1684 -0.3496 -0.7712
17425TIP3    H273691   3.987   1.590   2.330  1.6895 -0.2401 -0.9258
17426TIP3   OH273692   0.493   1.946   0.254 -0.5379  0.1600 -0.0450
17426TIP3    H173693   0.496   2.015   0.321 -0.0051 -1.6313  1.8812
17426TIP3    H273694   0.549   1.877   0.288 -3.2312 -2.4367 -0.4407
17427TIP3   OH273695   3.515   6.715  11.740 -0.6871 -0.3751  0.3844
17427TIP3    H173696   3.594   6.670  11.709 -1.1090 -1.1491  0.4035
17427TIP3    H273697   3.533   6.808  11.726 -0.7693 -0.6745 -1.9764
17428TIP3   OH273698   2.960   6.058  14.257 -0.6430  0.2999 -0.1262
17428TIP3    H173699   2.927   5.979  14.214 -1.4372 -0.2128  1.3606
17428TIP3    H273700   3.038   6.081  14.207 -1.4996 -0.2672 -1.8158
17429TIP3   OH273701   6.711   0.697  16.582 -0.2857 -0.1316  0.4977
17429TIP3    H173702   6.660   0.633  16.532  0.5070 -0.5743  0.2367
17429TIP3    H273703   6.698   0.673  16.673 -0.2983 -0.4314  0.4187
17430TIP3   OH273704   1.987   4.237   2.592  0.0531 -0.5495  0.3535
17430TIP3    H173705   1.957   4.148   2.612 -0.0250  0.0376  3.4154
17430TIP3    H273706   1.932   4.265   2.519 -0.6287 -2.6221 -0.0039
17431TIP3   OH273707   3.799   3.541  11.269 -0.6324 -0.6423 -0.4690
17431TIP3    H173708   3.773   3.579  11.185 -2.4761  1.1000  0.7840
17431TIP3    H273709   3.894   3.546  11.270 -0.6847  2.1864 -1.2468
17432TIP3   OH273710   0.867   5.492  15.254 -0.3847 -0.2336  0.5940
17432TIP3    H173711   0.963   5.493  15.258 -0.4257 -0.4894  2.1007
17432TIP3    H273712   0.841   5.573  15.297 -0.8514  0.2325 -0.5294
17433TIP3   OH273713   6.676   3.495   3.845  0.3100  0.4377 -0.0604
17433TIP3    H173714   6.588   3.477   3.877  0.1241  0.0333 -0.7723
17433TIP3    H273715   6.668   3.490   3.749  0.8449  1.6197 -0.1831
17434TIP3   OH273716   6.789   4.630   4.477  0.5790 -0.1070  1.0731
17434TIP3    H173717   6.715   4.643   4.418  0.2480  0.6758  1.6563
17434TIP3    H273718   6.863   4.672   4.433  0.7572 -1.1074  0.3716
17435TIP3   OH273719   2.898   3.513   5.385 -0.1947 -0.1029  0.4986
17435TIP3    H173720   2.927   3.547   5.300 -0.6574 -2.6409 -0.7776
17435TIP3    H273721   2.892   3.591   5.441  1.4855  1.4918 -1.3550
17436TIP3   OH273722   4.681   0.077  11.179  0.3269  0.1590 -0.0811
17436TIP3    H173723   4.734   0.118  11.248  0.6483  0.6822 -0.6330
17436TIP3    H273724   4.734   0.085  11.100  0.0927 -0.7095 -0.3377
17437TIP3   OH273725   2.476   2.262   0.981  0.0889  0.5780 -0.3616
17437TIP3    H173726   2.571   2.256   0.984  0.0597  0.4319  1.1963
17437TIP3    H273727   2.445   2.174   1.002 -0.4090  0.4703 -1.4620
17438TIP3   OH273728   3.901   3.933   5.649  0.6792  0.1986  0.0066
17438TIP3    H173729   3.885   3.896   5.562  1.2992 -0.0918  0.0118
17438TIP3    H273730   3.818   3.920   5.696  1.0999 -1.9708  0.2872
17439TIP3   OH273731   4.055   3.556  11.221 -0.0889 -0.0249  0.2581
17439TIP3    H173732   4.120   3.512  11.165 -1.3836 -2.0078  0.2008
17439TIP3    H273733   4.105   3.585  11.297  1.1907  0.1630 -0.6203
17440TIP3   OH273734   1.372   5.823  11.198  0.4883  0.1592  0.2182
17440TIP3    H173735   1.344   5.866  11.117 -1.5169  1.9842  1.7372
17440TIP3    H273736   1.458   5.787  11.178  0.0753  0.5500 -2.6881
17441TIP3   OH273737   2.565   2.737   4.867  0.2892 -0.5648  0.2749
17441TIP3    H173738   2.621   2.677   4.818  1.0509 -0.6941  1.2643
17441TIP3    H273739   2.595   2.824   4.840  1.4232 -0.6283  1.2643
17442TIP3   OH273740   1.816   3.747   4.184  0.3163  0.1623  0.5539
17442TIP3    H173741   1.817   3.653   4.203 -0.0853 -0.1009 -0.6331
17442TIP3    H273742   1.729   3.763   4.147  1.3635  0.3527 -2.0993
17443TIP3   OH273743   0.915   5.296   5.140  0.3627 -0.3294  0.5321
17443TIP3    H173744   0.905   5.371   5.082 -2.5605 -0.8085  0.2796
17443TIP3    H273745   0.894   5.330   5.227 -1.5052 -0.8776  0.3438
17444TIP3   OH273746   1.661   0.625  14.760 -0.0986  0.1336 -0.0109
17444TIP3    H173747   1.716   0.582  14.825  0.2162  0.5582  0.0072
17444TIP3    H273748   1.573   0.625  14.798 -0.7315 -3.0137 -1.1887
17445TIP3   OH273749   4.697   5.670  12.053  0.0027 -0.5531  0.1381
17445TIP3    H173750   4.747   5.617  11.991  2.5253  2.2867 -0.5254
17445TIP3    H273751   4.761   5.695  12.121 -0.7267  2.2381 -0.0565
17446TIP3   OH273752   4.658   3.353  11.005 -0.2086  0.0519  0.1757
17446TIP3    H173753   4.596   3.280  10.999 -2.1810  1.3084  2.9147
17446TIP3    H273754   4.604   3.431  10.998  0.9361  1.2191  2.8829
17447TIP3   OH273755   6.172   3.800  12.150  0.4173 -0.2558  0.2812
17447TIP3    H173756   6.215   3.834  12.071 -0.5517  0.3692 -0.0104
17447TIP3    H273757   6.243   3.767  12.204  1.2928  0.9540 -0.0678
17448TIP3   OH273758   5.299   1.341   2.791  0.3948  0.0054 -0.3708
17448TIP3    H173759   5.382   1.388   2.786  0.8806 -0.7087  0.4904
17448TIP3    H273760   5.239   1.402   2.833  0.7492  0.1998 -0.1404
17449TIP3   OH273761   0.662   0.296  12.711 -0.0980  0.2038  0.1817
17449TIP3    H173762   0.637   0.383  12.679  0.2544  0.9924  1.8878
17449TIP3    H273763   0.584   0.242  12.699 -1.0614  1.3458  1.0301
17450TIP3   OH273764   2.446   4.411  16.540  0.9963  0.0912  0.0557
17450TIP3    H173765   2.433   4.503  16.515  0.5795 -0.3988 -1.6528
17450TIP3    H273766   2.534   4.390  16.509  1.0310 -0.1425  0.3039
17451TIP3   OH273767   6.574   4.545  14.356  1.0927 -0.6841 -0.4173
17451TIP3    H173768   6.565   4.604  14.282  1.0333  0.8774  0.7754
17451TIP3    H273769   6.644   4.485  14.331  2.0272  0.6813 -1.1825
17452TIP3   OH273770   4.130   6.402  11.386  0.3680 -0.5006  0.3366
17452TIP3    H173771   4.162   6.462  11.319 -2.1110  0.7906  0.1879
17452TIP3    H273772   4.148   6.315  11.351 -0.7129  0.1414 -1.9932
17453TIP3   OH273773   2.767   2.913  16.894  0.0951 -0.7089  0.2439
17453TIP3    H173774   2.830   2.912  16.966  0.6582  0.0201 -0.2196
17453TIP3    H273775   2.764   3.005  16.866 -0.2444 -0.9496 -0.5417
17454TIP3   OH273776   5.810   6.576   1.560  0.2946  0.1453  0.0427
17454TIP3    H173777   5.734   6.628   1.587 -0.7223 -1.3711  0.1998
17454TIP3    H273778   5.865   6.638   1.512 -1.2459  1.1783 -0.4649
17455TIP3   OH273779   2.593   0.274   1.822 -0.2150  0.1543 -0.4217
17455TIP3    H173780   2.569   0.333   1.749 -1.6855  0.4105  0.2296
17455TIP3    H273781   2.509   0.246   1.857  0.4765  0.1552  1.2875
17456TIP3   OH273782   3.187   3.920   5.629 -0.1334 -0.2270 -0.1782
17456TIP3    H173783   3.230   3.979   5.690 -0.1267 -0.7628  0.3466
17456TIP3    H273784   3.137   3.977   5.571 -1.2053  0.2312  1.1460
17457TIP3   OH273785   4.185   5.605  15.057  0.2306 -0.1201 -0.2015
17457TIP3    H173786   4.252   5.559  15.005  0.4391 -1.6691  1.3164
17457TIP3    H273787   4.141   5.535  15.106 -2.1605  0.9230 -0.7290
17458TIP3   OH273788   2.382   2.545  11.998  0.5726  0.1367 -0.4313
17458TIP3    H173789   2.317   2.511  11.937  1.5378 -0.0831 -1.3721
17458TIP3    H273790   2.459   2.562  11.944  1.3843  0.1574  0.6909
17459TIP3   OH273791   3.526   6.615  14.928  0.5751  0.2969 -0.4814
17459TIP3    H173792   3.484   6.683  14.875 -2.0823 -1.0261 -0.2395
17459TIP3    H273793   3.488   6.625  15.015 -1.6632 -2.7286 -0.9280
17460TIP3   OH273794   6.380   2.381  13.680 -0.0982 -0.1017  0.0545
17460TIP3    H173795   6.285   2.391  13.676 -0.1841 -0.0518  1.6373
17460TIP3    H273796   6.396   2.290  13.653 -0.4578  0.2390 -1.4093
17461TIP3   OH273797   6.777   2.147   2.585 -0.3800  0.6649 -0.4311
17461TIP3    H173798   6.797   2.159   2.678  0.5292  1.0790 -0.6726
17461TIP3    H273799   6.863   2.144   2.542 -0.8059  1.2643 -1.3554
17462TIP3   OH273800   6.244   4.156   0.427  0.3273 -0.1018 -0.1886
17462TIP3    H173801   6.279   4.240   0.397  0.6598 -0.4641 -0.8262
17462TIP3    H273802   6.309   4.124   0.490  1.0925 -0.7062 -1.2651
17463TIP3   OH273803   1.770   3.032   5.294 -0.0249  0.1342 -0.0762
17463TIP3    H173804   1.708   2.961   5.310 -0.4297  0.8364  1.6294
17463TIP3    H273805   1.790   3.025   5.200 -0.1571 -2.1112  0.0090
17464TIP3   OH273806   0.961   3.062  15.259 -0.6799 -0.2495 -0.2966
17464TIP3    H173807   0.994   3.090  15.174 -0.6697  0.3792 -0.0879
17464TIP3    H273808   0.991   3.129  15.320 -0.5063 -0.8053  0.2399
17465TIP3   OH273809   6.002   6.716   4.670  0.4333 -0.5827 -0.1585
17465TIP3    H173810   5.985   6.722   4.764 -1.6334 -2.0324 -0.3623
17465TIP3    H273811   6.079   6.660   4.662  0.3355 -0.8431  0.6622
17466TIP3   OH273812   3.376   5.953  16.722 -0.0519 -0.5794  0.0426
17466TIP3    H173813   3.401   5.999  16.803  0.8272  1.6650 -1.3975
17466TIP3    H273814   3.281   5.950  16.724 -0.1119  0.8256  0.4921
17467TIP3   OH273815   4.786   5.946   2.283 -0.0682 -0.2160 -0.3610
17467TIP3    H173816   4.765   5.885   2.353  4.6576 -1.5580  0.2410
17467TIP3    H273817   4.701   5.981   2.255 -2.5410 -2.7919  3.0642
17468TIP3   OH273818   3.852   5.259   5.820 -0.4215 -1.2267 -0.1726
17468TIP3    H173819   3.780   5.322   5.832 -0.3356 -0.7466 -1.9611
17468TIP3    H273820   3.920   5.289   5.880 -0.1008  0.8666 -1.4782
17469TIP3   OH273821   2.037   0.100   2.714  0.2518 -0.1274 -0.0955
17469TIP3    H173822   2.047   0.168   2.780 -0.6054 -0.3649  0.2997
17469TIP3    H273823   1.961   0.127   2.663  1.1202  0.2378 -1.2361
17470TIP3   OH273824   2.452   5.388  16.738 -0.1453  0.4317  0.1675
17470TIP3    H173825   2.545   5.378  16.717 -0.4659  0.5139 -1.4281
17470TIP3    H273826   2.407   5.333  16.674 -1.2219  0.7685  0.6129
17471TIP3   OH273827   1.149   1.095   2.830 -0.4345  0.3454  0.6171
17471TIP3    H173828   1.198   1.131   2.756 -1.2954 -0.2596 -0.2818
17471TIP3    H273829   1.068   1.145   2.832 -0.6369  0.0097  0.8252
17472TIP3   OH273830   5.998   3.363   2.409 -0.6789  0.1623 -0.2115
17472TIP3    H173831   5.947   3.349   2.329 -0.1454 -1.1341 -0.3400
17472TIP3    H273832   5.934   3.363   2.479 -1.0704  0.5782 -0.5619
17473TIP3   OH273833   0.967   5.698   5.042 -0.3217  0.2304  0.0996
17473TIP3    H173834   0.894   5.683   5.103 -1.8572  1.5881 -1.3190
17473TIP3    H273835   0.956   5.631   4.975  0.6688 -0.5131  0.6505
17474TIP3   OH273836   0.994   1.993  14.558 -0.0159 -0.2651  0.0347
17474TIP3    H173837   0.960   1.926  14.498  0.4478 -1.5990  1.1890
17474TIP3    H273838   1.087   1.998  14.537 -0.0158 -0.1249  0.0729
17475TIP3   OH273839   3.888   1.611  12.923  0.3715  0.2804 -0.2904
17475TIP3    H173840   3.799   1.621  12.958  1.1093  0.9126  1.5441
17475TIP3    H273841   3.916   1.525  12.953  0.0596 -0.3291 -1.6919
17476TIP3   OH273842   2.338   0.656   3.663 -0.4290 -0.0691 -0.5297
17476TIP3    H173843   2.427   0.675   3.693 -0.1186  3.0900 -2.9731
17476TIP3    H273844   2.281   0.694   3.731  0.2205  2.9736 -1.5362
17477TIP3   OH273845   6.820   1.836  16.876  0.1159  0.4899 -0.5833
17477TIP3    H173846   6.757   1.788  16.930  0.6181 -0.7782 -1.0813
17477TIP3    H273847   6.900   1.783  16.880  0.9633  1.7238 -0.5018
17478TIP3   OH273848   1.840   1.638   2.775  0.4858 -0.8101 -0.7815
17478TIP3    H173849   1.794   1.575   2.830  0.3828 -0.0832 -0.0034
17478TIP3    H273850   1.914   1.667   2.828  2.1861 -2.3260 -2.2075
17479TIP3   OH273851   5.525   6.246  16.457  0.0948 -1.1313 -0.1001
17479TIP3    H173852   5.537   6.325  16.509  0.8268 -1.9410  1.0269
17479TIP3    H273853   5.448   6.204  16.496  0.5351 -1.6471  0.2386
17480TIP3   OH273854   0.565   5.383  13.738 -0.2582  0.2717 -0.0907
17480TIP3    H173855   0.645   5.367  13.688  0.1917  1.9557  0.0338
17480TIP3    H273856   0.590   5.370  13.829  0.1910  1.8128  0.0367
17481TIP3   OH273857   1.776   2.818  12.055  0.6046 -0.0967 -0.2572
17481TIP3    H173858   1.823   2.761  12.115 -0.6482 -0.2661  0.6081
17481TIP3    H273859   1.756   2.763  11.980  1.7486 -0.0220 -0.6334
17482TIP3   OH273860   3.194   4.929   3.526  0.3012 -0.7048  0.0852
17482TIP3    H173861   3.169   4.884   3.606 -0.5369  0.6081  0.5767
17482TIP3    H273862   3.266   4.986   3.552  0.5232 -0.8242 -0.2609
17483TIP3   OH273863   4.905   3.632   6.169  0.3733  0.1264 -0.2829
17483TIP3    H173864   4.964   3.608   6.240  0.5626  2.3345  0.3730
17483TIP3    H273865   4.832   3.676   6.212  0.8031  2.0991 -1.4531
17484TIP3   OH273866   5.913   2.197  11.427  0.0728  0.4172 -0.2161
17484TIP3    H173867   5.868   2.242  11.356  1.1469  1.3844 -0.3033
17484TIP3    H273868   6.005   2.197  11.401  0.3547 -0.0350  0.7463
17485TIP3   OH273869   5.800   2.579  14.841 -0.2590  0.2570  0.2606
17485TIP3    H173870   5.741   2.615  14.776  0.8906  1.5823 -0.0825
17485TIP3    H273871   5.886   2.613  14.818  0.4806 -0.7631  1.3740
17486TIP3   OH273872   4.875   0.087   1.652 -0.6529  0.0256 -0.0815
17486TIP3    H173873   4.860   0.077   1.558 -0.8911 -0.4311  0.0063
17486TIP3    H273874   4.794   0.058   1.693 -0.1643 -0.8167  0.3173
17487TIP3   OH273875   2.547   1.619   2.529 -0.7145  0.1792 -0.2157
17487TIP3    H173876   2.561   1.702   2.482 -0.6505  0.7999  0.8563
17487TIP3    H273877   2.628   1.570   2.515 -0.3328  0.7390 -0.0104
17488TIP3   OH273878   0.959   0.074   2.015 -0.4757 -0.0956 -0.6646
17488TIP3    H173879   1.038   0.125   2.001  0.5692 -0.6995  2.3895
17488TIP3    H273880   0.890   0.139   2.027  0.0834  0.5077 -0.6912
17489TIP3   OH273881   4.978   5.295  15.739  0.1823 -0.1012  0.0416
17489TIP3    H173882   4.984   5.390  15.746  1.5413 -0.2166  0.8731
17489TIP3    H273883   5.066   5.264  15.760  0.6366 -1.4134 -3.2151
17490TIP3   OH273884   1.929   0.708  16.537 -0.1009  0.5174  0.2861
17490TIP3    H173885   1.945   0.689  16.629 -1.8654  0.2482  0.5759
17490TIP3    H273886   1.918   0.622  16.496 -0.2822  0.6625  0.0245
17491TIP3   OH273887   3.515   4.436  15.546  0.2716  0.1517  0.1956
17491TIP3    H173888   3.582   4.417  15.480 -0.4636 -0.5568 -0.3914
17491TIP3    H273889   3.466   4.354  15.553 -0.0933  0.4416  1.1203
17492TIP3   OH273890   0.255   5.436  13.234  0.2077 -0.3567 -0.4413
17492TIP3    H173891   0.311   5.397  13.167  0.3084  0.9781 -1.1727
17492TIP3    H273892   0.308   5.435  13.314 -0.0562 -2.3227 -0.2384
17493TIP3   OH273893   3.878   6.071  12.438  0.3815  0.2320 -0.4240
17493TIP3    H173894   3.956   6.103  12.393 -0.2232 -1.3721 -2.8096
17493TIP3    H273895   3.888   5.975  12.440 -2.1550 -0.1794 -2.2539
17494TIP3   OH273896   2.134   5.717   5.379  0.3423  0.0084  0.2327
17494TIP3    H173897   2.057   5.693   5.327 -0.8684  0.0817  1.9045
17494TIP3    H273898   2.141   5.812   5.369 -0.3101  0.1164  0.7316
17495TIP3   OH273899   5.849   6.161  14.555 -0.2334 -0.5615  0.6706
17495TIP3    H173900   5.842   6.073  14.518 -0.7573  0.2876 -1.4284
17495TIP3    H273901   5.770   6.170  14.609  0.2891 -1.6677  1.6711
17496TIP3   OH273902   1.037   2.685   6.142 -0.0223 -0.5654  0.4440
17496TIP3    H173903   1.044   2.688   6.238 -0.0670 -1.4963  0.4859
17496TIP3    H273904   1.070   2.770   6.113 -0.0683 -0.2467  1.2893
17497TIP3   OH273905   5.317   6.255   2.950  0.0143 -0.0806  0.4701
17497TIP3    H173906   5.328   6.209   3.033  0.6323 -2.1557 -0.6919
17497TIP3    H273907   5.396   6.308   2.941 -0.5675  1.0325  1.6891
17498TIP3   OH273908   6.701   6.590   2.124  0.4081  0.6573 -0.4683
17498TIP3    H173909   6.732   6.645   2.052 -1.2194  0.5413 -1.3036
17498TIP3    H273910   6.749   6.508   2.114  0.5648  0.8207 -1.1084
17499TIP3   OH273911   0.266   4.728   0.070 -0.1159 -0.3091  0.1975
17499TIP3    H173912   0.230   4.742   0.158 -0.4083  1.5949 -0.1984
17499TIP3    H273913   0.270   4.632   0.061 -0.0575 -0.5520  2.2801
17500TIP3   OH273914   5.304   0.564   4.225 -0.1440 -0.1292 -0.0533
17500TIP3    H173915   5.259   0.647   4.208  2.2165  0.7847 -2.6267
17500TIP3    H273916   5.367   0.585   4.293  0.2634  0.1522 -0.5082
17501TIP3   OH273917   4.315   2.610  14.762  0.4702  0.3687 -0.3852
17501TIP3    H173918   4.325   2.577  14.673 -0.8402 -0.6279 -0.2001
17501TIP3    H273919   4.393   2.580  14.809  0.3887 -0.5154 -0.8024
17502TIP3   OH273920   3.518   3.647  15.311  0.0688  0.1909  0.3385
17502TIP3    H173921   3.472   3.574  15.271  1.0937 -0.5247  0.4240
17502TIP3    H273922   3.485   3.649  15.401 -0.1507 -0.0001  0.2655
17503TIP3   OH273923   0.197   1.619  15.738 -0.1105  0.4255 -0.0358
17503TIP3    H173924   0.196   1.677  15.815 -0.6835 -0.1144  0.3721
17503TIP3    H273925   0.126   1.556  15.754  0.8330 -0.7132 -0.2354
17504TIP3   OH273926   3.280   0.042  12.946 -0.6927  0.2071  0.0399
17504TIP3    H173927   3.274   0.132  12.914 -1.9831 -0.5640 -2.1052
17504TIP3    H273928   3.190   0.017  12.966 -0.5216 -0.9785 -0.5490
17505TIP3   OH273929   4.845   6.339   3.671 -0.3541 -0.2918  0.2918
17505TIP3    H173930   4.913   6.405   3.684 -0.0681  0.1056 -2.5109
17505TIP3    H273931   4.790   6.346   3.749  1.7272  0.6695  1.7815
17506TIP3   OH273932   1.798   5.054  11.784 -0.0599 -0.4647 -0.5995
17506TIP3    H173933   1.886   5.089  11.777 -0.4428  0.5719 -0.2954
17506TIP3    H273934   1.746   5.124  11.824 -0.3807 -2.1323  2.1598
17507TIP3   OH273935   0.657   3.772   5.181 -0.4074  0.1748  0.4741
17507TIP3    H173936   0.707   3.696   5.152 -0.9718  0.1001 -0.3388
17507TIP3    H273937   0.702   3.802   5.260  1.5708  0.7561 -0.8173
17508TIP3   OH273938   0.955   3.749  14.809  0.7388  0.8092  0.2322
17508TIP3    H173939   0.909   3.692  14.748  1.2953  1.4934 -0.8525
17508TIP3    H273940   0.901   3.747  14.888  0.1809 -0.3522 -0.1483
17509TIP3   OH273941   4.074   6.274  15.307  0.3696  0.4461 -0.5043
17509TIP3    H173942   4.151   6.313  15.349  0.1860 -1.7315  2.0741
17509TIP3    H273943   4.008   6.270  15.376 -1.5225  0.6882 -2.2125
17510TIP3   OH273944   1.713   0.420   1.948 -0.5477 -0.1178  0.5241
17510TIP3    H173945   1.618   0.405   1.942 -0.4418 -0.5164 -0.5288
17510TIP3    H273946   1.733   0.476   1.873  0.4093 -2.2014 -0.9072
17511TIP3   OH273947   3.046   6.327  14.148  0.1355  0.2262  0.2898
17511TIP3    H173948   2.989   6.404  14.142 -1.8585 -1.1133  0.8663
17511TIP3    H273949   3.004   6.272  14.213  1.2650 -1.5459 -0.4213
17512TIP3   OH273950   6.026   1.893  16.503 -0.2629 -0.7262 -0.0501
17512TIP3    H173951   5.984   1.979  16.493 -1.1722 -1.3761 -2.5793
17512TIP3    H273952   6.108   1.912  16.549 -1.8731  1.0008  2.4310
17513TIP3   OH273953   5.127   1.575  15.931  0.3200 -0.2271  0.3988
17513TIP3    H173954   5.185   1.504  15.958 -0.2754 -2.4808 -3.5160
17513TIP3    H273955   5.039   1.538  15.939 -0.1039  0.5843 -0.3451
17514TIP3   OH273956   4.823   3.051   3.227 -0.6416 -0.4662 -0.0209
17514TIP3    H173957   4.908   3.091   3.244 -0.7947 -0.4274  0.6939
17514TIP3    H273958   4.761   3.123   3.233 -1.0541 -0.9522  2.4440
17515TIP3   OH273959   4.486   6.638  13.525 -0.2860 -0.1869  0.3759
17515TIP3    H173960   4.420   6.597  13.581 -1.0392 -1.3335 -1.2507
17515TIP3    H273961   4.519   6.567  13.470  0.2901  0.8870 -0.7326
17516TIP3   OH273962   5.601   5.975  11.804  0.1094  0.7342  0.0540
17516TIP3    H173963   5.573   6.046  11.862  0.8961 -0.8215  2.4919
17516TIP3    H273964   5.531   5.910  11.811  0.4609  0.3102 -0.3456
17517TIP3   OH273965   4.592   1.068  12.620  0.1620 -0.1384 -0.3664
17517TIP3    H173966   4.636   1.014  12.555  2.6220  1.7303 -0.4220
17517TIP3    H273967   4.599   1.018  12.702 -2.3657 -2.1993 -1.2886
17518TIP3   OH273968   0.316   4.680  11.811  0.0913 -0.2340 -0.0600
17518TIP3    H173969   0.246   4.624  11.778  0.6302 -2.2664  2.0220
17518TIP3    H273970   0.271   4.760  11.838 -1.0202 -0.4677 -1.1209
17519TIP3   OH273971   4.316   1.903   2.132 -0.3052  0.1175 -0.1337
17519TIP3    H173972   4.360   1.958   2.197 -0.7876  0.5698 -0.1883
17519TIP3    H273973   4.371   1.909   2.054  0.4991 -0.7485  0.3342
17520TIP3   OH273974   0.642   5.885  12.853 -0.1327  0.1839 -0.4620
17520TIP3    H173975   0.613   5.969  12.817  1.4672  0.9612 -0.0648
17520TIP3    H273976   0.737   5.896  12.864 -0.2963 -0.6153  2.4038
17521TIP3   OH273977   5.182   1.568   4.224 -0.2191 -0.6735  0.5199
17521TIP3    H173978   5.147   1.657   4.220  0.9954 -0.1957 -0.0909
17521TIP3    H273979   5.168   1.534   4.135  0.6242 -0.5580  0.3357
17522TIP3   OH273980   5.834   2.871  14.949 -0.4913 -0.5819  0.2424
17522TIP3    H173981   5.749   2.831  14.930 -0.1880 -0.9127 -0.4758
17522TIP3    H273982   5.835   2.882  15.044 -2.4690  2.0226  0.0803
17523TIP3   OH273983   6.000   5.881  13.253 -0.3908 -0.3635  0.1470
17523TIP3    H173984   5.971   5.967  13.223 -0.0434 -0.5710 -0.8142
17523TIP3    H273985   6.047   5.843  13.178  0.3139 -0.9883  0.8775
17524TIP3   OH273986   4.272   6.697   2.755 -0.1620 -0.0197 -0.0601
17524TIP3    H173987   4.223   6.752   2.816 -0.1247 -0.6285  0.5302
17524TIP3    H273988   4.267   6.742   2.671 -0.6284  0.5779  0.2918
17525TIP3   OH273989   4.560   2.668  13.785  0.0635  0.0102  0.2104
17525TIP3    H173990   4.617   2.674  13.861  1.7396 -0.6117 -0.9448
17525TIP3    H273991   4.554   2.758  13.752  1.6763 -0.1231 -0.5392
17526TIP3   OH273992   1.865   3.572  15.152  0.2015  0.1580  0.1704
17526TIP3    H173993   1.816   3.525  15.220 -0.4816 -0.5917 -0.8292
17526TIP3    H273994   1.861   3.664  15.180 -1.8410  0.1434  0.1097
17527TIP3   OH273995   3.656   6.100  14.705 -0.3961 -0.2705 -0.3852
17527TIP3    H173996   3.654   6.138  14.793 -0.0702  0.9089 -0.8587
17527TIP3    H273997   3.606   6.019  14.712 -0.4103 -0.1648  0.8746
17528TIP3   OH273998   4.215   6.129   5.601 -0.1151 -0.2127  0.6684
17528TIP3    H173999   4.123   6.140   5.574 -0.1106  0.1949  0.8015
17528TIP3    H274000   4.226   6.035   5.613 -0.1197 -0.4025 -0.7243
17529TIP3   OH274001   6.223   3.430   2.769 -0.6640 -0.2436  0.6951
17529TIP3    H174002   6.154   3.376   2.729  0.3413 -0.2143 -1.1824
17529TIP3    H274003   6.210   3.419   2.863 -1.4926 -2.4924  0.3877
17530TIP3   OH274004   4.940   1.139  12.357  0.1708  0.4871 -0.1211
17530TIP3    H174005   4.922   1.137  12.451  0.5174  1.8614 -0.0052
17530TIP3    H274006   4.984   1.056  12.339 -0.7372 -0.2053  0.7415
17531TIP3   OH274007   2.573   1.935   3.760 -0.1629 -0.5630  0.4788
17531TIP3    H174008   2.652   1.989   3.759  0.4292 -1.3892 -0.5040
17531TIP3    H274009   2.514   1.979   3.699 -0.5686  0.2011  1.4183
17532TIP3   OH274010   6.604   0.674   4.062 -0.0008  0.1603 -0.4377
17532TIP3    H174011   6.521   0.703   4.023 -0.2316 -0.4832 -0.4383
17532TIP3    H274012   6.582   0.592   4.107  0.5190  0.2795  0.0407
17533TIP3   OH274013   5.849   5.921  14.798  0.0157 -0.2453  0.0942
17533TIP3    H174014   5.878   6.007  14.766 -0.1616 -0.1875  0.0885
17533TIP3    H274015   5.847   5.930  14.893 -0.3995 -0.1159  0.0745
17534TIP3   OH274016   3.001   5.274   4.683  0.3580  0.3939  0.4467
17534TIP3    H174017   2.990   5.266   4.588  2.9713 -0.6127  0.1217
17534TIP3    H274018   3.078   5.330   4.693  0.1186  0.4812  1.9739
17535TIP3   OH274019   2.131   1.038   4.898  0.7180  0.0466 -0.3603
17535TIP3    H174020   2.037   1.019   4.905  0.6649 -0.1943 -1.5893
17535TIP3    H274021   2.147   1.102   4.968 -0.3915  0.2194 -0.2402
17536TIP3   OH274022   3.583   0.090  14.765 -0.1350 -0.2193 -0.1146
17536TIP3    H174023   3.625   0.006  14.785  1.6625  0.3749 -1.1550
17536TIP3    H274024   3.540   0.075  14.681 -0.7903 -0.4162  0.2529
17537TIP3   OH274025   5.555   5.605  11.516  0.0206  0.1428  0.2932
17537TIP3    H174026   5.577   5.513  11.503  0.1200  0.2682 -0.4706
17537TIP3    H274027   5.561   5.644  11.428 -2.9041  0.2413  0.0281
17538TIP3   OH274028   6.448   5.467  14.221  0.1455 -0.0957  0.3495
17538TIP3    H174029   6.369   5.487  14.272  1.3230  1.7435  1.5585
17538TIP3    H274030   6.473   5.379  14.252 -0.8356 -0.2696  0.7105
17539TIP3   OH274031   3.492   3.139  15.856  0.2305 -0.3824 -0.1475
17539TIP3    H174032   3.451   3.194  15.923 -0.6990 -1.1972 -0.0201
17539TIP3    H274033   3.459   3.175  15.773 -0.3855 -0.7379 -0.0648
17540TIP3   OH274034   5.930   4.886   3.043 -0.2611  0.2597  0.0808
17540TIP3    H174035   5.854   4.945   3.051  0.4500  1.7681 -2.9783
17540TIP3    H274036   6.004   4.939   3.072  0.1236  0.1366 -0.6769
17541TIP3   OH274037   1.734   5.260   4.777 -0.1059 -0.2663 -0.0899
17541TIP3    H174038   1.826   5.287   4.774 -0.2816  0.3186 -0.5609
17541TIP3    H274039   1.700   5.283   4.690 -0.6566 -0.6351  0.0227
17542TIP3   OH274040   3.416   3.422  11.267  0.0241  0.2311  0.6608
17542TIP3    H174041   3.409   3.479  11.344 -0.7684  2.0347 -0.6877
17542TIP3    H274042   3.358   3.461  11.202  1.9462 -0.2218 -1.4764
17543TIP3   OH274043   2.786   4.774   1.764  0.0964 -0.2181 -0.5006
17543TIP3    H174044   2.783   4.707   1.832 -0.0594 -1.1022 -1.3615
17543TIP3    H274045   2.731   4.844   1.797  0.0935 -0.5956  0.3206
17544TIP3   OH274046   2.163   1.418  10.679  0.0383 -0.2212 -0.0510
17544TIP3    H174047   2.070   1.440  10.675  0.3280  1.4178  1.0337
17544TIP3    H274048   2.183   1.382  10.593 -1.4597 -0.0191 -0.5212
17545TIP3   OH274049   5.661   3.202   6.163 -0.5306 -0.5793 -0.3580
17545TIP3    H174050   5.570   3.230   6.151 -0.5784 -1.2934 -1.7438
17545TIP3    H274051   5.655   3.116   6.204 -0.4254 -0.0661  0.8028
17546TIP3   OH274052   2.957   2.354   5.747 -0.2219  0.0599  0.1238
17546TIP3    H174053   2.982   2.300   5.672 -1.1295  0.5313 -0.5429
17546TIP3    H274054   2.877   2.398   5.719 -1.3486 -0.7517  1.8490
17547TIP3   OH274055   4.171   3.516   2.633 -0.2800  0.3297 -0.4525
17547TIP3    H174056   4.098   3.501   2.694  0.2075 -0.8612 -0.1324
17547TIP3    H274057   4.184   3.431   2.590 -0.1121  0.9455 -1.6801
17548TIP3   OH274058   5.379   1.879   2.116  0.2784  0.0144  0.3397
17548TIP3    H174059   5.373   1.796   2.069  0.8508 -0.0044  0.2963
17548TIP3    H274060   5.439   1.933   2.064 -0.9365  0.8717 -0.2309
17549TIP3   OH274061   3.525   1.546   5.724 -0.2822 -0.1892  0.3880
17549TIP3    H174062   3.531   1.470   5.782 -0.6395 -0.5343 -0.0116
17549TIP3    H274063   3.481   1.512   5.645 -3.0276  1.0136  1.2625
17550TIP3   OH274064   4.297   3.909  11.903 -1.0530  0.3211 -0.1585
17550TIP3    H174065   4.281   3.816  11.921  0.6029 -0.1768 -1.0120
17550TIP3    H274066   4.341   3.942  11.981 -1.6596  0.4206  0.1534
17551TIP3   OH274067   0.385   4.180  10.024  0.4294 -0.1641 -0.2872
17551TIP3    H174068   0.350   4.095   9.998  0.8021 -0.9117  1.5301
17551TIP3    H274069   0.314   4.221  10.074  0.3374  0.5141 -0.9470
17552TIP3   OH274070   0.479   0.155   1.764  0.4281 -0.1664 -0.4626
17552TIP3    H174071   0.413   0.189   1.704  0.8699  1.0242 -0.3096
17552TIP3    H274072   0.454   0.064   1.778 -1.7229  0.4867  0.3234
17553TIP3   OH274073   5.018   4.121  16.609  0.0913  0.1564 -0.4756
17553TIP3    H174074   4.929   4.086  16.607  0.1476 -0.2027  1.3051
17553TIP3    H274075   5.007   4.213  16.635  0.2975 -0.2907  1.2818
17554TIP3   OH274076   0.725   5.338  12.349 -0.2191 -0.1591  0.1469
17554TIP3    H174077   0.729   5.415  12.405  0.3359 -1.6109  2.2050
17554TIP3    H274078   0.674   5.274  12.399  0.6267 -1.6526 -0.8195
17555TIP3   OH274079   2.972   5.262   3.108  0.2102  0.1371  0.8402
17555TIP3    H174080   3.022   5.241   3.187  1.4594  0.7709  0.2564
17555TIP3    H274081   2.889   5.297   3.140  0.0209 -1.1940  1.8400
17556TIP3   OH274082   0.458   0.171   3.843 -0.2534 -0.0181 -0.2495
17556TIP3    H174083   0.365   0.171   3.862  0.0087  0.2262  1.1184
17556TIP3    H274084   0.481   0.079   3.833  0.0144 -0.3977  2.9849
17557TIP3   OH274085   4.428   1.390  11.458 -0.2669  0.2014  0.2930
17557TIP3    H174086   4.455   1.462  11.515 -0.3693 -0.0503  0.6645
17557TIP3    H274087   4.336   1.373  11.482  0.2999 -1.3160  1.5793
17558TIP3   OH274088   6.392   1.157   0.996 -0.4428  0.1340  0.5571
17558TIP3    H174089   6.353   1.161   0.909 -0.1093  0.4427  0.4169
17558TIP3    H274090   6.358   1.076   1.034 -1.3975  0.5087  0.5295
17559TIP3   OH274091   0.074   1.304  13.379  0.5559 -0.2532 -0.1742
17559TIP3    H174092   0.051   1.353  13.458 -0.7519  2.1577 -1.9191
17559TIP3    H274093   0.060   1.212  13.403 -2.6090  0.5256  1.5927
17560TIP3   OH274094   1.656   0.301   4.348  0.2543  0.7392  0.7788
17560TIP3    H174095   1.650   0.205   4.349  1.7144  0.6367  0.9885
17560TIP3    H274096   1.565   0.330   4.353 -0.4523 -0.6371 -1.8371
17561TIP3   OH274097   0.242   2.756   2.315 -0.1225  0.4820 -0.3279
17561TIP3    H174098   0.242   2.661   2.326 -1.1684  0.6016  0.8603
17561TIP3    H274099   0.319   2.787   2.363 -0.6703  0.3605  0.6458
17562TIP3   OH274100   0.689   1.717  15.118  0.0654  0.4094 -0.9861
17562TIP3    H174101   0.756   1.666  15.163 -0.7039 -0.7968 -1.1293
17562TIP3    H274102   0.732   1.799  15.095  0.7174  0.7502  1.2081
17563TIP3   OH274103   4.359   6.119   1.127 -0.5583 -0.0337 -0.1086
17563TIP3    H174104   4.420   6.136   1.055 -0.2444  1.3651  0.4455
17563TIP3    H274105   4.405   6.056   1.184 -1.2903 -2.0813 -1.6781
17564TIP3   OH274106   6.595   3.529   0.354  0.7979  0.1754  0.5150
17564TIP3    H174107   6.567   3.476   0.279  1.6132  1.4639 -0.7599
17564TIP3    H274108   6.515   3.542   0.405  0.3883 -1.4178  0.3319
17565TIP3   OH274109   1.303   6.726   6.342 -0.3717  0.4703  0.0877
17565TIP3    H174110   1.233   6.767   6.292 -0.4894 -1.1656 -1.1732
17565TIP3    H274111   1.354   6.800   6.376 -2.1684  1.6818  0.3234
17566TIP3   OH274112   0.309   0.537  12.137 -0.2113 -0.2114  0.6237
17566TIP3    H174113   0.258   0.586  12.201 -1.0856  0.6675 -0.6909
17566TIP3    H274114   0.291   0.445  12.158  1.0376 -0.0320  2.7892
17567TIP3   OH274115   3.065   4.159   1.519 -0.0936 -0.8987  0.3645
17567TIP3    H174116   3.107   4.184   1.600 -0.4001 -0.9710  0.5481
17567TIP3    H274117   3.099   4.072   1.499 -0.7877 -1.3195  0.9607
17568TIP3   OH274118   1.428   2.848   3.189  0.1115  0.8053  0.1136
17568TIP3    H174119   1.458   2.924   3.138  1.2904 -0.1197 -0.6114
17568TIP3    H274120   1.509   2.806   3.220 -0.5199 -0.2544  0.3638
17569TIP3   OH274121   5.930   4.403   2.273  0.5013 -0.2139  0.0194
17569TIP3    H174122   5.992   4.475   2.258 -1.2512  1.4171  0.1634
17569TIP3    H274123   5.921   4.361   2.187  0.5329  0.6330 -0.4120
17570TIP3   OH274124   1.744   0.729  15.484 -0.1350 -0.0210  0.3339
17570TIP3    H174125   1.790   0.700  15.405 -2.1086 -0.8885 -0.5625
17570TIP3    H274126   1.755   0.657  15.546 -2.4522 -1.4945 -0.8304
17571TIP3   OH274127   6.692   1.044  13.467  0.2413  0.2968  0.1026
17571TIP3    H174128   6.716   1.067  13.557  1.3938  0.2800 -0.1846
17571TIP3    H274129   6.749   0.969  13.446 -0.5550 -0.1777 -0.3859
17572TIP3   OH274130   4.483   1.083   2.889 -0.1645 -0.3545 -0.4000
17572TIP3    H174131   4.505   1.169   2.852 -0.8002 -0.5074 -1.1599
17572TIP3    H274132   4.478   1.099   2.983 -1.3578  0.7056 -0.6144
17573TIP3   OH274133   0.346   1.119   2.192  0.1884  0.3509 -0.2060
17573TIP3    H174134   0.339   1.182   2.263 -2.1855  0.8265 -0.8061
17573TIP3    H274135   0.327   1.034   2.233 -0.0577  0.4775 -0.0593
17574TIP3   OH274136   2.037   2.184  13.360  0.1634 -0.3457 -0.4637
17574TIP3    H174137   2.109   2.212  13.303  1.1001 -0.2431  0.7150
17574TIP3    H274138   2.061   2.218  13.447 -0.7521 -1.2694  0.1807
17575TIP3   OH274139   4.524   3.765   2.056  0.0925  0.3927  0.4817
17575TIP3    H174140   4.578   3.822   2.001 -1.7485  1.6318 -0.1740
17575TIP3    H274141   4.524   3.681   2.010  0.2794  0.8130 -0.3167
17576TIP3   OH274142   5.198   0.807   3.859 -0.1673 -0.0470 -0.2240
17576TIP3    H174143   5.177   0.726   3.812  1.5318 -0.6562 -0.0317
17576TIP3    H274144   5.270   0.845   3.808 -1.1673  1.5477 -0.4995
17577TIP3   OH274145   5.073   4.732  14.524  0.5592 -0.0363  0.3897
17577TIP3    H174146   5.027   4.674  14.584  0.3402 -0.3003 -0.0223
17577TIP3    H274147   5.018   4.810  14.518 -0.4034 -0.7565 -0.8865
17578TIP3   OH274148   3.314   0.087   2.226  0.1853 -0.0036  0.1139
17578TIP3    H174149   3.379   0.157   2.220  0.0581  0.1179  0.1540
17578TIP3    H274150   3.242   0.126   2.275 -0.5820  0.3648 -1.2721
17579TIP3   OH274151   0.056   6.423  13.439  0.3362 -0.0947  0.0927
17579TIP3    H174152  -0.011   6.492  13.438 -0.7756 -1.1089  0.7849
17579TIP3    H274153   0.095   6.427  13.352 -1.4469 -0.2010 -0.7752
17580TIP3   OH274154   0.140   4.451  11.949  0.4540  0.0675  0.5912
17580TIP3    H174155   0.221   4.440  11.899  1.6331  0.9003  2.2012
17580TIP3    H274156   0.076   4.396  11.904  2.1957 -1.4758 -0.1470
17581TIP3   OH274157   1.151   1.034   3.600 -0.3425  0.1337  0.1354
17581TIP3    H174158   1.183   1.100   3.662  0.3139  0.4662 -0.5456
17581TIP3    H274159   1.199   1.052   3.519 -0.0786 -1.2492 -0.0286
17582TIP3   OH274160   5.150   3.257   0.547 -0.7822  0.3471  0.4607
17582TIP3    H174161   5.083   3.248   0.478 -1.2195 -1.3671  1.0403
17582TIP3    H274162   5.233   3.243   0.502 -0.8164  2.0251 -0.1840
17583TIP3   OH274163   3.887   3.670   6.123 -0.2142 -0.0321 -0.7757
17583TIP3    H174164   3.929   3.734   6.065 -1.3025  1.8017  0.3593
17583TIP3    H274165   3.798   3.662   6.090  0.3680 -2.4455 -2.0043
17584TIP3   OH274166   3.977   6.659  10.938  0.4116  0.0726  0.3020
17584TIP3    H174167   4.017   6.714  11.006  0.7761 -1.9186  1.7860
17584TIP3    H274168   4.040   6.660  10.866  0.4191  1.5435  0.3012
17585TIP3   OH274169   4.494   6.093   3.834  0.2527  0.0609 -0.3543
17585TIP3    H174170   4.533   6.114   3.749  0.4261 -1.8661 -0.7870
17585TIP3    H274171   4.569   6.071   3.890 -0.0462 -2.7453 -0.9293
17586TIP3   OH274172   0.926   3.730  10.900 -0.0461 -0.2710 -0.5505
17586TIP3    H174173   0.832   3.713  10.900  0.1401 -1.6081 -2.5832
17586TIP3    H274174   0.959   3.682  10.976 -1.0564  0.9706  0.7504
17587TIP3   OH274175   2.300   5.350   4.022 -0.1903 -0.2142  0.5911
17587TIP3    H174176   2.329   5.429   4.067  2.1718 -0.9785  0.5412
17587TIP3    H274177   2.346   5.352   3.938 -1.3096 -0.8968 -0.0677
17588TIP3   OH274178   0.008   5.091   3.960  0.0985 -0.2818 -0.7589
17588TIP3    H174179  -0.082   5.123   3.973  0.4769  0.6409 -0.3138
17588TIP3    H274180   0.018   5.019   4.023  0.5146  1.3442  1.1306
17589TIP3   OH274181   0.835   5.912  12.605  0.0130  0.6829  0.1123
17589TIP3    H174182   0.835   5.822  12.638 -0.2039  0.6299 -0.0307
17589TIP3    H274183   0.769   5.912  12.536  1.0454  0.5900 -0.8949
17590TIP3   OH274184   3.293   5.153   4.773  0.0528  0.5467 -0.0506
17590TIP3    H174185   3.325   5.222   4.831 -2.2157  0.0863  1.8815
17590TIP3    H274186   3.204   5.137   4.802 -0.4731 -1.2095 -2.3605
17591TIP3   OH274187   2.760   4.611  15.670 -0.1794  0.5505 -0.5793
17591TIP3    H174188   2.792   4.618  15.760 -0.8854 -1.1367 -0.1702
17591TIP3    H274189   2.691   4.678  15.664  0.8960  1.7089 -0.3582
17592TIP3   OH274190   2.773   2.665   0.699  0.0705 -0.4377  0.7575
17592TIP3    H174191   2.851   2.611   0.715  1.1240  0.5989 -0.6454
17592TIP3    H274192   2.797   2.720   0.625 -1.8657  0.2248  0.5746
17593TIP3   OH274193   1.287   0.458   3.635  0.2500  0.4736  0.1395
17593TIP3    H174194   1.291   0.476   3.729  0.4384  4.2870 -0.4210
17593TIP3    H274195   1.194   0.462   3.614  0.3098  1.1280 -0.0262
17594TIP3   OH274196   3.357   0.636  12.795  0.0825 -0.1332  0.1583
17594TIP3    H174197   3.415   0.586  12.852  0.5041 -0.3702 -0.4657
17594TIP3    H274198   3.395   0.724  12.794  0.2985 -0.2280 -0.0632
17595TIP3   OH274199   3.640   3.281   3.430  0.1377  0.0434  0.3306
17595TIP3    H174200   3.591   3.203   3.457  1.8644 -1.0431  0.4718
17595TIP3    H274201   3.600   3.307   3.347 -1.0798 -0.3951  0.7533
17596TIP3   OH274202   3.498   0.324   4.598 -0.1060  0.0184 -0.4357
17596TIP3    H174203   3.590   0.333   4.573  0.6830 -0.7032  1.9679
17596TIP3    H274204   3.473   0.238   4.564 -0.2840  0.6684 -2.0613
17597TIP3   OH274205   2.799   3.316   5.960  0.2619  0.1015 -0.6183
17597TIP3    H174206   2.861   3.274   6.019  0.2581  0.9932  0.0396
17597TIP3    H274207   2.846   3.324   5.877  1.4277  1.7221  0.1656
17598TIP3   OH274208   1.773   4.157   5.161  0.0703 -0.3676 -0.1555
17598TIP3    H174209   1.810   4.162   5.249 -1.0458  2.7788  0.2865
17598TIP3    H274210   1.845   4.185   5.103 -0.0027  0.4014  0.1100
17599TIP3   OH274211   2.913   2.096   6.711  0.2617  0.0854 -0.0175
17599TIP3    H174212   2.893   2.005   6.688  0.6998 -0.3028  1.0859
17599TIP3    H274213   2.828   2.138   6.723  0.0542 -0.0771 -0.8965
17600TIP3   OH274214   1.615   1.209   4.451  0.4119 -0.6461  0.0200
17600TIP3    H174215   1.611   1.117   4.478 -0.7118 -0.1654  1.6004
17600TIP3    H274216   1.544   1.251   4.499  3.6671  1.9884  3.1256
17601TIP3   OH274217   5.398   2.067  12.931 -0.3269 -0.1131 -0.4174
17601TIP3    H174218   5.360   2.036  12.849  0.6820 -1.0739 -0.5284
17601TIP3    H274219   5.341   2.140  12.957  0.5543  1.6490 -3.0635
17602TIP3   OH274220   2.604   2.117   1.592  0.5525  0.1413  0.2969
17602TIP3    H174221   2.579   2.153   1.677 -0.8170  0.8605 -0.3601
17602TIP3    H274222   2.587   2.189   1.530  0.6939 -0.6421 -0.6719
17603TIP3   OH274223   3.512   2.035   5.780 -0.0881 -0.1641  0.0185
17603TIP3    H174224   3.422   2.014   5.805  0.5456 -1.3279  1.5550
17603TIP3    H274225   3.510   2.042   5.685 -2.4024  2.9873  0.1517
17604TIP3   OH274226   0.979   0.716   6.091 -0.3780  0.9260 -0.5747
17604TIP3    H174227   1.049   0.669   6.047 -0.5036 -0.3411  0.5183
17604TIP3    H274228   0.942   0.773   6.024 -0.1122 -0.4207 -1.9042
17605TIP3   OH274229   0.260   4.028  12.040 -0.0343 -0.1696 -0.0068
17605TIP3    H174230   0.305   3.999  11.961 -1.9913 -0.7538 -0.9688
17605TIP3    H274231   0.309   4.106  12.069  2.8121 -1.9291  0.2542
17606TIP3   OH274232   3.994   1.101  15.511  0.2040  0.5219 -0.1810
17606TIP3    H174233   3.991   1.077  15.419  1.1448  1.8060 -0.5866
17606TIP3    H274234   4.028   1.191  15.511  1.1997  0.1900  1.4674
17607TIP3   OH274235   2.279   2.404   2.263  0.2120 -0.0561  0.1241
17607TIP3    H174236   2.230   2.412   2.345 -0.1920  0.1860 -0.1319
17607TIP3    H274237   2.225   2.451   2.199  0.3699 -0.5062 -0.3443
17608TIP3   OH274238   3.096   0.856   4.328  0.4026 -0.5397 -0.1210
17608TIP3    H174239   3.078   0.838   4.235  1.1405 -0.7372 -0.2365
17608TIP3    H274240   3.125   0.947   4.329  1.1887 -0.7802 -0.2107
17609TIP3   OH274241   1.072   5.117   0.351 -0.2639 -0.0566 -0.1369
17609TIP3    H174242   1.144   5.056   0.365 -0.7273 -0.5369  0.2387
17609TIP3    H274243   1.020   5.110   0.431  0.2533  1.6516  0.3972
17610TIP3   OH274244   3.279   1.499  14.222 -0.2959 -0.3983  0.1850
17610TIP3    H174245   3.232   1.520  14.302 -2.7602 -1.5922 -0.8611
17610TIP3    H274246   3.266   1.574  14.165 -0.4897 -0.5098  0.0822
17611TIP3   OH274247   5.727   6.262   3.725  0.5209 -0.3689  0.1866
17611TIP3    H174248   5.741   6.236   3.816  2.0746 -1.5212 -0.3455
17611TIP3    H274249   5.662   6.332   3.730 -0.3678 -1.2659  2.0672
17612TIP3   OH274250   3.038   1.605  12.949 -0.0895 -0.1408 -0.9529
17612TIP3    H174251   3.051   1.529  12.892  1.3232 -1.5812  1.1765
17612TIP3    H274252   3.125   1.646  12.954 -0.2809  0.1744 -0.1335
17613TIP3   OH274253   0.255   0.037  12.566  0.3377  0.3612  0.1382
17613TIP3    H174254   0.323  -0.029  12.583 -1.1996 -1.3833 -0.1590
17613TIP3    H274255   0.175  -0.001  12.602 -0.5389  2.2847  0.3271
17614TIP3   OH274256   5.264   0.964   4.988 -0.2378  0.3947 -0.2180
17614TIP3    H174257   5.234   0.974   5.079 -1.1116 -0.3454 -0.4080
17614TIP3    H274258   5.359   0.974   4.993 -0.2130 -0.1950  0.8784
17615TIP3   OH274259   4.975   5.315  12.267  0.4990 -0.4198  0.0591
17615TIP3    H174260   5.016   5.291  12.184  1.0787  0.2012  0.1528
17615TIP3    H274261   5.042   5.367  12.312  0.1019 -0.5439  0.8101
17616TIP3   OH274262   2.575   3.882   1.512  0.0157  0.5607  0.0250
17616TIP3    H174263   2.665   3.880   1.479 -0.1501  1.3540 -0.5006
17616TIP3    H274264   2.532   3.808   1.470  0.1497  0.8001 -0.5351
17617TIP3   OH274265   6.144   0.941  13.262 -0.2472 -0.2022  0.5024
17617TIP3    H174266   6.166   1.034  13.275  0.5134 -0.5481  1.8869
17617TIP3    H274267   6.057   0.943  13.222 -0.1845  1.1167  0.3815
17618TIP3   OH274268   2.143   6.660  12.602 -0.3307  0.2287 -0.4216
17618TIP3    H174269   2.184   6.677  12.686 -1.7333  0.1122  0.3247
17618TIP3    H274270   2.179   6.577  12.573 -0.2963 -0.0446  0.3813
17619TIP3   OH274271   2.993   6.132   3.883  0.2913 -0.4556 -0.6442
17619TIP3    H174272   2.926   6.103   3.821  1.0781 -0.5071 -1.4817
17619TIP3    H274273   2.980   6.226   3.890 -1.6028 -0.7647  1.2918
17620TIP3   OH274274   1.882   0.070   4.976 -0.8246 -0.1477 -0.0585
17620TIP3    H174275   1.964   0.109   4.948 -1.2434  2.0495  1.5311
17620TIP3    H274276   1.823   0.081   4.902 -0.0580 -0.5852 -0.7434
17621TIP3   OH274277   6.702   6.148  15.213  0.1327  0.1689 -0.1027
17621TIP3    H174278   6.692   6.222  15.273  0.7677  1.6463 -1.7327
17621TIP3    H274279   6.771   6.095  15.253  1.0675  1.4991  0.1396
17622TIP3   OH274280   4.798   2.665  13.935  0.3129 -0.1348  0.6758
17622TIP3    H174281   4.813   2.759  13.941  2.1996 -0.4223  1.0809
17622TIP3    H274282   4.870   2.626  13.984  0.6007 -1.8405 -0.9778
17623TIP3   OH274283   3.596   4.688  11.381  0.0652  0.3919 -0.1064
17623TIP3    H174284   3.535   4.614  11.375 -0.6111  0.8786  0.6279
17623TIP3    H274285   3.670   4.662  11.327 -0.7992 -0.2016 -1.0355
17624TIP3   OH274286   5.902   6.121  13.070  0.8149 -0.3817 -0.1791
17624TIP3    H174287   5.994   6.147  13.071  0.4142  1.1584 -0.1697
17624TIP3    H274288   5.897   6.052  13.004  1.7535  0.4461 -1.1457
17625TIP3   OH274289   6.653   1.100   0.986 -0.9383 -0.3188  0.1322
17625TIP3    H174290   6.680   1.031   0.925 -1.7562 -0.3601 -0.1983
17625TIP3    H274291   6.566   1.073   1.016 -0.6039 -0.2229  1.2165
17626TIP3   OH274292   1.574   5.427  13.355 -0.0281 -0.4540  0.0774
17626TIP3    H174293   1.646   5.488  13.334 -0.4453  0.2130  0.5290
17626TIP3    H274294   1.564   5.373  13.277  1.0478 -0.6396  0.0550
17627TIP3   OH274295   1.873   3.780  14.016  0.3455  0.5213  0.0741
17627TIP3    H174296   1.778   3.772  14.020  0.2521  1.3126 -0.2720
17627TIP3    H274297   1.890   3.823  13.932  1.1845 -1.7060 -0.9565
17628TIP3   OH274298   4.707   2.350  12.000 -0.2239 -0.0323 -0.2453
17628TIP3    H174299   4.618   2.385  11.990 -0.5485 -0.4110  1.0821
17628TIP3    H274300   4.763   2.427  11.997 -0.8495  0.5653  1.6350
17629TIP3   OH274301   6.534   2.194   6.050  0.1519  0.1092 -0.0255
17629TIP3    H174302   6.547   2.143   5.970 -0.2698 -0.9626  0.5760
17629TIP3    H274303   6.439   2.209   6.054  0.1734  0.1735  0.2651
17630TIP3   OH274304   1.540   5.389  11.550 -0.9044  0.8117 -0.1782
17630TIP3    H174305   1.491   5.334  11.489 -0.0843  1.0044 -1.0267
17630TIP3    H274306   1.615   5.420  11.500 -0.3831  1.2356  0.8360
17631TIP3   OH274307   5.360   2.844   4.378 -0.4425 -0.2888  0.0897
17631TIP3    H174308   5.360   2.753   4.347 -1.0179 -0.7220  1.3006
17631TIP3    H274309   5.306   2.891   4.314 -0.4250 -0.8610 -0.3596
17632TIP3   OH274310   1.123   1.968   5.527  0.0521 -0.4605  0.1410
17632TIP3    H174311   1.118   1.980   5.432 -0.9580 -0.9992  0.1117
17632TIP3    H274312   1.128   1.873   5.538 -1.4737 -0.5111  0.6635
17633TIP3   OH274313   6.053   4.007  11.227 -0.0532  0.2244  0.0852
17633TIP3    H174314   6.091   3.975  11.146 -1.2687 -1.5875  0.1769
17633TIP3    H274315   6.092   4.093  11.240  1.5791 -0.2442 -1.4268
17634TIP3   OH274316   4.786   3.173  16.046  0.6985  0.3282  0.0743
17634TIP3    H174317   4.822   3.209  16.127  0.1259 -1.7975  1.3564
17634TIP3    H274318   4.835   3.091  16.033  0.4376  0.3960 -1.4644
17635TIP3   OH274319   0.961   1.465  10.855  0.3365 -0.3762 -0.0349
17635TIP3    H174320   0.966   1.382  10.903 -0.3688 -0.1448  0.4471
17635TIP3    H274321   1.005   1.447  10.771 -2.2677 -2.0906 -1.1397
17636TIP3   OH274322   6.418   3.628   0.532 -0.6448  0.1773  0.4160
17636TIP3    H174323   6.369   3.705   0.503  1.7533  2.3125  1.6885
17636TIP3    H274324   6.365   3.591   0.602 -1.7008  0.8052 -0.0256
17637TIP3   OH274325   0.236   1.808  15.930 -0.7712  1.0705 -0.4366
17637TIP3    H174326   0.301   1.814  16.000 -0.5930  1.1576 -0.6106
17637TIP3    H274327   0.174   1.878  15.950 -0.5006  1.3566 -0.5914
17638TIP3   OH274328   3.578   1.226  10.601 -0.1779  0.0367 -0.1029
17638TIP3    H174329   3.666   1.263  10.593  0.5274 -0.8898  2.4175
17638TIP3    H274330   3.570   1.167  10.526  2.2564 -1.5129  0.7281
17639TIP3   OH274331   6.445   4.479  15.203 -0.9752  0.6853  0.3032
17639TIP3    H174332   6.462   4.460  15.295  3.3327 -2.4668 -0.8525
17639TIP3    H274333   6.370   4.424  15.180 -1.2144  0.4469  1.5853
17640TIP3   OH274334   1.956   0.600   0.599  0.4845 -0.2800 -0.0227
17640TIP3    H174335   1.973   0.690   0.628  0.5587 -0.0777 -0.6782
17640TIP3    H274336   2.015   0.547   0.652 -0.8825 -0.1660  1.7407
17641TIP3   OH274337   4.515   6.649   2.109  0.0968 -0.1743 -0.1535
17641TIP3    H174338   4.519   6.740   2.081 -0.0969  0.0438  0.5262
17641TIP3    H274339   4.434   6.643   2.160 -0.6640 -1.0590 -1.4026
17642TIP3   OH274340   2.715   0.275  14.985 -0.0638  0.0012 -0.1105
17642TIP3    H174341   2.709   0.245  14.894 -2.2403 -1.4192  0.4180
17642TIP3    H274342   2.773   0.212  15.027  0.6073  0.4103 -0.4163
17643TIP3   OH274343   1.567   3.092  11.792 -0.4185  0.2392 -0.3065
17643TIP3    H174344   1.595   3.001  11.800  2.3061  1.0802  0.9046
17643TIP3    H274345   1.599   3.134  11.872  1.1515  2.8836 -2.1592
17644TIP3   OH274346   2.637   1.271  15.622 -0.0522  0.0276  0.4022
17644TIP3    H174347   2.598   1.287  15.536  1.5901  1.4907 -0.1423
17644TIP3    H274348   2.731   1.281  15.607  0.2242  1.0001  2.4899
17645TIP3   OH274349   2.038   1.045  10.959  0.1145  0.3782  0.1085
17645TIP3    H174350   1.981   1.122  10.952  1.6917  1.7839  1.8575
17645TIP3    H274351   2.123   1.080  10.985  2.2031 -1.5311 -3.4138
17646TIP3   OH274352   1.455   6.092  16.575  0.2868  0.5236  0.3997
17646TIP3    H174353   1.461   6.168  16.517 -0.4521  0.8890  0.7954
17646TIP3    H274354   1.546   6.064  16.588  0.4849  0.6082 -0.7017
17647TIP3   OH274355   0.795   5.353   1.011  0.2112 -0.0251  0.7165
17647TIP3    H174356   0.848   5.300   0.951 -0.3394  1.0292 -0.7623
17647TIP3    H274357   0.815   5.444   0.987 -1.0704  0.4054  1.1740
17648TIP3   OH274358   0.457   0.570  10.772  0.3268  0.1504  0.3002
17648TIP3    H174359   0.526   0.533  10.828  0.7103  0.4014  0.0029
17648TIP3    H274360   0.502   0.590  10.690 -0.1482  0.1344  0.0315
17649TIP3   OH274361   5.057   4.403   1.805 -0.0427  0.6215 -0.1105
17649TIP3    H174362   4.987   4.344   1.834  0.7964 -0.7911 -0.8399
17649TIP3    H274363   5.024   4.491   1.824 -2.5068  0.0804 -1.5033
17650TIP3   OH274364   6.095   2.434   6.166 -0.2912  0.0259  0.2735
17650TIP3    H174365   6.013   2.451   6.213  0.0089  1.1428  0.4177
17650TIP3    H274366   6.153   2.506   6.192  0.8016 -0.8437  0.3090
17651TIP3   OH274367   3.796   3.821  14.475 -0.4991  0.1760 -0.4330
17651TIP3    H174368   3.740   3.748  14.502 -1.3808  0.8663 -0.3387
17651TIP3    H274369   3.839   3.849  14.556 -2.6438  1.8250  0.2319
17652TIP3   OH274370   2.333   0.635  12.363 -0.0879  0.5238 -0.2820
17652TIP3    H174371   2.296   0.689  12.433 -0.8593 -1.0221  0.5522
17652TIP3    H274372   2.261   0.578  12.335  0.7751 -0.2938 -0.9082
17653TIP3   OH274373   2.216   5.422   4.490 -0.4100 -0.5173  0.3031
17653TIP3    H174374   2.277   5.496   4.491  0.2204 -1.0276  1.0786
17653TIP3    H274375   2.162   5.436   4.412  0.4458  0.1491 -0.1828
17654TIP3   OH274376   5.773   0.019   1.231  0.1249 -0.3099  0.3480
17654TIP3    H174377   5.804   0.069   1.155 -0.4164 -2.8307 -1.7202
17654TIP3    H274378   5.850   0.008   1.286  1.0930 -0.1758 -0.9373
17655TIP3   OH274379   0.997   6.409   0.027  0.6886 -0.1625 -0.3175
17655TIP3    H174380   0.958   6.333  -0.015 -0.6187  0.6045 -0.5513
17655TIP3    H274381   1.046   6.373   0.101 -0.5092 -1.1871  0.0290
17656TIP3   OH274382   6.312   6.310   3.476  0.0516 -0.1209 -0.5345
17656TIP3    H174383   6.374   6.360   3.529  0.0186  0.4261 -1.0044
17656TIP3    H274384   6.270   6.250   3.538  0.3786  0.1548 -0.0410
17657TIP3   OH274385   0.845   5.276   4.594  0.0078  0.2023  0.2836
17657TIP3    H174386   0.790   5.353   4.608 -2.6355 -0.9432 -2.4654
17657TIP3    H274387   0.782   5.206   4.573  2.3810 -2.3002  0.9489
17658TIP3   OH274388   1.862   1.455   0.256 -0.3071 -0.1120 -0.1587
17658TIP3    H174389   1.839   1.421   0.170  0.5384  0.0351 -0.4519
17658TIP3    H274390   1.914   1.533   0.238  1.6612 -1.2194  0.4320
17659TIP3   OH274391   5.766   6.808  11.716 -0.0620 -0.3425  0.2903
17659TIP3    H174392   5.690   6.864  11.711  0.4714  0.3350 -0.5376
17659TIP3    H274393   5.749   6.737  11.653 -0.0314 -0.2137  0.1365
17660TIP3   OH274394   4.177   0.908  15.197 -0.6231  0.5076 -0.7275
17660TIP3    H174395   4.199   0.908  15.290 -0.9747  0.8191 -0.6429
17660TIP3    H274396   4.236   0.973  15.158  0.6005 -0.7046 -0.9888
17661TIP3   OH274397   0.571   3.534  14.879  0.1309  0.1286 -0.3978
17661TIP3    H174398   0.531   3.448  14.874  0.7473 -0.2741  1.0675
17661TIP3    H274399   0.505   3.590  14.920  0.9989 -0.5404  2.0420
17662TIP3   OH274400   0.383   2.072  13.096  0.2067 -0.2453  0.1354
17662TIP3    H174401   0.350   2.050  13.009 -1.3839  1.5842  0.1973
17662TIP3    H274402   0.395   1.988  13.140  2.0954 -1.2770 -2.1701
17663TIP3   OH274403   3.403   5.494  15.622 -0.8543 -0.2600 -0.2239
17663TIP3    H174404   3.473   5.491  15.557 -2.3214  0.3779 -1.9031
17663TIP3    H274405   3.440   5.452  15.700  0.8817 -1.2692 -1.5427
17664TIP3   OH274406   1.998   5.683  12.837  0.0472  0.2480 -0.2196
17664TIP3    H174407   2.012   5.658  12.929 -0.0498 -0.4704 -0.3907
17664TIP3    H274408   1.987   5.778  12.839 -2.6306  0.0115  0.8734
17665TIP3   OH274409   0.261   3.489   5.333 -0.9917  0.0802 -0.0133
17665TIP3    H174410   0.323   3.550   5.373 -1.4849  1.2318 -0.9348
17665TIP3    H274411   0.292   3.402   5.359 -0.9043  0.7358  2.2349
17666TIP3   OH274412   1.178   2.721  12.472  0.0162 -0.2094 -0.6721
17666TIP3    H174413   1.233   2.648  12.443  0.5798 -0.1771  0.2911
17666TIP3    H274414   1.235   2.776  12.525 -0.4919  0.7715 -1.1074
17667TIP3   OH274415   2.124   4.069  12.558 -0.1709 -0.6527  0.3283
17667TIP3    H174416   2.039   4.027  12.548  0.7990 -2.5161 -0.4654
17667TIP3    H274417   2.179   4.003  12.599  1.2787  0.0294 -0.4440
17668TIP3   OH274418   1.124   5.202   1.602 -0.1354  0.0863 -0.3485
17668TIP3    H174419   1.034   5.219   1.573 -0.1957  0.2939 -0.0494
17668TIP3    H274420   1.179   5.250   1.541 -0.2669  0.6061 -0.0632
17669TIP3   OH274421   6.455   6.094  10.546 -0.1633 -0.1558  0.1300
17669TIP3    H174422   6.522   6.120  10.608  0.4487  0.0885 -0.6091
17669TIP3    H274423   6.400   6.032  10.593 -0.4075  0.8952  1.2704
17670TIP3   OH274424   0.278   4.527   0.512 -0.0199  0.2345  0.1903
17670TIP3    H174425   0.278   4.605   0.567  0.0677  0.6991 -0.4501
17670TIP3    H274426   0.284   4.453   0.573 -1.4831  0.6690  0.8836
17671TIP3   OH274427   4.190   3.150  14.780  0.5305  0.3234 -0.0818
17671TIP3    H174428   4.175   3.161  14.874 -0.1673  0.5223 -0.2109
17671TIP3    H274429   4.219   3.060  14.770 -0.3008  0.0161  0.2192
17672TIP3   OH274430   0.680   0.831   1.323  0.6003 -0.0027 -0.3099
17672TIP3    H174431   0.680   0.841   1.419 -0.6708  0.2244 -0.3070
17672TIP3    H274432   0.588   0.814   1.302  1.0798 -1.3822 -1.3732
17673TIP3   OH274433   4.222   3.476   0.705 -0.2288  0.2683  1.0101
17673TIP3    H174434   4.285   3.509   0.769  0.5058 -0.6635  0.7937
17673TIP3    H274435   4.217   3.382   0.722 -0.0202 -0.0014 -0.2993
17674TIP3   OH274436   6.538   2.913   5.669 -0.0029  0.8161 -0.4913
17674TIP3    H174437   6.586   2.918   5.752 -0.1333 -0.8713 -0.2847
17674TIP3    H274438   6.490   2.831   5.674 -1.1289  1.3724 -1.6646
17675TIP3   OH274439   4.385   6.634  13.912  0.0269  0.4500 -0.4539
17675TIP3    H174440   4.353   6.596  13.830  0.8248  1.3234 -1.1900
17675TIP3    H274441   4.454   6.575  13.941 -0.0271  0.3186 -0.5922
17676TIP3   OH274442   2.941   0.431  13.766  0.7007  0.4518  0.1058
17676TIP3    H174443   3.014   0.426  13.704  1.1163 -0.1919  0.6341
17676TIP3    H274444   2.898   0.514  13.746  1.2224  0.5554 -0.6073
17677TIP3   OH274445   6.262   0.180   0.967 -0.2292  0.1481  0.4488
17677TIP3    H174446   6.338   0.237   0.969  0.6292 -0.9328 -0.5267
17677TIP3    H274447   6.200   0.225   0.909  0.2715  0.3036  0.0227
17678TIP3   OH274448   1.940   4.439  15.867  0.3702  0.0496  0.1532
17678TIP3    H174449   1.880   4.484  15.808 -1.6087 -0.9974  1.2642
17678TIP3    H274450   1.918   4.346  15.857 -1.6444 -0.0727  4.0505
17679TIP3   OH274451   3.239   5.157  12.752  0.0266  0.0899  0.5797
17679TIP3    H174452   3.236   5.085  12.689  0.4692  0.0346  0.6154
17679TIP3    H274453   3.282   5.228  12.704  0.0701  0.1552  0.7162
17680TIP3   OH274454   6.042   4.838  13.708 -0.0091 -0.0764  0.2765
17680TIP3    H174455   6.045   4.847  13.613  3.0384 -3.8893 -0.2418
17680TIP3    H274456   5.979   4.768  13.723 -1.4149  1.3223  1.3258
17681TIP3   OH274457   6.193   0.560   2.206  0.0614 -0.5341  0.4380
17681TIP3    H174458   6.232   0.625   2.148 -2.8785 -0.9112 -2.2448
17681TIP3    H274459   6.113   0.601   2.238  0.4314 -1.2410  2.4429
17682TIP3   OH274460   5.275   3.994   3.082  0.2451 -0.0471 -0.3586
17682TIP3    H174461   5.336   3.929   3.048 -0.0690 -1.0486  0.9055
17682TIP3    H274462   5.230   4.028   3.004  0.3135 -1.4670 -1.0505
17683TIP3   OH274463   2.030   2.763  13.907 -0.4803 -0.3822  0.1542
17683TIP3    H174464   2.034   2.782  14.001 -2.1158  0.1517  0.1520
17683TIP3    H274465   2.118   2.779  13.875  0.1069 -0.6071  1.6073
17684TIP3   OH274466   3.547   6.528   5.457  0.1744  0.0338 -0.6215
17684TIP3    H174467   3.519   6.441   5.487 -0.1013  0.6118  0.8930
17684TIP3    H274468   3.467   6.569   5.424  0.0153  0.2153 -0.0252
17685TIP3   OH274469   6.536   4.326  12.719  0.1196  0.3965 -0.2790
17685TIP3    H174470   6.610   4.381  12.695  0.4834 -0.2720 -0.7314
17685TIP3    H274471   6.459   4.378  12.697  0.4377  0.2404 -1.9213
17686TIP3   OH274472   4.966   1.162  13.788  0.5069 -0.0203 -0.8047
17686TIP3    H174473   5.020   1.170  13.868  0.6789  0.5682 -0.9705
17686TIP3    H274474   5.028   1.178  13.717  0.1649  0.3985 -1.0095
17687TIP3   OH274475   4.958   3.379  15.653  0.5364  0.4454  0.0258
17687TIP3    H174476   4.920   3.425  15.728  1.7528 -0.8739  1.5395
17687TIP3    H274477   4.944   3.286  15.673  0.5077  0.0759 -1.6163
17688TIP3   OH274478   6.306   3.439   0.758  0.1781  0.0874 -0.4375
17688TIP3    H174479   6.231   3.393   0.721  1.5723 -1.8946 -0.9168
17688TIP3    H274480   6.267   3.515   0.803 -2.1047 -0.9678 -0.4973
17689TIP3   OH274481   5.972   0.994  11.368  0.0449  0.0107 -0.7716
17689TIP3    H174482   5.909   1.049  11.413  0.2658  1.8494 -2.5510
17689TIP3    H274483   6.026   0.957  11.438 -0.5167  1.5738  0.5532
17690TIP3   OH274484   6.000   2.529   3.034  0.1372 -0.4308 -0.2018
17690TIP3    H174485   6.096   2.523   3.037  0.0671 -2.3378 -0.9740
17690TIP3    H274486   5.972   2.507   3.123  0.4123  1.7809  0.5204
17691TIP3   OH274487   1.016   1.121  16.479  0.2126  0.0975  0.1421
17691TIP3    H174488   1.071   1.115  16.557  0.2684  1.8819  0.2854
17691TIP3    H274489   0.970   1.205  16.488 -0.7754 -0.2732 -1.1063
17692TIP3   OH274490   4.854   5.953   4.935 -0.3003  0.0362  0.0371
17692TIP3    H174491   4.923   5.909   4.984 -1.9214 -0.4498  2.0019
17692TIP3    H274492   4.786   5.887   4.925 -0.7767  0.6922 -1.2927
17693TIP3   OH274493   4.384   0.342  14.658 -0.0474 -0.8883  0.1164
17693TIP3    H174494   4.295   0.331  14.690 -0.4911  1.1050 -0.2770
17693TIP3    H274495   4.420   0.412  14.713  0.8051 -0.7571 -0.5910
17694TIP3   OH274496   4.520   0.244   1.755  0.0770  0.1691  0.7551
17694TIP3    H174497   4.426   0.264   1.756  0.2512  1.3401 -1.0431
17694TIP3    H274498   4.562   0.329   1.741  1.2854 -0.5690 -0.2897
17695TIP3   OH274499   3.185   6.758   0.615  0.5527 -0.3098  0.1344
17695TIP3    H174500   3.145   6.844   0.602 -0.9219 -1.0087 -0.1659
17695TIP3    H274501   3.118   6.707   0.661  1.7807 -1.0113  1.2207
17696TIP3   OH274502   0.535   0.923   2.769  0.0800  0.0948  0.1734
17696TIP3    H174503   0.495   1.007   2.791  0.7364  0.2095  0.9799
17696TIP3    H274504   0.551   0.881   2.853  1.6671  0.0662 -0.1030
17697TIP3   OH274505   3.434   2.941   1.255  0.3161 -0.1058 -0.0548
17697TIP3    H174506   3.382   3.020   1.271  1.1074  0.2275  1.0262
17697TIP3    H274507   3.473   2.956   1.169  0.7188  0.8500  0.2756
17698TIP3   OH274508   3.419   3.216   0.372  0.5998 -0.1793  0.2788
17698TIP3    H174509   3.461   3.298   0.346  0.7618 -0.7419 -1.3352
17698TIP3    H274510   3.329   3.242   0.393  1.1164  0.6730  1.5753
17699TIP3   OH274511   6.311   4.109  15.011 -0.2668 -0.2371 -0.1432
17699TIP3    H174512   6.401   4.083  15.029 -0.5158 -1.4727 -0.6193
17699TIP3    H274513   6.308   4.120  14.916 -0.5472  0.0952 -0.0966
17700TIP3   OH274514   0.815   3.590  12.743  0.3043 -0.3577  0.3046
17700TIP3    H174515   0.839   3.562  12.655 -1.3321 -0.7425 -0.0420
17700TIP3    H274516   0.893   3.572  12.796  0.5518 -2.2220 -0.6227
17701TIP3   OH274517   3.258   5.148  14.866 -0.7842  0.0086  0.2004
17701TIP3    H174518   3.178   5.199  14.881 -1.7310 -1.5614  0.8409
17701TIP3    H274519   3.236   5.060  14.898  1.0234 -0.6128 -0.1452
17702TIP3   OH274520   4.094   0.135   4.985 -0.4492  0.2736 -0.0690
17702TIP3    H174521   4.130   0.074   5.050  0.1299 -0.0487 -0.6876
17702TIP3    H274522   4.004   0.106   4.973  0.5620 -2.3155 -2.4654
17703TIP3   OH274523   2.569   2.820   0.503  0.0881  0.1160  0.0023
17703TIP3    H174524   2.548   2.815   0.596 -1.2220 -3.8765 -0.3118
17703TIP3    H274525   2.657   2.858   0.500 -0.1554  1.1381  2.7479
17704TIP3   OH274526   0.179   5.253  12.303 -0.1380 -0.3775 -0.4403
17704TIP3    H174527   0.251   5.254  12.366  0.5012 -0.1036 -1.1586
17704TIP3    H274528   0.193   5.173  12.251  0.7166  0.5929 -1.7617
17705TIP3   OH274529   1.041   3.082  11.974  0.0573 -0.2416 -0.1817
17705TIP3    H174530   0.951   3.103  11.951  0.3148 -0.4661 -1.4970
17705TIP3    H274531   1.086   3.166  11.978  0.6194 -0.2193 -3.4067
17706TIP3   OH274532   2.808   4.418  13.030 -0.2146  0.3355 -0.2793
17706TIP3    H174533   2.712   4.415  13.033 -0.1943 -0.2234 -0.0523
17706TIP3    H274534   2.830   4.373  12.948 -0.0910 -1.1546  0.5367
17707TIP3   OH274535   5.124   1.430  14.008  0.0698 -0.2377 -0.1321
17707TIP3    H174536   5.187   1.478  13.955  0.6821 -2.0661 -1.1240
17707TIP3    H274537   5.146   1.338  13.995 -0.6573 -0.8192  2.2022
17708TIP3   OH274538   3.129   5.887  12.369 -0.2117  0.4724  0.3015
17708TIP3    H174539   3.042   5.922  12.349 -0.5095  0.0013  0.7610
17708TIP3    H274540   3.112   5.801  12.407  0.4574  0.3758  0.3885
17709TIP3   OH274541   0.211   1.289   5.201 -0.3628 -0.7496  0.0519
17709TIP3    H174542   0.228   1.215   5.261 -1.7267 -0.1494  1.2440
17709TIP3    H274543   0.139   1.258   5.146  0.7434 -1.2152 -1.1776
17710TIP3   OH274544   6.598   5.387   6.170 -0.1746  0.4172  0.2666
17710TIP3    H174545   6.684   5.345   6.169  0.6469  2.0051 -1.2095
17710TIP3    H274546   6.613   5.469   6.218 -1.3420 -0.1454  1.6584
17711TIP3   OH274547   6.745   1.138   1.361 -0.4454  0.1820  0.0494
17711TIP3    H174548   6.836   1.166   1.353  0.0624 -1.4240 -0.2748
17711TIP3    H274549   6.721   1.158   1.451 -0.1066  1.5137 -0.1414
17712TIP3   OH274550   1.678   4.325   1.668 -0.6887 -0.0845 -0.2826
17712TIP3    H174551   1.679   4.303   1.575 -0.8093 -1.1215 -0.0509
17712TIP3    H274552   1.755   4.281   1.704 -1.5470 -1.0973  0.3928
17713TIP3   OH274553   4.745   1.487  16.684 -0.7567  0.0272  0.1169
17713TIP3    H174554   4.765   1.454  16.771  1.7536 -0.7264 -0.6753
17713TIP3    H274555   4.697   1.569  16.700 -1.6411 -0.8310  2.1544
17714TIP3   OH274556   3.213   1.847  16.075  0.5524  0.6568 -0.8660
17714TIP3    H174557   3.283   1.893  16.122  0.2078  1.2157 -0.8822
17714TIP3    H274558   3.167   1.797  16.142  0.6896  0.6427 -0.7814
17715TIP3   OH274559   3.256   3.767  14.166 -0.2692 -0.4428  0.5230
17715TIP3    H174560   3.328   3.722  14.122  1.1107  0.1322  2.1259
17715TIP3    H274561   3.280   3.860  14.164 -0.7947 -0.2758  1.3697
17716TIP3   OH274562   1.686   4.668   4.601  0.3235  0.2238  0.0445
17716TIP3    H174563   1.684   4.730   4.674  1.3746 -0.6203  0.8132
17716TIP3    H274564   1.725   4.719   4.529 -1.6252  1.3641 -0.2867
17717TIP3   OH274565   5.611   0.417  15.963 -0.2950  0.0165 -0.0003
17717TIP3    H174566   5.592   0.380  15.877 -1.5300 -0.5643  0.5005
17717TIP3    H274567   5.533   0.398  16.016  0.3308  0.5799  1.1795
17718TIP3   OH274568   5.628   4.037   5.968 -0.5290  0.2009 -0.0431
17718TIP3    H174569   5.646   4.069   6.056  1.5485 -0.6199 -0.1060
17718TIP3    H274570   5.650   4.110   5.910  0.0153  0.1025  0.0340
17719TIP3   OH274571   5.606   6.684   4.957 -0.0869 -0.1701 -0.3181
17719TIP3    H174572   5.584   6.769   4.920 -0.8113  0.4253  1.3357
17719TIP3    H274573   5.701   6.680   4.955 -0.0582  0.5765 -0.6602
17720TIP3   OH274574   4.872   6.569   2.452 -0.2479  0.1132  0.9177
17720TIP3    H174575   4.911   6.485   2.476 -0.3121 -0.2276 -0.1345
17720TIP3    H274576   4.933   6.608   2.390 -0.1354  0.9322  1.5254
17721TIP3   OH274577   0.229   0.639  14.391 -0.1537 -0.2312 -0.3080
17721TIP3    H174578   0.174   0.694  14.447  0.0889 -0.6291  0.3378
17721TIP3    H274579   0.311   0.688  14.383  1.5089 -1.9979  3.2985
17722TIP3   OH274580   5.383   6.128   3.225 -0.0002 -0.2842  0.4309
17722TIP3    H174581   5.384   6.046   3.176  0.9954  2.4495 -4.7751
17722TIP3    H274582   5.475   6.144   3.247 -0.2125 -0.5734  1.5868
17723TIP3   OH274583   4.434   5.687  10.510  0.1225 -0.4501  0.2446
17723TIP3    H174584   4.387   5.768  10.531 -0.0335 -0.2565 -0.8236
17723TIP3    H274585   4.390   5.620  10.563 -1.8136 -0.3997 -1.1999
17724TIP3   OH274586   0.632   5.389   0.114  0.2249  0.2371 -0.1325
17724TIP3    H174587   0.656   5.297   0.128  1.3986  0.4944 -0.3796
17724TIP3    H274588   0.562   5.385   0.049  0.8951 -0.4520 -0.8474
17725TIP3   OH274589   6.573   5.916  11.692 -0.3019 -0.0038  0.2140
17725TIP3    H174590   6.545   5.831  11.657  2.6713 -1.1148  0.2217
17725TIP3    H274591   6.577   5.903  11.786 -0.5718  0.4088  0.2846
17726TIP3   OH274592   3.450   3.099   3.344 -0.1166 -0.2177  0.4543
17726TIP3    H174593   3.480   3.066   3.429 -0.7524 -1.9735  0.0420
17726TIP3    H274594   3.369   3.051   3.327  1.2851 -1.8606 -2.2761
17727TIP3   OH274595   2.274   0.470   0.037  0.1461  0.2212 -0.1011
17727TIP3    H174596   2.294   0.538  -0.027  1.5658  1.2098  1.3078
17727TIP3    H274597   2.345   0.476   0.101 -1.1802 -0.7355  1.5553
17728TIP3   OH274598   1.090   2.956  15.677 -0.5789  0.4057  0.3791
17728TIP3    H174599   1.179   2.976  15.648 -1.0436  0.1230 -1.3424
17728TIP3    H274600   1.042   3.038  15.668 -0.8165  0.2262 -0.0431
17729TIP3   OH274601   1.427   2.395  14.313  0.1253  0.2938 -0.1421
17729TIP3    H174602   1.333   2.413  14.315  0.2745  1.1917 -0.8142
17729TIP3    H274603   1.441   2.335  14.387 -0.9392  0.2838  0.0721
17730TIP3   OH274604   4.662   3.494   5.902  0.4812  0.0738  0.1966
17730TIP3    H174605   4.674   3.589   5.904  0.0664  0.1169  1.3474
17730TIP3    H274606   4.596   3.476   5.969  1.5485 -1.1523  0.9756
17731TIP3   OH274607   3.496   4.741  16.870  0.2724  0.2419  0.1738
17731TIP3    H174608   3.410   4.715  16.901  0.6052 -0.5376  0.4662
17731TIP3    H274609   3.481   4.823  16.822 -0.5387  0.4102  0.6957
17732TIP3   OH274610   0.969   6.741   4.460 -0.9273  0.2396  0.2155
17732TIP3    H174611   1.011   6.804   4.401 -1.2750  1.3034  1.0662
17732TIP3    H274612   0.953   6.664   4.405  1.8057 -0.1077 -0.2300
17733TIP3   OH274613   2.586   4.441  12.788  0.3340  0.0260 -0.1584
17733TIP3    H174614   2.672   4.405  12.767 -0.1559 -0.8482 -0.7126
17733TIP3    H274615   2.592   4.533  12.763  0.7492 -0.2884 -1.2741
17734TIP3   OH274616   0.694   3.760   2.185 -0.0548 -0.2422 -0.4863
17734TIP3    H174617   0.662   3.850   2.187  2.1545  0.7413 -2.7541
17734TIP3    H274618   0.645   3.719   2.114  0.0334 -0.3283 -0.4977
17735TIP3   OH274619   2.250   3.412   6.429  0.6361 -0.6004 -0.6760
17735TIP3    H174620   2.170   3.409   6.375  2.1604  0.2336 -3.1896
17735TIP3    H274621   2.261   3.506   6.447  0.8149 -0.7610  0.0428
17736TIP3   OH274622   4.965   5.709   2.982  0.3965  0.3452 -0.1148
17736TIP3    H174623   4.969   5.736   3.074  0.7520  2.3755 -0.6770
17736TIP3    H274624   5.050   5.670   2.964  0.9599  1.4963 -0.0088
17737TIP3   OH274625   2.357   5.381   0.867  1.0109  0.4074 -0.0708
17737TIP3    H174626   2.282   5.362   0.811  0.5976  0.3683  0.4893
17737TIP3    H274627   2.343   5.472   0.895  1.9977  0.9463 -1.2279
17738TIP3   OH274628   0.823   2.065   0.894  0.2162 -0.0107  0.4432
17738TIP3    H174629   0.891   2.013   0.852 -0.2049 -0.3569  0.1847
17738TIP3    H274630   0.853   2.156   0.885 -0.0415 -0.0525 -0.9328
17739TIP3   OH274631   6.025   4.028   3.329 -0.6812  0.9896  0.2842
17739TIP3    H174632   5.986   4.068   3.407  0.4234  0.9109  0.9016
17739TIP3    H274633   6.001   3.936   3.333 -1.1203  1.1006  0.2114
17740TIP3   OH274634   1.809   1.771   2.549 -0.2246  0.3148  0.2236
17740TIP3    H174635   1.717   1.788   2.529  0.0619  1.9861  0.1459
17740TIP3    H274636   1.810   1.743   2.640 -0.8061  0.3994  0.2548
17741TIP3   OH274637   2.123   5.394   0.318 -0.0035 -0.3339  1.0114
17741TIP3    H174638   2.122   5.485   0.346 -1.1797 -0.5518  1.7403
17741TIP3    H274639   2.050   5.387   0.257 -0.1173 -0.8597  1.1997
17742TIP3   OH274640   2.970   6.052  16.922 -0.1858 -0.5724 -0.4826
17742TIP3    H174641   3.034   6.007  16.977  0.0658  0.2929 -0.0484
17742TIP3    H274642   2.935   5.984  16.864  0.8878 -1.1148 -0.5045
17743TIP3   OH274643   1.507   5.453   5.278 -0.0174  0.0831 -0.4490
17743TIP3    H174644   1.496   5.539   5.238 -0.7381  0.1165 -0.1968
17743TIP3    H274645   1.419   5.415   5.278 -0.4953  0.8948  2.9103
17744TIP3   OH274646   0.482   4.001   1.982 -0.2121  0.5010 -0.5064
17744TIP3    H174647   0.498   4.016   2.075  1.5861  2.0117 -1.0038
17744TIP3    H274648   0.478   4.088   1.943  2.7308 -0.0608 -2.3631
17745TIP3   OH274649   2.011   5.287  12.003  0.0963 -0.6240 -0.0987
17745TIP3    H174650   1.924   5.302  12.041  0.0779 -1.4037  0.1850
17745TIP3    H274651   2.065   5.358  12.039 -1.0507  1.6255 -2.5336
17746TIP3   OH274652   5.878   5.553   3.200 -0.4324 -0.8615  0.2696
17746TIP3    H174653   5.844   5.477   3.246 -0.3766 -1.7716 -1.1318
17746TIP3    H274654   5.806   5.580   3.143 -1.2146  1.4315  2.1664
17747TIP3   OH274655   5.593   2.591  16.200  0.1588 -0.4459 -0.3134
17747TIP3    H174656   5.665   2.625  16.253 -0.1648 -2.9855  2.0170
17747TIP3    H274657   5.626   2.508  16.166 -1.2705 -1.1525 -0.0736
17748TIP3   OH274658   5.283   3.156   2.656 -0.0212  0.0511 -0.5291
17748TIP3    H174659   5.359   3.166   2.599 -1.2483  2.6349 -1.8951
17748TIP3    H274660   5.229   3.089   2.615  0.7576 -0.6547 -0.4141
17749TIP3   OH274661   6.727   5.362  12.633 -0.1232 -0.4954 -0.0308
17749TIP3    H174662   6.804   5.416  12.648 -0.0111 -0.3332 -1.0842
17749TIP3    H274663   6.729   5.344  12.538 -2.3334  1.0130 -0.4276
17750TIP3   OH274664   1.834   2.905   2.748 -0.0305 -0.1561  0.1515
17750TIP3    H174665   1.923   2.869   2.749 -0.6189 -1.7366 -0.3302
17750TIP3    H274666   1.803   2.891   2.659 -0.8510  0.1512  0.3733
17751TIP3   OH274667   2.019   3.834   2.931 -0.1890  0.5179 -0.0336
17751TIP3    H174668   2.053   3.754   2.970 -1.5150 -1.4029 -2.5456
17751TIP3    H274669   1.983   3.883   3.005 -0.2919 -1.6714  1.4707
17752TIP3   OH274670   5.430   1.924   5.986 -0.1391 -0.0358 -1.0087
17752TIP3    H174671   5.414   1.926   6.080  1.9610 -0.0054 -0.6188
17752TIP3    H274672   5.488   1.998   5.969  0.5654 -0.7971 -2.0993
17753TIP3   OH274673   0.151   6.002   5.074 -0.0216  0.2546  0.6897
17753TIP3    H174674   0.122   6.070   5.012  1.7464 -0.5874 -1.1723
17753TIP3    H274675   0.186   6.051   5.148 -0.6848  1.3383  0.3173
17754TIP3   OH274676   0.036   6.091  16.262 -0.0690  0.1621  0.1676
17754TIP3    H174677   0.016   6.118  16.352  0.1760  0.3662  0.1629
17754TIP3    H274678  -0.046   6.102  16.215 -0.3143 -0.3746  0.4690
17755TIP3   OH274679   3.175   0.340   1.863 -0.5218  0.8750 -0.0013
17755TIP3    H174680   3.111   0.288   1.912 -1.4848  2.1279  0.1205
17755TIP3    H274681   3.240   0.277   1.834 -3.6328 -1.1850 -3.2606
17756TIP3   OH274682   2.607   2.497  13.186 -0.1008  0.2886 -0.0614
17756TIP3    H174683   2.649   2.431  13.241 -0.9714  0.5506  0.9322
17756TIP3    H274684   2.674   2.520  13.122  1.2960  0.6762  1.4646
17757TIP3   OH274685   6.558   1.633   4.023  0.0528  0.3878 -0.4090
17757TIP3    H174686   6.487   1.681   3.981  1.8245  2.5349 -1.1399
17757TIP3    H274687   6.638   1.665   3.980  1.6998  0.0396  2.1512
17758TIP3   OH274688   5.599   6.470  16.634  0.5884 -0.0030  0.1983
17758TIP3    H174689   5.644   6.531  16.575  2.4399 -1.1647  0.3129
17758TIP3    H274690   5.602   6.512  16.720 -0.9442  1.1054 -0.2567
17759TIP3   OH274691   6.391   6.361   0.376 -0.0109  0.3955  0.2121
17759TIP3    H174692   6.440   6.304   0.317 -1.4369 -0.2220 -0.4404
17759TIP3    H274693   6.384   6.444   0.329 -1.1782 -0.1084 -0.5350
17760TIP3   OH274694   4.069   5.018  16.200  0.2863 -0.5196  0.3846
17760TIP3    H174695   4.079   4.993  16.292 -0.6489  0.8642  0.8945
17760TIP3    H274696   4.091   4.939  16.151  1.4063 -1.1100  1.7714
17761TIP3   OH274697   6.090   0.377  11.982 -0.3070  0.0185  0.5579
17761TIP3    H174698   6.128   0.310  12.039  1.1387 -0.8232 -1.2929
17761TIP3    H274699   6.153   0.386  11.911 -0.7696  2.9342  0.4239
17762TIP3   OH274700   3.103   1.954   1.906 -0.4182 -0.1724 -0.5133
17762TIP3    H174701   3.140   1.865   1.910  0.4910 -0.0147 -3.1279
17762TIP3    H274702   3.170   2.010   1.944 -1.2719 -0.5812  1.7781
17763TIP3   OH274703   3.585   1.714   4.625  0.0086 -0.0399 -0.5670
17763TIP3    H174704   3.656   1.673   4.674  0.0118 -2.0293 -2.1217
17763TIP3    H274705   3.521   1.739   4.692  0.0831 -2.5090  0.5213
17764TIP3   OH274706   2.245   2.202   5.777  1.1316 -0.3519  0.1276
17764TIP3    H174707   2.259   2.178   5.686 -1.9811 -2.0537 -0.0581
17764TIP3    H274708   2.265   2.122   5.826  0.8348 -0.0917  0.6825
17765TIP3   OH274709   6.220   6.173   2.604 -0.7309 -0.2499  0.2021
17765TIP3    H174710   6.152   6.235   2.629 -1.7224 -1.3486  0.3527
17765TIP3    H274711   6.173   6.106   2.554  0.4229 -0.5190 -0.5366
17766TIP3   OH274712   3.558   6.479   3.537 -0.6915 -0.4699  0.0733
17766TIP3    H174713   3.509   6.551   3.498  1.6623 -0.2336 -2.8214
17766TIP3    H274714   3.550   6.408   3.474 -0.7219 -1.8450  1.5714
17767TIP3   OH274715   4.188   2.621   4.532  0.1063  0.0923  0.6479
17767TIP3    H174716   4.166   2.610   4.624 -0.5690  0.9359  0.5922
17767TIP3    H274717   4.118   2.675   4.496 -0.0492 -0.8431 -0.5319
17768TIP3   OH274718   1.423   5.638   4.952 -0.2259 -0.1186  0.6959
17768TIP3    H174719   1.343   5.586   4.950  0.1753 -0.7392  0.4430
17768TIP3    H274720   1.418   5.687   5.034 -0.1892 -1.2373  1.3888
17769TIP3   OH274721   6.155   1.308   0.535  0.0856  0.8823  0.8323
17769TIP3    H174722   6.061   1.317   0.546 -0.0373  0.6584 -0.0125
17769TIP3    H274723   6.174   1.346   0.449  0.5377 -0.4734  0.3088
17770TIP3   OH274724   0.103   3.886  16.198  0.7403  0.6889 -0.3261
17770TIP3    H174725   0.163   3.816  16.223  0.4172  0.5603  0.0955
17770TIP3    H274726   0.155   3.966  16.205  1.2204  0.4705 -1.1614
17771TIP3   OH274727   3.589   6.498   3.074 -0.4943 -0.9843 -0.1800
17771TIP3    H174728   3.543   6.510   2.991 -1.3837 -1.3376  0.2498
17771TIP3    H274729   3.645   6.575   3.082 -0.8578 -0.6498 -0.8137
17772TIP3   OH274730   6.417   0.462   1.826  0.5687  1.2254  0.2156
17772TIP3    H174731   6.357   0.430   1.893 -1.0186  2.1673 -0.7001
17772TIP3    H274732   6.459   0.538   1.866  0.7798  0.8657  0.6813
17773TIP3   OH274733   3.311   4.925   0.115  0.4386  0.0892 -0.2229
17773TIP3    H174734   3.317   4.927   0.211  0.4403  1.7640 -0.2232
17773TIP3    H274735   3.252   4.997   0.093  1.7386  0.8011 -1.5605
17774TIP3   OH274736   3.642   1.655  16.848  0.0934 -0.3610 -0.1408
17774TIP3    H174737   3.683   1.580  16.804  1.4285 -0.5667  1.3549
17774TIP3    H274738   3.573   1.617  16.901 -0.2197 -0.3413 -0.5283
17775TIP3   OH274739   0.039   0.377  10.404  0.4174 -0.5754 -0.0793
17775TIP3    H174740  -0.047   0.365  10.445 -1.0230  1.2530 -2.2397
17775TIP3    H274741   0.029   0.337  10.317  0.7441  1.9578 -1.3792
17776TIP3   OH274742   2.153   3.001   3.342  0.7936  0.2192 -0.3832
17776TIP3    H174743   2.184   3.092   3.335  1.6795 -0.1142 -0.8534
17776TIP3    H274744   2.189   2.958   3.264 -0.2358 -0.3630 -0.5460
17777TIP3   OH274745   6.422   6.209  15.959  0.0899  0.5139  0.5516
17777TIP3    H174746   6.483   6.196  16.032 -0.5217 -0.1255  0.9713
17777TIP3    H274747   6.343   6.244  16.000 -0.2366  0.2091  0.1959
17778TIP3   OH274748   3.270   3.456  10.720 -0.0401  0.3320  0.4689
17778TIP3    H174749   3.354   3.455  10.675  0.8477  1.1890  2.0066
17778TIP3    H274750   3.240   3.365  10.720 -0.2879  0.3604 -2.1375
17779TIP3   OH274751   0.892   1.414  16.522 -0.6352  0.3772 -0.3345
17779TIP3    H174752   0.834   1.388  16.450  0.0736  1.0564 -1.1677
17779TIP3    H274753   0.832   1.436  16.594 -1.3024 -3.0080  0.2895
17780TIP3   OH274754   5.689   6.441  14.952 -0.0978 -0.1438 -0.3927
17780TIP3    H174755   5.734   6.384  15.014 -1.9261  0.1939  1.3644
17780TIP3    H274756   5.599   6.408  14.951 -1.1481  2.4865  0.4600
17781TIP3   OH274757   1.507   6.169   3.009 -0.2732 -0.1288  0.3888
17781TIP3    H174758   1.566   6.098   2.986  3.5575  3.5780 -2.8884
17781TIP3    H274759   1.431   6.156   2.951  0.4585 -1.3624 -0.3426
17782TIP3   OH274760   1.593   2.683  14.416  0.0073  0.2419  0.1190
17782TIP3    H174761   1.536   2.653  14.344 -0.3016 -0.2163  0.5491
17782TIP3    H274762   1.550   2.762  14.449  0.7325  1.1102 -0.9053
17783TIP3   OH274763   6.071   5.213  10.309  0.6252  0.0121 -0.2188
17783TIP3    H174764   6.148   5.202  10.364  0.7383 -0.7901 -0.5267
17783TIP3    H274765   6.005   5.156  10.348  0.1118  0.8542  0.1648
17784TIP3   OH274766   3.809   3.412   3.610  0.6013  0.0897 -0.1172
17784TIP3    H174767   3.892   3.373   3.582  0.0796 -2.0892  1.1676
17784TIP3    H274768   3.746   3.385   3.543  0.4742 -0.2680  0.1451
17785TIP3   OH274769   6.004   3.177  16.150  0.2008  0.5926  0.1824
17785TIP3    H174770   5.961   3.158  16.066 -1.3463 -0.8548  1.2205
17785TIP3    H274771   6.084   3.126  16.148  0.9507  1.7472 -0.9809
17786TIP3   OH274772   2.379   6.300  15.311 -0.1868  0.3127  0.3279
17786TIP3    H174773   2.308   6.311  15.248 -0.8093  4.0113  1.4542
17786TIP3    H274774   2.336   6.300  15.397  0.7539 -3.4210  0.9925
17787TIP3   OH274775   1.497   4.084  12.133 -0.3534  0.1880 -0.4623
17787TIP3    H174776   1.412   4.106  12.172 -0.5537 -1.0909 -0.1468
17787TIP3    H274777   1.507   4.147  12.061 -0.1289  2.4043  1.3776
17788TIP3   OH274778   6.174   6.199   0.635  0.1961  0.3756  0.3843
17788TIP3    H174779   6.231   6.142   0.583  0.3007 -0.2422  1.1569
17788TIP3    H274780   6.089   6.154   0.635  0.0444  0.6616  0.2717
17789TIP3   OH274781   0.120   4.512  15.443  0.2048  0.0737 -0.2535
17789TIP3    H174782   0.149   4.438  15.496  1.1093 -0.8181 -1.9078
17789TIP3    H274783   0.100   4.580  15.506  1.5917 -0.8116  1.2216
17790TIP3   OH274784   6.664   4.438  15.792 -0.1239 -0.1624 -0.3597
17790TIP3    H174785   6.698   4.349  15.787  1.4214  0.3278  0.6027
17790TIP3    H274786   6.736   4.493  15.761 -0.8715  0.7937 -0.4723
17791TIP3   OH274787   4.121   6.096  15.679  0.1015 -0.2920 -0.8384
17791TIP3    H174788   4.211   6.125  15.664  0.5273 -0.3906  1.2319
17791TIP3    H274789   4.069   6.175  15.672  0.3763 -0.1688 -1.6645
17792TIP3   OH274790   4.449   6.818  16.229 -0.1341  0.2093  0.7346
17792TIP3    H174791   4.491   6.879  16.169  0.6357 -0.8064  0.2154
17792TIP3    H274792   4.361   6.806  16.195 -0.3954  1.2491  1.0148
17793TIP3   OH274793   4.085   2.988  10.393  0.1773 -0.0442 -0.1911
17793TIP3    H174794   4.020   3.041  10.348  1.3793  0.6047 -1.2351
17793TIP3    H274795   4.078   3.013  10.485 -0.9584  0.0901 -0.3089
17794TIP3   OH274796   6.548   2.009  12.606 -0.4909  0.3343 -0.1429
17794TIP3    H174797   6.519   1.995  12.696 -0.8838 -1.0283 -0.4704
17794TIP3    H274798   6.586   2.097  12.607  0.9626 -0.2427  1.7252
17795TIP3   OH274799   3.057   2.486  13.061 -0.2579 -0.6754  0.0508
17795TIP3    H174800   3.026   2.525  12.979  1.2900  3.3896  1.2000
17795TIP3    H274801   3.145   2.453  13.040 -0.3966 -0.8929 -0.2032
17796TIP3   OH274802   1.207   0.422   3.255  0.1540 -0.0701  0.0164
17796TIP3    H174803   1.125   0.461   3.224 -0.8667 -0.8390  1.5875
17796TIP3    H274804   1.242   0.488   3.316 -0.5632 -0.7278  1.1745
17797TIP3   OH274805   5.232   2.022  15.889  0.1652  0.5951  0.4434
17797TIP3    H174806   5.251   1.950  15.829  2.2256  0.3061  1.3365
17797TIP3    H274807   5.171   2.078  15.841  0.9399 -0.1431 -1.5258
17798TIP3   OH274808   6.457   2.916   4.098  0.1158 -0.0343 -0.4500
17798TIP3    H174809   6.466   3.008   4.124  0.1809 -0.4562  1.1501
17798TIP3    H274810   6.546   2.882   4.103 -0.2685 -0.9107  2.1018
17799TIP3   OH274811   2.982   5.832   0.946  0.1615 -0.1274  0.1963
17799TIP3    H174812   3.018   5.838   0.858  0.0987  0.1133  0.1861
17799TIP3    H274813   2.985   5.738   0.967 -2.7508 -0.6837 -1.3133
17800TIP3   OH274814   3.977   4.873   0.430  0.1667 -0.5232 -0.4001
17800TIP3    H174815   3.940   4.937   0.369 -1.7886 -2.1255 -1.0172
17800TIP3    H274816   3.934   4.891   0.513  2.0187  0.9626  0.2820
17801TIP3   OH274817   2.285   2.635  16.939  0.5723 -0.0648  0.2798
17801TIP3    H174818   2.338   2.583  16.999  1.2568 -1.7763 -1.6644
17801TIP3    H274819   2.319   2.613  16.852 -1.7139  0.6655 -0.8859
17802TIP3   OH274820   6.281   6.805   5.399  0.4932  0.2548 -0.1457
17802TIP3    H174821   6.334   6.727   5.416 -0.5071 -0.3514  0.2575
17802TIP3    H274822   6.339   6.863   5.348  1.1360 -0.8730 -0.7229
17803TIP3   OH274823   3.776   5.478   2.738 -0.3245  0.3081  0.4225
17803TIP3    H174824   3.847   5.530   2.701 -0.2934  0.0488  0.1209
17803TIP3    H274825   3.779   5.497   2.832  0.4443 -0.0772  0.4817
17804TIP3   OH274826   4.690   0.167   2.530  0.5962 -0.0672  0.4071
17804TIP3    H174827   4.682   0.092   2.472 -0.9068 -0.0664  0.5719
17804TIP3    H274828   4.724   0.131   2.612 -0.7128 -0.7111  0.6975
17805TIP3   OH274829   3.290   5.576   2.110  0.1157 -0.5898  0.5401
17805TIP3    H174830   3.205   5.617   2.121  0.9538  1.5129 -0.2979
17805TIP3    H274831   3.285   5.495   2.162 -2.1263 -0.1954  1.0290
17806TIP3   OH274832   0.981   3.060   1.873  0.1636 -0.3249  0.1414
17806TIP3    H174833   0.920   2.986   1.872 -0.2365 -0.0350  1.4868
17806TIP3    H274834   1.050   3.034   1.933  0.8955 -0.2598 -0.6483
17807TIP3   OH274835   1.111   4.588   3.938  0.1702  0.0158 -0.2520
17807TIP3    H174836   1.032   4.568   3.889 -0.7808  2.6381  0.0079
17807TIP3    H274837   1.105   4.534   4.017 -0.0968 -1.5830 -1.3383
17808TIP3   OH274838   3.363   6.814  11.270 -0.3162  0.3706 -0.2257
17808TIP3    H174839   3.305   6.836  11.344 -0.4098 -0.7217  0.0331
17808TIP3    H274840   3.315   6.846  11.193 -1.0051 -0.0067  0.0358
17809TIP3   OH274841   1.057   6.313  15.022 -0.4391 -1.0065 -0.1550
17809TIP3    H174842   1.138   6.278  15.057  0.3986  1.7602  0.9700
17809TIP3    H274843   0.998   6.316  15.098  0.2734  1.9250  0.3962
17810TIP3   OH274844   3.968   2.229  13.658 -0.2779 -0.0396  0.0630
17810TIP3    H174845   3.909   2.261  13.589 -0.6004  1.2853  0.9197
17810TIP3    H274846   3.940   2.276  13.736  0.5685 -0.9718  0.9435
17811TIP3   OH274847   1.448   4.498  15.576  0.6852  0.4953  0.4704
17811TIP3    H174848   1.516   4.447  15.620  1.1307 -0.1476 -0.9016
17811TIP3    H274849   1.411   4.438  15.512  0.6245  1.6209 -0.5917
17812TIP3   OH274850   3.724   2.940   1.320  0.6684 -0.4114 -0.1416
17812TIP3    H174851   3.662   3.001   1.361  2.0654  1.2180 -0.3350
17812TIP3    H274852   3.683   2.918   1.236  1.6511  3.2137 -1.7837
17813TIP3   OH274853   0.822   2.169  15.849  0.0546 -0.4095 -0.5767
17813TIP3    H174854   0.772   2.220  15.786 -0.1450 -0.2232 -0.2697
17813TIP3    H274855   0.810   2.215  15.932  1.2995  0.0506 -0.6170
17814TIP3   OH274856   4.495   5.784  14.949 -0.4154 -0.1429  0.2916
17814TIP3    H174857   4.446   5.702  14.943  1.0334 -1.0575  0.4662
17814TIP3    H274858   4.569   5.764  15.006 -0.8273  1.7232  1.5814
17815TIP3   OH274859   0.010   0.656  14.175 -0.0592  0.1616 -0.3349
17815TIP3    H174860   0.069   0.608  14.233 -1.0686  1.0886  1.5529
17815TIP3    H274861  -0.033   0.587  14.123  0.7167 -0.7189  0.1566
17816TIP3   OH274862   1.446   2.102  11.126 -0.1427 -0.1600 -0.8107
17816TIP3    H174863   1.505   2.099  11.050  0.0860  0.7650 -0.6741
17816TIP3    H274864   1.380   2.036  11.107 -0.6836  0.7727 -2.3082
17817TIP3   OH274865   5.155   2.145  15.276  0.0492 -0.2014  0.3632
17817TIP3    H174866   5.230   2.119  15.330  0.0645  0.2133  0.5470
17817TIP3    H274867   5.163   2.240  15.269 -0.3763 -0.1728  0.2524
17818TIP3   OH274868   6.397   6.558  16.751 -0.4468 -0.3330 -0.6874
17818TIP3    H174869   6.389   6.528  16.841  0.7332  2.5331  0.4822
17818TIP3    H274870   6.408   6.478  16.700 -1.7726 -2.0834  1.5795
17819TIP3   OH274871   0.523   0.854   5.678 -0.7249  0.6492 -0.9023
17819TIP3    H174872   0.564   0.768   5.679 -0.3604  0.7960 -1.8878
17819TIP3    H274873   0.494   0.868   5.768 -0.9182 -0.5594 -0.7598
17820TIP3   OH274874   0.330   3.458   0.097  0.1676 -0.1443  0.3953
17820TIP3    H174875   0.281   3.396   0.151 -0.9261 -0.6148 -1.0827
17820TIP3    H274876   0.298   3.544   0.123 -1.1428 -0.4227 -0.2254
17821TIP3   OH274877   3.420   4.169   2.906  0.8110 -0.1595  0.6793
17821TIP3    H174878   3.450   4.258   2.891  2.5652 -0.7971  0.1067
17821TIP3    H274879   3.458   4.144   2.990  0.8150 -0.5563  0.5645
17822TIP3   OH274880   2.644   4.737   0.713  0.2992 -0.2316  0.0289
17822TIP3    H174881   2.578   4.745   0.644  1.8990 -2.8767 -2.0176
17822TIP3    H274882   2.653   4.643   0.727  0.5334  0.1630  3.4846
17823TIP3   OH274883   6.334   1.927  11.680  0.0591  0.3134 -0.1402
17823TIP3    H174884   6.368   1.975  11.605 -0.2317  1.8743  0.6684
17823TIP3    H274885   6.301   1.845  11.644  1.1223  0.4495 -1.5000
17824TIP3   OH274886   4.445   4.654   6.451  0.2228  0.1158  0.1580
17824TIP3    H174887   4.447   4.747   6.475 -3.8145  0.2657  0.5478
17824TIP3    H274888   4.447   4.654   6.356  1.5125  0.4586  0.1613
17825TIP3   OH274889   1.169   4.937   4.206 -0.2851 -0.1205 -0.3542
17825TIP3    H174890   1.102   4.976   4.261  0.0440  2.1559 -1.4538
17825TIP3    H274891   1.244   4.997   4.213  1.5929 -2.4085  0.5884
17826TIP3   OH274892   3.644   3.398   4.793 -0.1163 -0.0780 -0.0784
17826TIP3    H174893   3.617   3.314   4.756  1.1951 -0.4930 -0.1489
17826TIP3    H274894   3.580   3.415   4.862 -0.3571 -1.1739 -0.0089
17827TIP3   OH274895   2.270   1.822   2.097 -0.1666 -0.1469  0.4611
17827TIP3    H174896   2.175   1.837   2.090 -0.1542 -0.2956 -0.0533
17827TIP3    H274897   2.287   1.747   2.041  0.4859  0.8418 -0.7012
17828TIP3   OH274898   3.983   2.817  14.345 -0.6132  0.8030  0.4748
17828TIP3    H174899   3.987   2.746  14.281 -2.2862 -1.1040  2.3337
17828TIP3    H274900   4.073   2.826  14.376 -0.5307 -1.4857  1.1123
17829TIP3   OH274901   3.794   3.461  15.835  0.7899 -0.5665 -0.3804
17829TIP3    H174902   3.831   3.415  15.910 -1.8194 -1.8604  0.2123
17829TIP3    H274903   3.761   3.392  15.777 -2.4038  0.4132  0.0920
17830TIP3   OH274904   2.739   6.156   2.689 -0.4556 -0.0973 -0.3373
17830TIP3    H174905   2.787   6.136   2.608 -0.2540  0.4375 -0.3545
17830TIP3    H274906   2.650   6.176   2.660 -0.6396 -0.8578 -0.3280
17831TIP3   OH274907   5.812   1.681  10.592  0.1568 -0.1422  0.2184
17831TIP3    H174908   5.854   1.673  10.506 -0.7829 -1.8804 -0.1313
17831TIP3    H274909   5.768   1.766  10.589  0.3103 -0.0823 -0.9532
17832TIP3   OH274910   5.383   1.331  14.151 -0.8580 -0.1716 -0.8069
17832TIP3    H174911   5.395   1.397  14.218  1.5552  1.0429 -2.2650
17832TIP3    H274912   5.342   1.257  14.196 -2.0596  1.6555  1.2590
17833TIP3   OH274913   3.157   3.051  12.791 -0.3467 -0.0775  0.2561
17833TIP3    H174914   3.238   3.087  12.756 -0.7309  0.7792  0.2206
17833TIP3    H274915   3.183   3.003  12.870  0.0116  1.5678  1.1736
17834TIP3   OH274916   5.231   3.600  11.799  0.4877 -0.1327  0.0076
17834TIP3    H174917   5.145   3.561  11.781  0.5632 -0.4808  0.3887
17834TIP3    H274918   5.289   3.560  11.735  0.5637 -0.6466  0.3936
17835TIP3   OH274919   4.291   1.343   3.413  0.3458  0.6285  0.2729
17835TIP3    H174920   4.375   1.379   3.442 -0.6139  1.8529  1.6629
17835TIP3    H274921   4.225   1.400   3.452 -1.1444  0.5610 -1.9248
17836TIP3   OH274922   4.800   5.423  12.667 -0.3827 -0.1092 -0.1648
17836TIP3    H174923   4.754   5.455  12.590  0.4414  0.8298 -0.2859
17836TIP3    H274924   4.874   5.374  12.633 -1.1686 -1.4900  0.0302
17837TIP3   OH274925   0.466   0.218  13.447  0.3865  0.1221  0.6590
17837TIP3    H174926   0.537   0.208  13.510  0.8954  1.8180  0.3987
17837TIP3    H274927   0.486   0.154  13.379  0.3046 -1.1203  1.7702
17838TIP3   OH274928   3.558   5.049  13.193  0.6201 -0.1643 -0.1676
17838TIP3    H174929   3.596   5.012  13.273  0.9426  0.1037 -0.1914
17838TIP3    H274930   3.471   5.080  13.219  1.2732  1.2395  0.4505
17839TIP3   OH274931   0.665   5.242   4.214 -0.9443  0.0442 -0.2250
17839TIP3    H174932   0.757   5.221   4.229 -1.3645 -1.3855  0.5507
17839TIP3    H274933   0.633   5.171   4.157 -1.0902  1.6423 -2.2408
17840TIP3   OH274934   2.058   2.029   1.021 -0.2819  0.3545  0.5289
17840TIP3    H174935   2.132   2.044   1.079  1.5633 -0.7787 -1.3784
17840TIP3    H274936   1.981   2.037   1.077  1.3807 -1.1456  3.2311
17841TIP3   OH274937   5.038   1.248   1.215 -0.8384  0.3185 -0.0322
17841TIP3    H174938   4.958   1.195   1.222 -0.5012 -0.0219  1.6505
17841TIP3    H274939   5.043   1.272   1.123 -3.1256  0.7027 -0.1112
17842TIP3   OH274940   3.087   2.735  14.771  0.2078  0.1565  0.2484
17842TIP3    H174941   3.059   2.763  14.858  3.1896 -1.4972  1.9151
17842TIP3    H274942   3.133   2.810  14.735  2.1370 -0.2328  1.7414
17843TIP3   OH274943   2.531   5.197   0.963 -0.5496  0.5526 -0.4552
17843TIP3    H174944   2.467   5.266   0.945 -1.0016  0.7833  1.7968
17843TIP3    H274945   2.478   5.124   0.996  0.0981 -0.2482 -1.1715
17844TIP3   OH274946   6.190   5.307  16.446 -0.5756  0.8509 -0.0189
17844TIP3    H174947   6.260   5.251  16.481 -1.4296  0.8333  1.8057
17844TIP3    H274948   6.109   5.261  16.468 -1.2092  1.4030 -1.1152
17845TIP3   OH274949   0.364   0.432  11.740  0.2872  0.7255  0.2777
17845TIP3    H174950   0.427   0.502  11.725  3.4846 -2.0363 -0.3511
17845TIP3    H274951   0.415   0.351  11.731 -2.8996 -1.7191  2.0035
17846TIP3   OH274952   1.912   3.369   0.856 -0.0945 -0.2838 -0.3051
17846TIP3    H174953   1.981   3.403   0.799  0.7608 -1.1482  0.1825
17846TIP3    H274954   1.941   3.391   0.945  0.0074 -1.4107 -0.0427
17847TIP3   OH274955   0.351   3.562  13.910  0.3865 -0.0111 -0.4075
17847TIP3    H174956   0.325   3.499  13.978 -1.9802  1.3085  0.0190
17847TIP3    H274957   0.424   3.610  13.948  0.9418 -1.1922  0.0473
17848TIP3   OH274958   5.242   6.718   4.845  0.2215  0.5051  0.1247
17848TIP3    H174959   5.304   6.754   4.908  1.3139 -0.2886 -0.4760
17848TIP3    H274960   5.296   6.673   4.780 -1.0222 -1.7825  0.5632
17849TIP3   OH274961   5.312   0.414   5.870 -0.1440 -0.1009  0.2741
17849TIP3    H174962   5.307   0.508   5.889 -0.1274 -0.0590  0.0702
17849TIP3    H274963   5.239   0.376   5.918 -1.0828  0.2073 -0.8541
17850TIP3   OH274964   3.496   4.216  14.372  0.5986 -0.1942 -0.1234
17850TIP3    H174965   3.546   4.243  14.294 -1.6999  0.4850 -1.4573
17850TIP3    H274966   3.468   4.127  14.352  2.5781 -1.2357  1.3704
17851TIP3   OH274967   5.356   3.911   5.200 -0.6837  0.0941  0.5477
17851TIP3    H174968   5.317   3.967   5.133  1.0515  1.2404  0.4393
17851TIP3    H274969   5.292   3.840   5.212 -0.6372 -0.7272 -3.0367
17852TIP3   OH274970   0.220   4.004   3.031 -0.0448  0.4118 -0.0638
17852TIP3    H174971   0.202   4.069   2.963  0.0518 -0.3916 -0.8733
17852TIP3    H274972   0.274   4.050   3.094 -0.6611  1.3591 -0.2054
17853TIP3   OH274973   3.893   6.591   3.811 -0.0360  0.0093 -0.1959
17853TIP3    H174974   3.959   6.549   3.866  0.5403 -1.2810 -1.8001
17853TIP3    H274975   3.903   6.685   3.829  2.7230 -0.0688 -0.8993
17854TIP3   OH274976   5.530   2.932   6.717  0.8741  0.0137 -0.0372
17854TIP3    H174977   5.497   2.845   6.694  0.9134  0.0252 -0.1393
17854TIP3    H274978   5.621   2.916   6.743  1.5392  0.2911 -2.0499
17855TIP3   OH274979   2.010   0.980   1.857  0.1378  0.0254  0.2269
17855TIP3    H174980   2.027   0.902   1.909 -0.6573 -2.3242 -2.6999
17855TIP3    H274981   1.915   0.981   1.846  0.2719  0.4115 -1.1214
17856TIP3   OH274982   6.589   1.573  12.294 -0.3173  0.1149  0.4592
17856TIP3    H174983   6.547   1.634  12.234  0.9771 -0.5607 -1.1945
17856TIP3    H274984   6.551   1.488  12.274 -0.2289 -0.0418  0.9379
17857TIP3   OH274985   1.024   0.316  16.423  0.7190  0.1251 -0.0850
17857TIP3    H174986   0.980   0.398  16.446 -1.0725 -0.7131 -0.3518
17857TIP3    H274987   0.983   0.288  16.342  3.0301  0.1616 -1.3549
17858TIP3   OH274988   2.632   4.972  12.541 -0.0342  0.3226  0.3341
17858TIP3    H174989   2.553   4.948  12.492  1.2889 -0.5663 -1.5037
17858TIP3    H274990   2.601   5.031  12.610 -2.7248 -2.4992  1.7691
17859TIP3   OH274991   4.844   1.694  15.179 -0.0900  0.2096 -0.2346
17859TIP3    H174992   4.880   1.779  15.205  1.2626 -0.1110 -0.9691
17859TIP3    H274993   4.860   1.637  15.254 -0.7115  0.5049  0.1335
17860TIP3   OH274994   0.583   0.462   1.367 -0.0976 -0.6203 -0.5118
17860TIP3    H174995   0.542   0.379   1.345 -0.7940 -0.5683  0.5429
17860TIP3    H274996   0.511   0.525   1.367 -0.0707 -0.5382  1.4116
17861TIP3   OH274997   2.870   0.008   5.504  0.2502 -0.3109  0.1996
17861TIP3    H174998   2.850   0.050   5.588  1.7908 -0.7509  0.8352
17861TIP3    H274999   2.924  -0.068   5.528 -2.2641 -2.6032 -0.9119
17862TIP3   OH275000   5.574   3.948   2.843 -0.4643  0.3258  0.0925
17862TIP3    H175001   5.537   3.953   2.755 -0.6957 -0.8916  0.1015
17862TIP3    H275002   5.580   4.039   2.872  0.2263  0.7859 -1.4236
17863TIP3   OH275003   4.973   0.191  15.645 -0.3846  0.1853 -0.1654
17863TIP3    H175004   4.978   0.167  15.737  0.5670 -1.0082 -0.4943
17863TIP3    H275005   5.064   0.201  15.618 -0.6939  2.4601 -0.5298
17864TIP3   OH275006   1.679   3.918   5.053 -0.1442  0.4738 -0.1378
17864TIP3    H175007   1.678   3.875   5.138 -0.5937  0.3791 -0.1882
17864TIP3    H275008   1.715   4.005   5.071  1.0995 -0.0309 -0.0994
17865TIP3   OH275009   2.026   0.458  13.791  0.1753 -0.2318  0.2350
17865TIP3    H175010   1.943   0.413  13.776  0.3656 -0.9074  1.0644
17865TIP3    H275011   2.069   0.459  13.706 -1.3360  1.5547 -0.5708
17866TIP3   OH275012   0.634   6.812   5.456  0.3813  0.2744  0.3892
17866TIP3    H175013   0.593   6.749   5.396  1.7262 -0.7334  0.4741
17866TIP3    H275014   0.683   6.757   5.518 -0.3590  1.3314  1.9523
17867TIP3   OH275015   4.295   6.276   3.979  0.6307  0.1024  0.3424
17867TIP3    H175016   4.348   6.210   3.933 -0.1857 -0.9258  0.8497
17867TIP3    H275017   4.228   6.226   4.024 -0.2347  1.3186  0.4545
17868TIP3   OH275018   6.772   3.088  15.317  0.6666  0.2141  0.2403
17868TIP3    H175019   6.796   3.149  15.386 -0.2303  1.7228 -0.7186
17868TIP3    H275020   6.684   3.058  15.340  1.3193 -1.2380  1.0129
17869TIP3   OH275021   1.855   1.661  12.724  0.0067  0.0646  0.0976
17869TIP3    H175022   1.866   1.656  12.629  0.6591  0.8225  0.1256
17869TIP3    H275023   1.943   1.679  12.757 -0.2442 -0.0543  0.8378
17870TIP3   OH275024   0.520   4.565  11.976  0.8754  0.5105  0.2736
17870TIP3    H175025   0.476   4.611  11.905  0.1523 -0.6135 -0.0387
17870TIP3    H275026   0.466   4.583  12.053 -0.2963 -0.9858 -0.1364
17871TIP3   OH275027   4.862   4.931   5.648  0.0614  0.0298 -0.1969
17871TIP3    H175028   4.954   4.956   5.644  0.5111 -1.6354 -1.2439
17871TIP3    H275029   4.817   4.994   5.592  0.3241  1.6687  1.3637
17872TIP3   OH275030   4.367   1.441  10.947 -0.3172  0.2163 -0.2220
17872TIP3    H175031   4.406   1.364  10.904 -1.2463 -0.6236  0.3984
17872TIP3    H275032   4.280   1.449  10.907  0.2250  1.7292 -1.1812
17873TIP3   OH275033   6.309   3.426   4.233 -0.3359 -0.4264 -0.2605
17873TIP3    H175034   6.230   3.378   4.259 -1.0920  1.2493  0.6935
17873TIP3    H275035   6.307   3.425   4.137 -1.6522 -0.2209 -0.2534
17874TIP3   OH275036   1.252   5.620  10.983 -0.0470  0.2187  0.8250
17874TIP3    H175037   1.239   5.531  10.949 -1.6114  0.2271  1.3495
17874TIP3    H275038   1.313   5.609  11.056  0.7831 -0.2328  0.0864
17875TIP3   OH275039   3.052   1.280  15.848 -0.0124 -0.3271  0.2062
17875TIP3    H175040   3.129   1.337  15.851  1.0943 -1.7965  1.7916
17875TIP3    H275041   3.081   1.198  15.888 -2.2174 -1.1770  0.2203
17876TIP3   OH275042   5.394   1.445  11.036  0.2668 -0.4730  0.1649
17876TIP3    H175043   5.463   1.382  11.052  0.4057 -0.2604  0.3989
17876TIP3    H275044   5.349   1.412  10.958  0.0139 -1.1365  0.5837
17877TIP3   OH275045   4.422   1.893   4.473 -0.2495  0.4398  0.0908
17877TIP3    H175046   4.482   1.868   4.403 -1.4330  1.6398 -1.4440
17877TIP3    H275047   4.478   1.903   4.550  1.5408  1.5146 -1.2585
17878TIP3   OH275048   5.950   2.341   1.074  0.5098 -0.7524 -0.2159
17878TIP3    H175049   6.001   2.422   1.074 -1.5798  0.6553 -0.0625
17878TIP3    H275050   5.879   2.358   1.136 -0.7453 -2.1918 -1.1926
17879TIP3   OH275051   3.161   6.651  13.176  0.2277 -0.1303  0.4361
17879TIP3    H175052   3.250   6.617  13.173 -0.5267 -2.2741  1.0368
17879TIP3    H275053   3.132   6.651  13.084  1.1370  1.5682  0.0975
17880TIP3   OH275054   5.334   0.931  16.847  0.4300  0.2046  0.6149
17880TIP3    H175055   5.317   0.843  16.815  1.9665 -0.3235  1.1789
17880TIP3    H275056   5.332   0.923  16.943 -1.1123  1.1581  0.7173
17881TIP3   OH275057   0.494   6.238  13.516 -0.0691 -0.4641  0.3668
17881TIP3    H175058   0.422   6.240  13.453  0.7443 -1.3442 -0.6195
17881TIP3    H275059   0.458   6.193  13.592 -1.2814  1.2453  0.8665
17882TIP3   OH275060   0.528   5.446  11.241 -0.2067 -0.1007  0.5869
17882TIP3    H175061   0.471   5.475  11.170  1.9226 -0.1934 -1.2577
17882TIP3    H275062   0.500   5.357  11.260 -0.7488 -0.1044 -0.1927
17883TIP3   OH275063   5.541   6.535  13.767 -0.3991  0.1875  0.4084
17883TIP3    H175064   5.465   6.592  13.769 -0.0595  0.7018 -0.6716
17883TIP3    H275065   5.616   6.593  13.777 -0.0921 -0.1952  0.3735
17884TIP3   OH275066   3.152   0.943   6.377  0.3262 -0.0932  0.0907
17884TIP3    H175067   3.222   0.905   6.325  0.5997  1.1840 -0.5197
17884TIP3    H275068   3.192   1.019   6.421 -0.4783  0.2108  0.3276
17885TIP3   OH275069   0.795   3.977   6.246  0.1977  0.0857 -0.0337
17885TIP3    H175070   0.879   4.015   6.273 -0.1689  2.5509 -1.9971
17885TIP3    H275071   0.820   3.908   6.183  0.7695 -0.1931  0.4896
17886TIP3   OH275072   4.270   4.207   4.678  0.1263  0.4784  0.2075
17886TIP3    H175073   4.187   4.232   4.719 -0.0544  0.3379 -0.0760
17886TIP3    H275074   4.324   4.286   4.686  0.2078  0.3551  1.0031
17887TIP3   OH275075   5.670   4.616  13.277  0.3838  0.3567 -0.7152
17887TIP3    H175076   5.648   4.708  13.265  0.4572  0.4054 -0.4729
17887TIP3    H275077   5.627   4.572  13.203 -1.0911  0.3663  0.1043
17888TIP3   OH275078   3.147   2.810   2.418  0.1452  0.7605 -0.1805
17888TIP3    H175079   3.112   2.743   2.359  1.4667  1.8898 -2.4051
17888TIP3    H275080   3.239   2.786   2.429 -0.2618  0.0400  2.3349
17889TIP3   OH275081   2.005   0.541  14.542  0.5675 -0.5665 -0.1039
17889TIP3    H175082   2.002   0.614  14.604  2.6773 -1.2681  0.8944
17889TIP3    H275083   2.040   0.468  14.592  1.4813 -1.4116 -1.8902
17890TIP3   OH275084   0.722   1.482  16.715 -0.1886  0.0118  0.3271
17890TIP3    H175085   0.708   1.435  16.797  0.1237  0.1344  0.4539
17890TIP3    H275086   0.651   1.545  16.712 -0.9341 -0.8240 -0.1092
17891TIP3   OH275087   6.644   0.405   0.744 -0.5063 -0.2072 -0.6925
17891TIP3    H175088   6.674   0.496   0.747  0.6945 -0.6256  0.5776
17891TIP3    H275089   6.719   0.355   0.713  0.2484 -1.2644  2.5214
17892TIP3   OH275090   6.553   0.038  16.632 -0.1077 -0.2631 -0.5931
17892TIP3    H175091   6.544   0.032  16.727  0.9207  0.7727 -0.4089
17892TIP3    H275092   6.580   0.129  16.616 -2.7494  0.3843 -2.0929
17893TIP3   OH275093   6.515   4.001  14.131  0.4255 -0.3692  0.0255
17893TIP3    H175094   6.585   4.035  14.186  0.5986  0.9353 -0.9433
17893TIP3    H275095   6.478   4.079  14.089 -0.3659 -1.2218 -0.9051
17894TIP3   OH275096   1.513   3.929   3.077 -0.1387  0.3173  0.6750
17894TIP3    H175097   1.513   3.925   3.172 -2.0871 -0.0484  0.7059
17894TIP3    H275098   1.436   3.981   3.055 -0.7871 -1.1264 -0.7081
17895TIP3   OH275099   2.574   4.863   1.266  0.2706  0.2829 -0.0541
17895TIP3    H175100   2.550   4.829   1.352  1.2187 -0.6338 -0.1293
17895TIP3    H275101   2.545   4.796   1.205 -0.7064  1.0857 -0.5008
17896TIP3   OH275102   0.082   4.693  14.452  0.3540 -0.4437 -0.2123
17896TIP3    H175103   0.048   4.735  14.374 -0.0245 -1.8733 -0.8440
17896TIP3    H275104   0.165   4.738  14.469  2.2210 -2.2820 -3.4621
17897TIP3   OH275105   6.762   6.372  12.734 -0.1952  0.4192  0.2499
17897TIP3    H175106   6.828   6.404  12.795  0.6224 -1.5143  0.4530
17897TIP3    H275107   6.813   6.327  12.666 -1.2876 -0.9545  0.3168
17898TIP3   OH275108   6.653   5.326   3.617  0.2701 -0.5400  0.1923
17898TIP3    H175109   6.595   5.278   3.675  1.1072 -1.3648  0.3724
17898TIP3    H275110   6.633   5.291   3.530  1.5716 -1.9934  0.4334
17899TIP3   OH275111   1.294   0.137   2.253  0.4096 -0.1326  0.0827
17899TIP3    H175112   1.298   0.224   2.214  0.7945 -0.4075 -0.4987
17899TIP3    H275113   1.242   0.149   2.333 -0.1599  0.4839 -0.3711
17900TIP3   OH275114   2.876   3.334  11.616 -0.7574 -0.3457  0.2594
17900TIP3    H175115   2.888   3.340  11.522  2.1148 -1.5397  0.4535
17900TIP3    H275116   2.831   3.415  11.640 -1.4662  0.0229 -2.0694
17901TIP3   OH275117   2.639   4.069  12.288  0.3867 -0.6615  0.0301
17901TIP3    H175118   2.555   4.037  12.321  1.6688 -2.2338  1.9927
17901TIP3    H275119   2.662   4.141  12.346 -0.3368  0.8983 -1.5482
17902TIP3   OH275120   1.091   1.483   5.648 -0.1463  0.0189  0.2835
17902TIP3    H175121   1.065   1.500   5.739  1.0976  2.2876  0.2896
17902TIP3    H275122   1.053   1.556   5.599 -1.8254 -1.8044 -1.2936
17903TIP3   OH275123   3.343   6.646  16.089  0.2820 -0.1123  0.4052
17903TIP3    H175124   3.369   6.664  16.180  0.9220 -0.9400  0.4052
17903TIP3    H275125   3.336   6.732  16.048  1.3719  0.2205  0.8772
17904TIP3   OH275126   3.365   1.648  10.509 -0.1269 -0.0064 -0.9123
17904TIP3    H175127   3.444   1.604  10.477 -0.6326 -1.1546 -0.6389
17904TIP3    H275128   3.317   1.671  10.429  0.1057 -0.0235 -1.0579
17905TIP3   OH275129   1.923   2.376  12.752  0.1103 -0.4325  0.1536
17905TIP3    H175130   1.829   2.379  12.736 -0.3728 -0.2019  2.5917
17905TIP3    H275131   1.931   2.354  12.845  2.5044 -1.5317 -0.2359
17906TIP3   OH275132   2.585   3.797  16.441  0.3380  0.6695  0.2778
17906TIP3    H175133   2.590   3.880  16.394  0.5856  1.0286  0.9140
17906TIP3    H275134   2.507   3.754  16.406 -0.7114  1.8653  1.0304
17907TIP3   OH275135   0.415   3.540   4.643  0.6944 -0.7356 -0.4398
17907TIP3    H175136   0.490   3.504   4.689  0.6149 -1.8531 -1.1371
17907TIP3    H275137   0.343   3.481   4.666 -0.1168  0.6255  0.6503
17908TIP3   OH275138   3.315   0.982  11.389  0.0872  0.1509 -0.0469
17908TIP3    H175139   3.312   0.916  11.459  1.0583  0.8213  0.6452
17908TIP3    H275140   3.250   1.047  11.416 -0.2418 -0.0731 -0.2843
17909TIP3   OH275141   0.463   1.743   2.848 -0.3782 -0.7045 -0.4883
17909TIP3    H175142   0.559   1.747   2.844 -0.3533  0.5756  0.9049
17909TIP3    H275143   0.445   1.663   2.898 -0.0331 -0.5943 -0.1860
17910TIP3   OH275144   3.379   6.432   4.173  0.5664  0.1409  0.1170
17910TIP3    H175145   3.412   6.518   4.146  2.0241 -0.6652 -0.8728
17910TIP3    H275146   3.336   6.397   4.094 -0.6133  0.2212  0.7106
17911TIP3   OH275147   0.009   4.745  15.629 -0.0445 -0.1924 -0.4092
17911TIP3    H175148  -0.031   4.771  15.546  1.6815  1.5165 -0.7762
17911TIP3    H275149   0.102   4.766  15.619  0.2311 -0.0421  1.9041
17912TIP3   OH275150   5.301   1.787  15.778  0.7612 -0.9088 -0.4031
17912TIP3    H175151   5.378   1.779  15.834  0.8355 -0.2097 -0.3945
17912TIP3    H275152   5.285   1.699  15.746  1.8728 -0.9771 -0.8030
17913TIP3   OH275153   4.911   4.421  12.989 -0.2990 -0.4664  0.1071
17913TIP3    H175154   4.977   4.400  13.055 -0.7401 -1.9592  0.1061
17913TIP3    H275155   4.948   4.386  12.907 -0.2478  0.4034 -0.2584
17914TIP3   OH275156   2.888   5.751  14.330 -0.2197  0.5653 -0.0057
17914TIP3    H175157   2.834   5.680  14.293  0.2283  0.0860  0.2470
17914TIP3    H275158   2.824   5.816  14.360 -0.6256  0.4626 -0.6156
17915TIP3   OH275159   0.425   1.569  15.121  0.1305  0.2388 -0.2487
17915TIP3    H175160   0.457   1.657  15.142 -1.8060  0.9579 -0.0723
17915TIP3    H275161   0.374   1.581  15.041 -0.5901 -0.6119  0.0628
17916TIP3   OH275162   6.388   4.221   5.657  0.1040  0.3253 -0.3872
17916TIP3    H175163   6.391   4.135   5.615 -1.2896 -0.3560  0.8283
17916TIP3    H275164   6.368   4.202   5.749  0.7589  1.9073  0.1123
17917TIP3   OH275165   3.262   4.955   6.124 -0.7391 -0.2012 -0.1667
17917TIP3    H175166   3.339   4.898   6.131  1.1178  2.2520  1.4349
17917TIP3    H275167   3.191   4.897   6.098  1.5630 -2.6804 -1.4506
17918TIP3   OH275168   0.994   3.648  16.018  0.0476  0.2335 -0.5430
17918TIP3    H175169   0.975   3.555  16.035  0.0225  0.5772  1.4526
17918TIP3    H275170   0.951   3.665  15.934  0.5068 -1.6869 -1.2399
17919TIP3   OH275171   2.597   6.497   0.792 -0.2441 -0.0209  0.6592
17919TIP3    H175172   2.532   6.460   0.851 -0.9455  0.3473  0.1298
17919TIP3    H275173   2.630   6.421   0.743 -0.7639 -0.1184  0.4552
17920TIP3   OH275174   2.723   0.575   1.114 -0.0090  0.1258 -0.1929
17920TIP3    H175175   2.714   0.518   1.038  1.4621  0.1968 -0.4500
17920TIP3    H275176   2.701   0.662   1.082  0.9592  0.2142 -0.6512
17921TIP3   OH275177   2.775   5.000  16.794 -0.0688 -0.1318 -0.3709
17921TIP3    H175178   2.817   5.064  16.737 -1.8200  0.4671 -1.0844
17921TIP3    H275179   2.681   5.012  16.777 -0.6897  0.0530  2.6315
17922TIP3   OH275180   0.978   1.468   4.250 -0.2451 -0.0451  0.1006
17922TIP3    H175181   0.928   1.445   4.328 -0.2662 -0.8863 -0.1503
17922TIP3    H275182   0.963   1.562   4.239 -0.8118 -0.0559  0.7038
17923TIP3   OH275183   1.348   4.263   1.956  0.1710 -0.2378 -0.3977
17923TIP3    H175184   1.365   4.339   1.901 -0.3410  1.5869  1.8203
17923TIP3    H275185   1.434   4.220   1.965  0.7248  0.7959 -0.6303
17924TIP3   OH275186   4.096   2.139   0.644  0.9276 -0.0044  0.5842
17924TIP3    H175187   4.046   2.107   0.569 -0.0494  1.2403  0.6815
17924TIP3    H275188   4.172   2.182   0.606  1.3230 -0.8616  0.3875
17925TIP3   OH275189   2.653   2.972   4.750  0.1058 -0.2774  0.1674
17925TIP3    H175190   2.621   2.937   4.668 -2.5610 -1.8837  1.7501
17925TIP3    H275191   2.743   2.940   4.756  0.1108 -0.7481 -1.7532
17926TIP3   OH275192   6.726   2.773   0.860  0.3809  0.0542 -0.4355
17926TIP3    H175193   6.763   2.845   0.809  1.2229 -0.8005 -1.0588
17926TIP3    H275194   6.776   2.773   0.941  3.2975 -2.3515 -2.0547
17927TIP3   OH275195   0.487   6.525   3.685 -0.3037  0.0883 -0.5383
17927TIP3    H175196   0.517   6.588   3.750 -1.2603  0.2205 -0.2105
17927TIP3    H275197   0.406   6.562   3.650 -0.3936 -0.5143 -1.0011
17928TIP3   OH275198   0.775   1.395   1.306 -0.2156 -0.2128 -0.3487
17928TIP3    H175199   0.754   1.327   1.370 -2.5508 -0.1490 -0.9499
17928TIP3    H275200   0.837   1.353   1.247 -0.1937 -1.2026  0.3495
17929TIP3   OH275201   6.731   2.111   3.869 -0.1142 -0.3904  0.0539
17929TIP3    H175202   6.743   2.084   3.779 -0.4474  0.0777 -0.1347
17929TIP3    H275203   6.650   2.068   3.897 -1.1261  1.0592 -0.5225
17930TIP3   OH275204   5.885   5.697  10.755  0.3952  0.0157  0.2441
17930TIP3    H175205   5.869   5.695  10.661  1.4605  2.4999 -0.0754
17930TIP3    H275206   5.981   5.700  10.763  0.5209 -3.3599  1.6085
17931TIP3   OH275207   6.733   6.129  15.902 -0.1028 -0.2633  0.3625
17931TIP3    H175208   6.783   6.207  15.924 -0.6970  0.0388  0.6424
17931TIP3    H275209   6.645   6.160  15.884 -0.7556 -1.0453  2.0558
17932TIP3   OH275210   1.356   4.297  14.608  0.3348 -0.9783  0.1752
17932TIP3    H175211   1.440   4.266  14.642 -0.0945 -1.4018  0.8888
17932TIP3    H275212   1.319   4.221  14.563  0.7721 -0.4997 -1.0423
17933TIP3   OH275213   4.856   1.533   2.544  0.0537 -0.6591 -0.5063
17933TIP3    H175214   4.836   1.555   2.635  1.5375  0.1805 -0.3489
17933TIP3    H275215   4.776   1.493   2.511 -1.2547  0.9615  0.5549
17934TIP3   OH275216   3.750   3.912  10.834 -0.3947  0.3170 -0.2269
17934TIP3    H175217   3.671   3.942  10.878  0.2101  1.2194  0.2697
17934TIP3    H275218   3.818   3.974  10.861  0.4270 -0.2886 -0.8492
17935TIP3   OH275219   0.854   1.650   3.343  0.5640 -0.2188  0.3122
17935TIP3    H175220   0.820   1.577   3.292 -1.7992  0.6177  0.5898
17935TIP3    H275221   0.842   1.623   3.434  2.3550 -0.6128  0.4846
17936TIP3   OH275222   6.133   1.492   3.945  0.2918 -0.0449 -0.5307
17936TIP3    H175223   6.192   1.465   3.874 -0.5672  0.7051 -1.5648
17936TIP3    H275224   6.071   1.420   3.954  0.5913 -0.2776 -0.3236
17937TIP3   OH275225   4.666   6.196  16.899 -0.0817 -1.2304 -0.1173
17937TIP3    H175226   4.706   6.221  16.816 -1.2019 -1.5355 -0.7772
17937TIP3    H275227   4.733   6.146  16.944  1.0460  0.1349 -0.2040
17938TIP3   OH275228   2.208   4.047  14.181 -0.1945 -0.2432  0.6637
17938TIP3    H175229   2.124   4.067  14.221  0.2578 -0.6071  1.8340
17938TIP3    H275230   2.233   4.127  14.137 -0.9091  0.0341  0.7423
17939TIP3   OH275231   3.530   0.671   3.280 -0.3672  0.9855 -0.0492
17939TIP3    H175232   3.504   0.609   3.348 -1.3225  0.3395 -0.9807
17939TIP3    H275233   3.448   0.706   3.246  0.1436  3.1481  0.7536
17940TIP3   OH275234   2.047   0.144   5.795  0.3443  0.4618 -0.5607
17940TIP3    H175235   2.120   0.119   5.852  1.5512  0.3687 -2.0970
17940TIP3    H275236   2.004   0.215   5.842  0.1308 -0.8538  1.3535
17941TIP3   OH275237   5.862   3.099  10.414 -0.1927  0.5710  0.2715
17941TIP3    H175238   5.850   3.017  10.462  1.8809 -0.0200 -0.1257
17941TIP3    H275239   5.903   3.158  10.478 -1.1552  1.1287  0.3872
17942TIP3   OH275240   5.803   0.454  16.181  0.3711 -0.1929 -0.3038
17942TIP3    H175241   5.731   0.482  16.238 -0.0208 -1.0961 -0.3343
17942TIP3    H275242   5.762   0.399  16.115  0.9339  0.2290 -1.0165
17943TIP3   OH275243   6.097   3.147   5.779  0.1742  0.2178  0.5812
17943TIP3    H175244   6.173   3.117   5.829 -0.7453  0.6568  2.3535
17943TIP3    H275245   6.121   3.236   5.750  1.2677 -0.5656 -1.0670
17944TIP3   OH275246   5.749   2.037   2.909 -0.8091 -0.3108  0.0007
17944TIP3    H175247   5.677   2.036   2.972 -0.0245  2.6744  1.1342
17944TIP3    H275248   5.821   2.080   2.956  0.7438 -0.5508 -2.0400
17945TIP3   OH275249   1.498   1.070  13.505 -0.0237  0.5110 -0.2607
17945TIP3    H175250   1.469   1.068  13.596  0.7164 -3.1059  0.0409
17945TIP3    H275251   1.592   1.088  13.511  0.0163  0.3168 -0.2864
17946TIP3   OH275252   2.416   1.784   0.938 -0.7115  0.7387 -0.1950
17946TIP3    H175253   2.416   1.797   0.843  0.8228  1.2387 -0.1595
17946TIP3    H275254   2.495   1.830   0.968 -0.6822 -0.1859  1.2185
17947TIP3   OH275255   1.533   6.028   3.377 -0.0335  0.2744 -0.4441
17947TIP3    H175256   1.531   6.108   3.324 -0.7460 -0.0354 -0.9083
17947TIP3    H275257   1.473   6.047   3.450  1.9850  1.2127  1.0624
17948TIP3   OH275258   4.986   2.143   4.691  0.5625 -1.0212  0.5798
17948TIP3    H175259   4.954   2.210   4.752  2.4524 -1.0051  1.6366
17948TIP3    H275260   4.915   2.079   4.688 -0.9117  0.5504  0.2429
17949TIP3   OH275261   3.608   2.171   2.873 -0.5789 -0.0521 -0.0802
17949TIP3    H175262   3.586   2.240   2.811 -1.2831  0.0268  0.2503
17949TIP3    H275263   3.695   2.195   2.906 -0.4262  0.1849 -0.6302
17950TIP3   OH275264   4.560   0.985  11.416 -0.0663 -0.5516  0.5174
17950TIP3    H175265   4.555   0.966  11.322 -0.5322 -0.0327  0.4326
17950TIP3    H275266   4.566   1.080  11.421 -0.1514 -0.5688  1.0238
17951TIP3   OH275267   1.912   4.243  12.068  0.8558  0.8772  0.1232
17951TIP3    H175268   1.852   4.181  12.108  0.5108  1.7646  1.0375
17951TIP3    H275269   1.985   4.190  12.037  0.7836  0.0549  1.2947
17952TIP3   OH275270   3.817   2.117  11.193  0.3205  0.1140  0.7432
17952TIP3    H175271   3.804   2.025  11.217  1.6119 -0.0484  0.8997
17952TIP3    H275272   3.844   2.160  11.274  0.5277  0.4592  0.4945
17953TIP3   OH275273   1.638   5.154   2.756  0.0351  0.5429  0.2171
17953TIP3    H175274   1.620   5.065   2.788 -0.3945  0.5052 -0.1136
17953TIP3    H275275   1.667   5.202   2.833  0.0836  0.1637  0.4377
17954TIP3   OH275276   6.249   3.020  16.775  0.2011 -0.0149 -0.9695
17954TIP3    H175277   6.234   3.005  16.681 -3.2963 -1.8051 -0.2635
17954TIP3    H275278   6.337   2.985  16.790  1.1132  0.8258 -3.6133
17955TIP3   OH275279   6.004   1.588   4.720 -0.3465 -0.1045  0.1969
17955TIP3    H175280   6.061   1.603   4.645 -0.6483 -0.9101 -0.1988
17955TIP3    H275281   6.063   1.575   4.794 -0.0473  0.4932  0.0696
17956TIP3   OH275282   0.321   4.413   3.572 -0.0080 -0.1757  0.5913
17956TIP3    H175283   0.239   4.420   3.622 -0.7890 -0.8704 -0.5273
17956TIP3    H275284   0.389   4.400   3.638 -0.8898 -0.2536  1.5126
17957TIP3   OH275285   2.173   1.331  11.452  0.1320 -0.4376  0.0600
17957TIP3    H175286   2.101   1.392  11.435  0.5858 -0.0845 -0.6046
17957TIP3    H275287   2.138   1.245  11.426 -0.0382 -0.2626 -0.2940
17958TIP3   OH275288   1.737   6.249   1.797 -0.2200  0.1927 -0.1213
17958TIP3    H175289   1.648   6.284   1.804 -0.7499 -0.5196 -2.3787
17958TIP3    H275290   1.785   6.316   1.749 -0.0527 -0.2563 -0.5822
17959TIP3   OH275291   5.655   4.690   0.683 -0.8187  1.2202 -0.3728
17959TIP3    H175292   5.664   4.660   0.773 -1.1078  1.0161 -0.4108
17959TIP3    H275293   5.736   4.737   0.665 -0.5462  0.8329 -0.1718
17960TIP3   OH275294   6.284   5.057  16.476 -0.3698 -0.1008 -0.5579
17960TIP3    H175295   6.332   5.037  16.396 -0.4274  1.5480 -1.0473
17960TIP3    H275296   6.195   5.025  16.459  0.0082 -1.2636 -0.4676
17961TIP3   OH275297   0.800   2.112  16.512  0.2731  0.7975  0.3728
17961TIP3    H175298   0.865   2.180  16.535  0.3348  0.5110  1.0728
17961TIP3    H275299   0.716   2.153  16.532  0.0897  1.7656 -2.0248
17962TIP3   OH275300   5.298   4.995   4.671 -0.0633  0.0253 -0.3387
17962TIP3    H175301   5.318   5.015   4.580 -0.7307  0.4583 -0.3966
17962TIP3    H275302   5.348   5.059   4.721 -0.8172  0.7363 -0.4633
17963TIP3   OH275303   5.019   5.103  11.204 -0.4701 -0.1143  0.9668
17963TIP3    H175304   4.938   5.054  11.187 -1.1022  0.1584  2.9429
17963TIP3    H275305   5.049   5.131  11.118 -3.2537  1.0004  0.2524
17964TIP3   OH275306   0.794   1.882  11.598  0.1277  0.7655  0.2837
17964TIP3    H175307   0.730   1.844  11.658  1.8053 -1.5828  0.6985
17964TIP3    H275308   0.868   1.822  11.600  1.3558  2.0559 -2.0923
17965TIP3   OH275309   4.126   4.363  16.736  0.0236  0.0381  1.1875
17965TIP3    H175310   4.090   4.439  16.782  1.4038  0.5994  1.3864
17965TIP3    H275311   4.051   4.305  16.723 -1.5869  2.3812 -0.9763
17966TIP3   OH275312   3.904   3.248  14.132 -0.3247  0.4052 -0.1209
17966TIP3    H175313   3.945   3.186  14.071  3.3440 -1.6747  3.8788
17966TIP3    H275314   3.823   3.205  14.160 -0.5168 -0.0073 -1.2676
17967TIP3   OH275315   2.749   0.901   3.996 -0.5336  0.2362  0.3168
17967TIP3    H175316   2.843   0.888   3.984 -0.2933  1.2341  0.9269
17967TIP3    H275317   2.727   0.849   4.073 -0.4212  0.2210  0.3387
17968TIP3   OH275318   5.742   1.647   6.579  0.4535 -0.1122  0.0124
17968TIP3    H175319   5.663   1.659   6.632 -1.1329 -1.0983 -2.0021
17968TIP3    H275320   5.718   1.580   6.515  2.5830  0.3358 -1.3444
17969TIP3   OH275321   1.239   1.233   2.604  0.2171 -0.8038 -0.3164
17969TIP3    H175322   1.168   1.296   2.590 -0.0315 -0.4924  1.9824
17969TIP3    H275323   1.265   1.207   2.516 -1.9555 -0.0524 -1.2539
17970TIP3   OH275324   0.313   5.670  11.339 -0.0275 -0.1830 -0.0060
17970TIP3    H175325   0.296   5.577  11.354  2.0190 -0.4913  0.7968
17970TIP3    H275326   0.270   5.715  11.412 -1.6681 -0.3910 -0.8068
17971TIP3   OH275327   1.139   4.788   2.353  0.4739 -0.4587  0.2639
17971TIP3    H175328   1.086   4.829   2.285  2.1428  1.5177  0.0517
17971TIP3    H275329   1.153   4.698   2.322  1.1074  0.3451 -2.0126
17972TIP3   OH275330   2.106   5.319  14.563 -0.1094  0.0221 -0.1324
17972TIP3    H175331   2.096   5.361  14.648  1.9632  0.2472  0.0519
17972TIP3    H275332   2.135   5.389  14.504 -0.0496 -0.4262 -0.6504
17973TIP3   OH275333   1.790   0.754   1.503  0.1513 -0.0974  0.4109
17973TIP3    H175334   1.702   0.775   1.534  0.8059 -0.2709  2.5566
17973TIP3    H275335   1.840   0.834   1.519  0.1646  0.4538 -1.9869
17974TIP3   OH275336   5.949   3.776  14.792 -0.2023  0.3561  0.2574
17974TIP3    H175337   6.036   3.785  14.752  0.2109  1.7493  1.3742
17974TIP3    H275338   5.888   3.780  14.719  0.6760 -1.5699 -0.6515
17975TIP3   OH275339   3.121   6.742  14.227 -0.7445 -0.3596  0.3424
17975TIP3    H175340   3.029   6.768  14.223 -0.7591 -0.5276 -0.8290
17975TIP3    H275341   3.133   6.685  14.151 -0.0129 -1.4708  1.2515
17976TIP3   OH275342   0.751   0.475   4.735 -0.1810 -0.1179 -0.3161
17976TIP3    H175343   0.685   0.538   4.704  0.6317  1.8104  1.6407
17976TIP3    H275344   0.701   0.414   4.790 -0.6643 -0.0542 -0.6698
17977TIP3   OH275345   0.289   1.150  14.219 -0.0607  0.3574 -0.5395
17977TIP3    H175346   0.277   1.171  14.126 -1.9789  0.1056 -0.3903
17977TIP3    H275347   0.250   1.224  14.265  0.4501  0.2488  0.0814
17978TIP3   OH275348   5.233   2.372   3.108 -0.1447 -0.1721 -0.2502
17978TIP3    H175349   5.235   2.465   3.129 -0.9673 -0.1254 -0.3537
17978TIP3    H275350   5.208   2.369   3.016 -0.3301 -0.5039 -0.1884
17979TIP3   OH275351   2.531   3.205   3.381  0.0277  0.9088  0.1433
17979TIP3    H175352   2.584   3.285   3.380 -0.6108  1.3415 -0.3222
17979TIP3    H275353   2.455   3.227   3.327 -0.3494  0.1148  0.3437
17980TIP3   OH275354   2.182   0.016  16.363  0.1364 -0.0376 -0.7794
17980TIP3    H175355   2.086   0.019  16.371  0.2705 -0.0150  1.6516
17980TIP3    H275356   2.199  -0.061  16.308 -1.2628 -0.6256 -0.4356
17981TIP3   OH275357   1.541   3.363   1.709 -0.5723 -0.4233  0.4048
17981TIP3    H175358   1.597   3.285   1.707 -1.3681 -1.0221 -2.4543
17981TIP3    H275359   1.452   3.329   1.702 -1.0450  0.6880  0.8855
17982TIP3   OH275360   4.487   0.840   5.433  0.2664 -0.0778  0.2183
17982TIP3    H175361   4.538   0.759   5.437 -1.3655 -1.1665 -0.0695
17982TIP3    H275362   4.514   0.889   5.511  1.1593 -0.9784  0.4938
17983TIP3   OH275363   5.492   6.343   4.653 -0.5542  0.0861  0.0337
17983TIP3    H175364   5.521   6.404   4.585  0.9312 -2.6008 -1.9986
17983TIP3    H275365   5.449   6.273   4.604 -1.0053 -1.1382  2.0779
17984TIP3   OH275366   3.493   5.228  14.983 -0.0658  0.4172  0.1386
17984TIP3    H175367   3.438   5.189  14.915  1.1176 -0.1987 -0.5029
17984TIP3    H275368   3.447   5.210  15.065 -0.9843  0.2256 -0.4096
17985TIP3   OH275369   4.029   5.491  11.467  0.0277  0.4078  0.8381
17985TIP3    H175370   3.997   5.490  11.377  1.0385  0.8650  0.4605
17985TIP3    H275371   3.985   5.417  11.509  0.5491 -0.6327 -0.3895
17986TIP3   OH275372   2.519   0.422  11.594  0.7773  0.4400 -0.1596
17986TIP3    H175373   2.568   0.498  11.625  0.8583  0.1632  0.4125
17986TIP3    H275374   2.586   0.366  11.553  0.8444  0.3454  0.0734
17987TIP3   OH275375   1.498   3.675  13.430 -0.2873  0.5639  0.3155
17987TIP3    H175376   1.420   3.649  13.382  0.8797  1.9246 -2.5803
17987TIP3    H275377   1.547   3.594  13.441 -0.6736  0.1675 -0.7217
17988TIP3   OH275378   0.694   2.496   6.327  0.4583  0.0937  0.2139
17988TIP3    H175379   0.696   2.561   6.398 -1.7240 -0.1967  0.5981
17988TIP3    H275380   0.730   2.417   6.367 -0.6726 -0.0459  1.0064
17989TIP3   OH275381   6.471   0.450  13.548 -0.0747  0.0266 -0.2537
17989TIP3    H175382   6.416   0.498  13.609 -0.6243 -0.9274  0.0226
17989TIP3    H275383   6.416   0.440  13.470  0.2860  0.4209 -0.5683
17990TIP3   OH275384   1.679   2.880  13.111 -0.1311 -0.6252 -0.4492
17990TIP3    H175385   1.742   2.812  13.132 -1.1690 -1.5348 -0.1872
17990TIP3    H275386   1.685   2.891  13.016  0.5786 -0.5216 -0.3989
17991TIP3   OH275387   6.116   4.214  11.647  0.0555 -0.6704  0.2914
17991TIP3    H175388   6.098   4.252  11.561  1.6959  3.7428  1.6115
17991TIP3    H275389   6.212   4.207  11.651 -0.0655 -2.2467  1.2358
17992TIP3   OH275390   0.995   0.621   4.773 -0.3361  0.1258 -0.2865
17992TIP3    H175391   0.941   0.561   4.721 -2.2953  1.2320  0.3777
17992TIP3    H275392   0.991   0.585   4.862  1.5932 -0.8007 -0.5253
17993TIP3   OH275393   0.318   1.463   0.829 -0.1825 -0.4000  0.4481
17993TIP3    H175394   0.244   1.492   0.776  0.2336  1.2551  0.7132
17993TIP3    H275395   0.392   1.464   0.768  0.1481  0.7506  0.8521
17994TIP3   OH275396   0.984   3.712   3.776  0.1204  0.5812 -0.0963
17994TIP3    H175397   0.943   3.666   3.849 -0.7269  0.0864 -0.8759
17994TIP3    H275398   1.021   3.644   3.721  2.5081  1.0253  0.8405
17995TIP3   OH275399   6.361   1.149  15.012 -0.2858  0.4907  0.2714
17995TIP3    H175400   6.269   1.154  14.984 -0.3726  0.4937  0.5502
17995TIP3    H275401   6.395   1.238  14.999  0.0220  0.2177 -0.9684
17996TIP3   OH275402   1.308   2.500  16.560 -0.2684 -0.6829 -0.2934
17996TIP3    H175403   1.317   2.581  16.509  2.6345 -0.0092  1.1128
17996TIP3    H275404   1.342   2.431  16.502 -2.1288 -0.8701 -1.2420
17997TIP3   OH275405   2.358   3.643   3.212 -1.0123 -0.0265 -0.0574
17997TIP3    H175406   2.389   3.719   3.162 -1.8486  0.7433  0.5437
17997TIP3    H275407   2.347   3.676   3.301 -0.9570 -0.9821  0.3139
17998TIP3   OH275408   2.903   6.424  14.923  0.4942 -0.0487  0.1561
17998TIP3    H175409   2.944   6.418  14.837  0.6821 -0.9880  0.3071
17998TIP3    H275410   2.834   6.357  14.922  1.1885 -0.8086  1.1076
17999TIP3   OH275411   3.892   5.237  12.535 -0.3877  0.1423  0.1878
17999TIP3    H175412   3.979   5.273  12.556 -0.3830  0.0541  0.3208
17999TIP3    H275413   3.877   5.171  12.603 -0.8545  0.6357  0.5747
18000TIP3   OH275414   0.161   2.748   1.399  0.5554  0.1785  0.1456
18000TIP3    H175415   0.245   2.712   1.369  0.6196 -0.6040  1.2228
18000TIP3    H275416   0.164   2.741   1.494 -1.3582 -1.2951  0.1490
18001TIP3   OH275417   4.021   4.063   1.594  0.3183 -0.8048 -0.2987
18001TIP3    H175418   4.083   4.109   1.537  0.4312 -2.4286 -1.5508
18001TIP3    H275419   4.058   4.074   1.682  0.1142  1.8027 -0.4498
18002TIP3   OH275420   4.845   3.531   2.447  0.5094 -0.1364 -0.2017
18002TIP3    H175421   4.812   3.449   2.483  1.5998 -0.9693 -1.0271
18002TIP3    H275422   4.776   3.561   2.387 -0.3474  0.1134  0.8781
18003TIP3   OH275423   0.448   0.384   5.100  0.4195  0.1223  0.4341
18003TIP3    H175424   0.433   0.321   5.171 -0.5213  0.1166  0.2402
18003TIP3    H275425   0.364   0.390   5.055  1.0719 -0.0730 -0.8572
18004TIP3   OH275426   5.966   4.851  11.831 -0.1017  0.2948  0.3423
18004TIP3    H175427   6.001   4.936  11.859  2.7441 -0.8204  0.4546
18004TIP3    H275428   5.999   4.789  11.895 -0.5321 -1.1799 -0.8132
18005TIP3   OH275429   5.186   5.896  16.603  0.4536 -0.1682  0.0735
18005TIP3    H175430   5.092   5.912  16.598  0.4318 -0.1926  0.3626
18005TIP3    H275431   5.196   5.842  16.682  0.8990  1.2498  1.0356
18006TIP3   OH275432   4.141   0.147  13.100 -0.8264  0.6073  0.5363
18006TIP3    H175433   4.065   0.144  13.159  1.4649  1.0545  3.7701
18006TIP3    H275434   4.204   0.203  13.145  2.5872 -2.1040 -0.4288
18007TIP3   OH275435   1.222   3.313   5.579 -0.2347  0.0120  0.2074
18007TIP3    H175436   1.140   3.265   5.566  0.4571 -0.9001 -0.9333
18007TIP3    H275437   1.226   3.375   5.507  1.1063 -1.4734 -1.0734
18008TIP3   OH275438   5.650   3.121  11.468 -0.3226 -0.5021  0.0381
18008TIP3    H175439   5.628   3.047  11.412  0.8699 -0.0567 -1.0771
18008TIP3    H275440   5.603   3.195  11.429 -0.5496 -0.4396  0.4258
18009TIP3   OH275441   0.525   4.261  12.372 -0.2399 -0.4052  0.2812
18009TIP3    H175442   0.474   4.221  12.302 -1.7370  2.0133 -0.1291
18009TIP3    H275443   0.508   4.206  12.449 -2.8921 -0.1201 -0.0272
18010TIP3   OH275444   5.788   3.274   0.513 -0.1674 -0.2005  0.7212
18010TIP3    H175445   5.733   3.350   0.534 -0.2351 -0.3161  0.9679
18010TIP3    H275446   5.730   3.199   0.525 -0.2387 -0.2597 -0.0053
18011TIP3   OH275447   3.568   2.133  10.729  0.1149  0.1641  0.3588
18011TIP3    H175448   3.587   2.100  10.817 -2.7758 -1.5293  0.4719
18011TIP3    H275449   3.537   2.056  10.681  0.2873  1.3329 -1.7473
18012TIP3   OH275450   6.647   0.949  12.946  0.1227  0.1616  0.1504
18012TIP3    H175451   6.557   0.977  12.928 -0.0462 -0.6354 -0.2870
18012TIP3    H275452   6.694   0.962  12.863 -0.1249 -1.4471 -0.2741
18013TIP3   OH275453   3.565   3.148   1.507  0.2644 -0.5726  0.4529
18013TIP3    H175454   3.479   3.108   1.493  0.1015 -0.0595 -0.0363
18013TIP3    H275455   3.551   3.209   1.579  0.4529 -1.1878  1.0252
18014TIP3   OH275456   3.724   1.213  16.218  0.2004  0.2577  0.3779
18014TIP3    H175457   3.633   1.238  16.198 -0.3107 -0.1220  2.1256
18014TIP3    H275458   3.727   1.119  16.200  0.8719  0.6154 -1.7177
18015TIP3   OH275459   4.413   3.498   1.610  0.4556  0.1863  0.2777
18015TIP3    H175460   4.390   3.498   1.517  0.0147 -0.4232  0.3760
18015TIP3    H275461   4.387   3.584   1.642  2.6597  1.2655 -0.6341
18016TIP3   OH275462   5.311   6.505   4.055  0.7815  0.6913 -0.3068
18016TIP3    H175463   5.258   6.572   4.099  0.3842  1.1164 -1.4005
18016TIP3    H275464   5.322   6.436   4.121  0.3571  1.3921  0.5123
18017TIP3   OH275465   2.425   2.622   3.769 -0.0282  0.0411  0.0737
18017TIP3    H175466   2.431   2.551   3.832  1.9060  0.4792  0.4566
18017TIP3    H275467   2.350   2.675   3.799 -1.4455 -1.7244 -0.1784
18018TIP3   OH275468   2.193   6.700   1.515 -0.0105  0.1769  0.5048
18018TIP3    H175469   2.157   6.702   1.427 -0.4514  0.8655  0.6918
18018TIP3    H275470   2.116   6.696   1.573  0.1964  1.5519  0.9043
18019TIP3   OH275471   0.143   4.323  14.717 -0.2055  0.1712 -0.0903
18019TIP3    H175472   0.073   4.356  14.773  1.5260  1.5467  1.3641
18019TIP3    H275473   0.106   4.327  14.629 -2.5690 -0.8793  0.7844
18020TIP3   OH275474   6.415   5.304   0.600  0.0514 -0.4773 -0.1470
18020TIP3    H175475   6.394   5.310   0.693 -0.3906  0.4764 -0.2867
18020TIP3    H275476   6.434   5.212   0.584 -2.4136 -1.1299  0.3644
18021TIP3   OH275477   0.582   6.573   2.412  0.2254 -0.4432  0.3221
18021TIP3    H175478   0.662   6.620   2.433 -0.3839  0.9090 -0.2351
18021TIP3    H275479   0.599   6.482   2.438  2.2838 -0.3977 -0.6834
18022TIP3   OH275480   2.579   6.820   2.143  0.4266 -0.2626  0.5983
18022TIP3    H175481   2.513   6.849   2.207 -0.7972 -0.8157 -0.3660
18022TIP3    H275482   2.587   6.726   2.158 -1.7612 -0.9076 -1.6353
18023TIP3   OH275483   5.238   3.817   2.021  0.2780  0.0988  0.4332
18023TIP3    H175484   5.266   3.796   1.931  0.7219  1.1473  0.3160
18023TIP3    H275485   5.184   3.896   2.011 -0.0725 -0.0600  1.0410
18024TIP3   OH275486   4.913   2.016  11.565 -0.6728 -0.2178  0.1831
18024TIP3    H175487   4.996   2.048  11.601  0.5970  0.0934 -2.7357
18024TIP3    H275488   4.906   1.926  11.598  0.8344 -0.2436  0.5093
18025TIP3   OH275489   2.322   0.010  13.164  0.0093 -0.4479  0.8032
18025TIP3    H175490   2.366   0.059  13.233 -0.1794 -0.7912  1.1702
18025TIP3    H275491   2.319   0.071  13.090 -0.7316  0.3010  1.4329
18026TIP3   OH275492   1.101   0.060  16.078 -0.1520 -0.0011  0.3111
18026TIP3    H175493   1.113  -0.032  16.102  3.5387  0.4088  0.4824
18026TIP3    H275494   1.134   0.067  15.989 -0.3299  1.1951  0.3227
18027TIP3   OH275495   3.460   1.614  10.994 -0.2054  0.4349 -0.3274
18027TIP3    H175496   3.441   1.582  10.906  1.9385  1.4613 -1.2243
18027TIP3    H275497   3.514   1.692  10.980  0.0142  0.7424  1.9058
18028TIP3   OH275498   3.626   4.678   5.808 -0.3254 -0.6248  0.3668
18028TIP3    H175499   3.636   4.586   5.782  0.7239 -0.5113  0.3197
18028TIP3    H275500   3.550   4.678   5.866 -1.6757 -1.1621 -1.3077
18029TIP3   OH275501   2.464   4.786   4.106 -0.5742  0.5082 -0.2095
18029TIP3    H175502   2.535   4.846   4.130 -0.3193 -0.0558  0.5007
18029TIP3    H275503   2.508   4.706   4.079 -0.9056 -0.4183  1.7705
18030TIP3   OH275504   6.066   5.985   2.495  0.3103  0.3705 -0.4680
18030TIP3    H175505   6.087   5.955   2.407  0.8871  0.4811 -0.3712
18030TIP3    H275506   6.123   5.934   2.553 -2.7216 -2.6070  0.2332
18031TIP3   OH275507   3.034   6.007  15.453  0.0053 -0.1656  0.2293
18031TIP3    H175508   3.028   6.014  15.548  2.5760 -0.8221  0.5254
18031TIP3    H275509   2.975   5.935  15.430 -0.4033 -0.1989  1.3449
18032TIP3   OH275510   0.934   4.995   3.237 -0.2092 -1.3333 -0.3129
18032TIP3    H175511   0.864   5.044   3.279 -0.9369 -0.9055 -1.9379
18032TIP3    H275512   0.908   4.904   3.244 -0.9301 -1.1764 -0.8842
18033TIP3   OH275513   3.243   0.057  12.529  0.0706  0.4385 -0.2802
18033TIP3    H175514   3.336   0.065  12.508 -0.1017  0.6153 -1.0298
18033TIP3    H275515   3.208   0.000  12.460 -0.2732 -0.0849  0.3195
18034TIP3   OH275516   5.967   6.071  15.808  0.3756  0.4950  0.3133
18034TIP3    H175517   5.917   6.142  15.770  1.2901  1.3430  0.6423
18034TIP3    H275518   5.928   5.991  15.772 -1.6737  1.0771  1.1407
18035TIP3   OH275519   3.524   0.265   3.390 -0.2245  0.4526 -0.0064
18035TIP3    H175520   3.454   0.316   3.350 -1.8816  0.2188  2.3706
18035TIP3    H275521   3.481   0.214   3.459  2.2474  0.2517  1.5490
18036TIP3   OH275522   6.579   0.435   1.429 -0.1106  0.7601 -0.2002
18036TIP3    H175523   6.610   0.409   1.516 -3.0944 -4.5134 -0.2617
18036TIP3    H275524   6.498   0.484   1.446  0.7140  2.1061 -0.0679
18037TIP3   OH275525   0.530   6.341  10.936  0.2554 -0.5207  0.1858
18037TIP3    H175526   0.468   6.385  10.878 -0.2251  0.3432  1.3144
18037TIP3    H275527   0.523   6.248  10.913 -1.3217 -0.4253  0.1470
18038TIP3   OH275528   3.207   4.868  14.483  0.6096 -0.0043  0.1839
18038TIP3    H175529   3.259   4.941  14.515 -0.1665  0.5722  0.1454
18038TIP3    H275530   3.116   4.894  14.498  0.2819 -0.3875 -1.0271
18039TIP3   OH275531   2.582   3.642  14.421  0.0104 -0.2291 -0.0357
18039TIP3    H175532   2.514   3.674  14.480 -0.1345 -0.1955 -0.2186
18039TIP3    H275533   2.582   3.547  14.434  2.3007  0.0187  2.5191
18040TIP3   OH275534   3.902   3.018  11.114 -0.2243 -0.2595 -0.4255
18040TIP3    H175535   3.863   3.005  11.200  3.1322  0.7289  1.3801
18040TIP3    H275536   3.826   3.018  11.054 -2.4240 -6.5827  1.5292
18041TIP3   OH275537   4.523   1.886   0.123 -0.3991 -0.5802  0.5295
18041TIP3    H175538   4.586   1.888   0.195 -1.1669 -1.3399  1.2552
18041TIP3    H275539   4.573   1.913   0.046  0.2217  1.2239  1.4986
18042TIP3   OH275540   0.637   5.622  12.336  0.2640 -0.8049 -0.0716
18042TIP3    H175541   0.620   5.713  12.360  0.0343 -1.1403  1.0757
18042TIP3    H275542   0.690   5.628  12.256 -0.6758  0.3095 -0.6345
18043TIP3   OH275543   0.666   4.655   1.013  0.1741  0.2827 -0.2284
18043TIP3    H175544   0.691   4.563   1.023 -0.9287 -0.2431 -1.9214
18043TIP3    H275545   0.697   4.697   1.094  0.0749 -1.7021  0.9127
18044TIP3   OH275546   6.519   0.683   0.299 -0.2283 -0.1552  0.7074
18044TIP3    H175547   6.593   0.641   0.344 -0.0009  0.4836  0.9492
18044TIP3    H275548   6.540   0.676   0.206  0.7003  1.0054  0.8087
18045TIP3   OH275549   2.350   4.176   0.006  0.2367  0.1166  0.1382
18045TIP3    H175550   2.308   4.256   0.039 -0.2155  0.1741 -0.5447
18045TIP3    H275551   2.416   4.208  -0.055  0.7291 -0.0044  0.6007
18046TIP3   OH275552   2.716   5.660  16.565  0.3733  0.0114  0.2036
18046TIP3    H175553   2.674   5.591  16.616 -0.0539  0.6553  0.7412
18046TIP3    H275554   2.798   5.679  16.612  1.2316 -1.1296 -0.7565
18047TIP3   OH275555   0.598   2.051   3.684  0.3656 -0.5417 -0.6028
18047TIP3    H175556   0.569   2.134   3.646  0.7992 -0.3804 -0.5818
18047TIP3    H275557   0.573   2.056   3.776 -0.2223 -0.7181 -0.7514
18048TIP3   OH275558   6.488   5.192  13.901 -0.3990 -0.4775  0.4805
18048TIP3    H175559   6.535   5.171  13.820 -0.3509 -1.3295  0.7166
18048TIP3    H275560   6.493   5.288  13.908 -1.6185 -0.2450 -1.2370
18049TIP3   OH275561   5.650   4.880   0.297 -0.1101  0.6086  0.6349
18049TIP3    H175562   5.654   4.910   0.206 -2.1432  0.0091  0.2868
18049TIP3    H275563   5.721   4.817   0.305  1.4624  2.2293  0.1214
18050TIP3   OH275564   4.057   1.130  11.396  0.0750  0.6654 -0.7255
18050TIP3    H175565   4.127   1.074  11.364  0.0394 -0.5152  1.1029
18050TIP3    H275566   3.982   1.071  11.406 -0.3781  1.3294 -0.1104
18051TIP3   OH275567   0.197   5.523   5.285 -0.3730  0.4616  0.5347
18051TIP3    H175568   0.145   5.562   5.215 -1.5385  1.0502  1.6905
18051TIP3    H275569   0.155   5.439   5.301  1.7252 -1.0948 -1.4836
18052TIP3   OH275570   2.570   6.643  13.855  0.1809  0.4853 -0.1535
18052TIP3    H175571   2.562   6.677  13.944  1.9377 -0.6009  0.4654
18052TIP3    H275572   2.663   6.650  13.834  0.2498 -1.7014 -0.8660
18053TIP3   OH275573   1.021   2.841  14.078 -0.4016 -0.1139  0.4760
18053TIP3    H175574   1.081   2.858  14.150  0.8351  0.8904 -0.7228
18053TIP3    H275575   0.957   2.912  14.082 -0.1829  0.0868  0.4572
18054TIP3   OH275576   6.302   5.302   4.260  0.6142  0.5360  0.3195
18054TIP3    H175577   6.287   5.353   4.181  1.6671 -0.6982 -0.7253
18054TIP3    H275578   6.222   5.315   4.312 -0.4663  0.7312 -1.3064
18055TIP3   OH275579   3.119   2.680   2.935 -0.0784  0.2693  0.5323
18055TIP3    H175580   3.187   2.715   2.878  0.2078  0.8463  1.2174
18055TIP3    H275581   3.037   2.714   2.899  0.0885  0.5334  0.3992
18056TIP3   OH275582   1.341   2.210   1.661 -0.3601 -0.3515  0.0035
18056TIP3    H175583   1.292   2.272   1.607  0.6817  0.7147  0.2349
18056TIP3    H275584   1.347   2.252   1.747 -0.9841 -1.4952  0.6322
18057TIP3   OH275585   6.787   4.835  13.198  0.2005  0.2788  0.3484
18057TIP3    H175586   6.739   4.910  13.232 -1.9371 -0.6037 -0.5000
18057TIP3    H275587   6.870   4.835  13.245 -0.5751  1.9869  1.8126
18058TIP3   OH275588   2.994   0.075   4.876 -0.0118 -1.0251 -0.3211
18058TIP3    H175589   2.976  -0.004   4.928  0.5146  0.5410  2.4044
18058TIP3    H275590   3.076   0.109   4.912 -0.0230  0.5832 -1.7187
18059TIP3   OH275591   6.636   6.212   4.242 -0.1696 -0.1254 -0.4808
18059TIP3    H175592   6.544   6.205   4.265 -0.4084  1.1261 -1.0099
18059TIP3    H275593   6.683   6.179   4.319 -1.0385 -0.3759 -0.0492
18060TIP3   OH275594   5.785   1.377  11.772  0.7545 -0.2262 -0.6571
18060TIP3    H175595   5.767   1.399  11.680 -0.3770 -0.7292 -0.5768
18060TIP3    H275596   5.841   1.299  11.767 -1.1027 -1.6290 -0.9722
18061TIP3   OH275597   5.027   5.634   0.656  0.2862  0.1433  0.3525
18061TIP3    H175598   5.024   5.543   0.626 -1.5668  0.4283 -0.4627
18061TIP3    H275599   5.078   5.679   0.589  3.4124 -0.6521  2.0188
18062TIP3   OH275600   3.492   4.166  16.758 -0.2100  0.4066  0.2210
18062TIP3    H175601   3.516   4.236  16.819  0.9147  0.7138 -0.5531
18062TIP3    H275602   3.543   4.183  16.680 -2.0720  0.3583 -1.0796
18063TIP3   OH275603   2.448   1.089  16.394 -0.3172 -0.3857 -0.4817
18063TIP3    H175604   2.379   1.093  16.328 -1.9056 -1.8644  0.9855
18063TIP3    H275605   2.408   1.127  16.473  1.3766  0.9127 -0.1790
18064TIP3   OH275606   2.153   1.798  13.386  0.4469  0.0632 -0.3898
18064TIP3    H175607   2.168   1.785  13.480 -0.1612  3.4454  0.3093
18064TIP3    H275608   2.062   1.827  13.381  0.1254 -1.1162 -2.2249
18065TIP3   OH275609   3.947   4.895  16.555  0.2999 -0.5492  0.2712
18065TIP3    H175610   3.997   4.975  16.572  0.9484 -0.2335 -2.6574
18065TIP3    H275611   3.917   4.867  16.642  0.9555  2.2500  1.5179
18066TIP3   OH275612   4.423   3.292   4.435 -0.0319  0.1266 -0.2309
18066TIP3    H175613   4.480   3.369   4.439 -1.6918  1.3630  1.9022
18066TIP3    H275614   4.477   3.224   4.395  2.5460  1.5395  0.6401
18067TIP3   OH275615   1.591   4.573  13.223  0.9650  0.4316  0.0560
18067TIP3    H175616   1.626   4.504  13.278 -2.2753 -0.4430  1.2523
18067TIP3    H275617   1.587   4.650  13.280 -0.2399  0.1415  0.4016
18068TIP3   OH275618   0.061   4.090   4.571 -0.1346 -0.5827  0.1516
18068TIP3    H175619   0.051   4.166   4.512  1.2655 -0.7695 -0.3689
18068TIP3    H275620   0.132   4.039   4.531  0.3052 -1.1249  1.5913
18069TIP3   OH275621   4.988   2.231   3.229 -0.5417  0.1158 -0.1968
18069TIP3    H175622   4.930   2.280   3.288  0.0540 -0.3877  0.8413
18069TIP3    H275623   5.067   2.285   3.223 -0.3484 -0.1393  0.0010
18070TIP3   OH275624   3.505   0.727  14.479  0.4630  0.5642  0.0061
18070TIP3    H175625   3.515   0.806  14.426 -1.4179  0.0690 -1.1389
18070TIP3    H275626   3.429   0.745  14.535 -0.4263 -0.6897 -0.7694
18071TIP3   OH275627   4.312   4.947   1.090  0.6434 -0.1055 -0.1206
18071TIP3    H175628   4.273   4.990   1.166  0.7933 -0.9257  0.4340
18071TIP3    H275629   4.239   4.900   1.050  0.5477  0.3941 -0.5384
18072TIP3   OH275630   4.320   3.507   1.318  0.0966  0.4055 -0.4143
18072TIP3    H175631   4.388   3.503   1.251 -0.2366  1.6735 -0.8610
18072TIP3    H275632   4.298   3.600   1.325 -1.5353  0.0479 -0.2231
18073TIP3   OH275633   3.984   4.856   2.623  0.2801 -0.5027 -0.2215
18073TIP3    H175634   3.901   4.835   2.579 -0.8473  3.5615 -0.4407
18073TIP3    H275635   3.958   4.882   2.711  1.2445  0.9929 -0.3471
18074TIP3   OH275636   5.144   0.800  15.271  0.6157  0.3031 -0.0002
18074TIP3    H175637   5.218   0.765  15.321  1.1173  1.1885 -0.0962
18074TIP3    H275638   5.077   0.819  15.337  1.2547  1.4192  0.3623
18075TIP3   OH275639   2.840   6.237  11.500 -0.0180  0.3021 -0.6681
18075TIP3    H175640   2.814   6.322  11.537  1.0899  0.7384 -0.8654
18075TIP3    H275641   2.848   6.252  11.406  0.0091 -0.0749 -0.7304
18076TIP3   OH275642   2.152   6.441   2.507  0.1995  0.5850  0.1627
18076TIP3    H175643   2.189   6.514   2.557  1.3146  0.9182 -1.0877
18076TIP3    H275644   2.120   6.482   2.426  1.0170 -0.3278 -0.6426
18077TIP3   OH275645   6.333   4.943   5.261  0.3358  0.0945  0.4019
18077TIP3    H175646   6.404   4.879   5.259  0.7702  0.5772 -0.1347
18077TIP3    H275647   6.377   5.025   5.283  0.2897  0.7884 -1.8668
18078TIP3   OH275648   3.557   5.669  15.198 -0.0942  0.1197 -0.1152
18078TIP3    H175649   3.593   5.581  15.185 -1.4132 -0.3011 -1.2593
18078TIP3    H275650   3.561   5.709  15.111  2.0819  1.8801  0.7174
18079TIP3   OH275651   2.414   4.974   4.634 -0.2694 -0.4471  0.2712
18079TIP3    H175652   2.405   5.069   4.633 -1.6800 -0.5583  0.6011
18079TIP3    H275653   2.410   4.947   4.543 -0.8688 -0.2599  0.2384
18080TIP3   OH275654   1.838   4.410  11.838 -0.0850  0.3480 -0.3267
18080TIP3    H175655   1.850   4.357  11.917  0.0778  1.0693  0.1387
18080TIP3    H275656   1.834   4.346  11.767  1.2001 -0.2293  0.0936
18081TIP3   OH275657   5.149   3.233  13.957  0.5057  0.3827 -0.4993
18081TIP3    H175658   5.072   3.224  14.014  0.4325  2.4069 -0.2169
18081TIP3    H275659   5.188   3.146  13.957 -0.6802 -0.2088  0.9520
18082TIP3   OH275660   3.542   1.162  12.628 -0.5107 -0.3500  0.3000
18082TIP3    H175661   3.537   1.209  12.544  0.6688 -3.0881 -1.4745
18082TIP3    H275662   3.626   1.117  12.624 -0.1407 -0.0799  3.3171
18083TIP3   OH275663   3.929   5.231   2.506 -0.8292  0.2666  0.5191
18083TIP3    H175664   3.947   5.187   2.590 -1.8133  0.1181  0.6648
18083TIP3    H275665   3.997   5.298   2.500  0.6559 -1.1747  0.3470
18084TIP3   OH275666   4.549   6.793  14.863  0.3004 -0.0111  0.0098
18084TIP3    H175667   4.574   6.882  14.840 -2.4301  1.1401  1.0519
18084TIP3    H275668   4.455   6.789  14.843  0.2192 -2.4429  0.5947
18085TIP3   OH275669   3.305   1.397   0.849  0.1842 -0.5332 -0.3797
18085TIP3    H175670   3.327   1.317   0.800 -0.2669 -0.7014 -0.3157
18085TIP3    H275671   3.266   1.455   0.784 -0.8701 -0.9458 -0.1340
18086TIP3   OH275672   5.646   0.568   5.158  0.3310  0.1325 -0.6380
18086TIP3    H175673   5.558   0.574   5.196  0.9001  0.6999  0.6737
18086TIP3    H275674   5.681   0.486   5.193 -0.8177 -1.9239 -3.8481
18087TIP3   OH275675   2.292   4.500   4.515  0.5281  0.0451  0.2505
18087TIP3    H175676   2.337   4.558   4.453  1.4545  0.7283  1.5026
18087TIP3    H275677   2.244   4.560   4.572 -2.0978 -0.6626 -1.0642
18088TIP3   OH275678   4.250   5.150   4.459 -1.0116  0.1389  0.0594
18088TIP3    H175679   4.220   5.164   4.549 -0.6539  0.5661  0.1158
18088TIP3    H275680   4.173   5.114   4.414 -1.7552  1.6050  0.0949
18089TIP3   OH275681   1.212   6.762  12.171  0.0704  0.5410 -0.1819
18089TIP3    H175682   1.244   6.804  12.092  1.0371 -0.2458 -0.2331
18089TIP3    H275683   1.237   6.821  12.242  2.6123 -0.4718 -0.1142
18090TIP3   OH275684   6.184   5.302   1.957 -0.2397  0.6706 -0.9293
18090TIP3    H175685   6.253   5.289   2.021 -0.2625  0.7643 -0.8856
18090TIP3    H275686   6.106   5.321   2.009 -0.2955  0.5793 -0.9789
18091TIP3   OH275687   1.210   5.755   5.161 -0.7356  0.0524 -0.5758
18091TIP3    H175688   1.133   5.737   5.106 -0.5475 -0.5328 -0.6541
18091TIP3    H275689   1.214   5.851   5.165 -0.2260  0.1575 -2.3583
18092TIP3   OH275690   4.495   6.226   2.394 -0.7179  0.3977 -0.6574
18092TIP3    H175691   4.531   6.149   2.350 -0.1072 -0.3627  1.0683
18092TIP3    H275692   4.408   6.199   2.423 -0.6161  0.4314 -0.3080
18093TIP3   OH275693   2.638   6.392  14.254  0.0516 -0.4179 -0.2257
18093TIP3    H175694   2.693   6.415  14.180  1.6587  1.2757  1.3738
18093TIP3    H275695   2.625   6.475  14.301 -0.7503 -1.4366  1.4611
18094TIP3   OH275696   2.318   0.287  15.224  0.1270  0.0658 -0.5050
18094TIP3    H175697   2.381   0.351  15.193  0.0721 -1.4772 -4.3666
18094TIP3    H275698   2.232   0.327  15.210  0.1416  0.2157 -0.1731
18095TIP3   OH275699   3.745   2.951   4.298  0.3480 -0.3952  0.3491
18095TIP3    H175700   3.753   2.930   4.391  0.7566  0.2238  0.4654
18095TIP3    H275701   3.710   2.872   4.258 -0.3445 -0.4922  1.1121
18096TIP3   OH275702   6.755   5.112   0.502 -0.4343 -0.2681 -0.1289
18096TIP3    H175703   6.671   5.156   0.491  0.6755  1.4910 -2.2253
18096TIP3    H275704   6.776   5.076   0.416  0.3794 -1.8774  0.6811
18097TIP3   OH275705   2.369   0.157  16.601 -0.1208 -0.2779 -0.3390
18097TIP3    H175706   2.440   0.184  16.542  0.3732 -1.0652 -0.1137
18097TIP3    H275707   2.330   0.080  16.559  0.1497 -0.7671  0.2833
18098TIP3   OH275708   2.521   2.590   5.941  0.0696 -0.0476  0.1899
18098TIP3    H175709   2.603   2.598   5.991 -1.1835  0.7218  2.2181
18098TIP3    H275710   2.470   2.525   5.988 -1.0778  0.5292 -0.2202
18099TIP3   OH275711   5.197   2.027  14.979  0.5721  0.1140  0.2616
18099TIP3    H175712   5.224   2.086  15.050  1.0016 -0.4858  0.6103
18099TIP3    H275713   5.204   1.940  15.017 -0.4840 -0.1445 -0.1123
18100TIP3   OH275714   4.574   1.872   4.239  0.4577  0.1206  0.0221
18100TIP3    H175715   4.664   1.891   4.216  0.6669 -0.2943  0.4733
18100TIP3    H275716   4.561   1.781   4.213  0.2372  0.1151  0.1448
18101TIP3   OH275717   4.982   0.398  14.699 -0.3374  0.4064  1.1314
18101TIP3    H175718   5.040   0.456  14.650  0.0860 -1.3723 -0.5880
18101TIP3    H275719   5.036   0.322  14.721 -1.2844 -0.0541  1.9720
18102TIP3   OH275720   1.561   3.379   3.002 -0.5888  0.3900  0.3375
18102TIP3    H175721   1.499   3.452   3.010 -0.6659  0.2539  1.0463
18102TIP3    H275722   1.612   3.381   3.083  0.7304  0.8425 -0.4716
18103TIP3   OH275723   6.038   3.533  14.902  0.3932 -0.5660 -0.6621
18103TIP3    H175724   6.036   3.606  14.840  2.8458  1.1970  1.1196
18103TIP3    H275725   6.023   3.574  14.987 -2.8232 -2.8861  0.0762
18104TIP3   OH275726   4.221   0.481   4.549 -0.6490 -0.1138  0.0121
18104TIP3    H175727   4.248   0.407   4.604 -0.4912 -0.6315 -0.7492
18104TIP3    H275728   4.204   0.442   4.463 -0.8240  0.6966 -0.3279
18105TIP3   OH275729   4.318   2.054   3.439  0.3159 -0.1675 -0.6237
18105TIP3    H175730   4.264   2.131   3.459  0.2361 -0.1862 -0.7665
18105TIP3    H275731   4.391   2.060   3.500  1.1113  0.8561 -1.6151
18106TIP3   OH275732   6.328   2.577   0.795 -0.0723  0.1817  0.6939
18106TIP3    H175733   6.379   2.566   0.876  0.3389  2.5955  0.8262
18106TIP3    H275734   6.267   2.647   0.814  1.4781  2.3551 -1.6757
18107TIP3   OH275735   4.873   5.456   2.322 -0.1405  0.6153  0.3951
18107TIP3    H175736   4.899   5.364   2.311 -0.0544  0.6432  0.3605
18107TIP3    H275737   4.839   5.482   2.236 -0.6644  0.4611  0.5542
18108TIP3   OH275738   2.324   4.334   3.637 -0.1239  0.2834 -0.3908
18108TIP3    H175739   2.298   4.314   3.727  1.6345  0.2856  0.1565
18108TIP3    H275740   2.407   4.381   3.646 -0.2155  0.8037 -1.9985
18109TIP3   OH275741   5.490   3.792   3.937  0.4878 -0.0739  0.0795
18109TIP3    H175742   5.402   3.827   3.923  0.1022 -0.6776  0.8897
18109TIP3    H275743   5.476   3.710   3.986  1.2022 -2.4638 -3.3498
18110TIP3   OH275744   5.784   0.659   3.873 -0.0528  0.2529  0.0046
18110TIP3    H175745   5.820   0.735   3.827 -2.3632  0.5716 -1.4935
18110TIP3    H275746   5.710   0.695   3.923 -0.4899 -0.8174  0.1658
18111TIP3   OH275747   3.344   0.056   0.137 -0.0980 -0.8278  0.0273
18111TIP3    H175748   3.351   0.057   0.232 -0.1077 -1.5831  0.0449
18111TIP3    H275749   3.282  -0.014   0.118 -1.1949  0.2561 -0.4832
18112TIP3   OH275750   1.691   2.232   2.977  0.0361  0.2557 -0.0383
18112TIP3    H175751   1.642   2.315   2.975 -0.6248 -0.1225 -1.4680
18112TIP3    H275752   1.678   2.198   3.065 -0.5679  1.1715  0.2395
18113TIP3   OH275753   3.832   1.356   3.013  0.4011  0.6617 -0.2656
18113TIP3    H175754   3.813   1.346   3.106  1.2140 -0.2308 -0.1858
18113TIP3    H275755   3.920   1.321   3.002 -0.2346 -0.6260 -1.6203
18114TIP3   OH275756   5.484   6.142   0.335  0.6870 -0.1602 -0.3813
18114TIP3    H175757   5.489   6.194   0.254  1.1705  1.0136  0.3815
18114TIP3    H275758   5.572   6.107   0.347  0.9920  0.8130  0.3527
18115TIP3   OH275759   4.492   2.494  11.402 -0.0439 -0.0705  0.4990
18115TIP3    H175760   4.526   2.562  11.343  0.4968  0.4000  1.3329
18115TIP3    H275761   4.570   2.450  11.435 -0.2402  0.6510  2.0008
18116TIP3   OH275762   5.063   2.861   2.180  0.1942 -0.4941  0.0872
18116TIP3    H175763   5.016   2.812   2.112 -0.0011 -0.0004 -0.1466
18116TIP3    H275764   5.123   2.917   2.131  0.4970 -0.5901  0.3539
18117TIP3   OH275765   1.224   0.232  13.110 -0.2817  0.0269  0.2011
18117TIP3    H175766   1.293   0.171  13.136  1.9575  2.8702  1.4518
18117TIP3    H275767   1.155   0.221  13.176  0.6190 -0.3174  1.1031
18118TIP3   OH275768   2.366   0.888   1.822  0.5479  0.1211  0.3670
18118TIP3    H175769   2.387   0.841   1.902  1.5159 -1.0913 -0.5753
18118TIP3    H275770   2.295   0.838   1.782  0.8765  0.0327 -0.1205
18119TIP3   OH275771   5.463   6.762  10.894  0.6418  0.7229 -0.4370
18119TIP3    H175772   5.497   6.712  10.967 -1.0068 -0.3453 -0.3481
18119TIP3    H275773   5.523   6.837  10.886  2.0699 -0.2539  0.6174
18120TIP3   OH275774   4.571   0.919  14.359  0.0812 -0.1316  0.5341
18120TIP3    H175775   4.623   0.853  14.312  1.5021  0.0321  1.7869
18120TIP3    H275776   4.518   0.868  14.421 -1.0560 -0.2765 -0.5278
18121TIP3   OH275777   0.388   1.523   2.974 -0.6043  0.8898 -0.1386
18121TIP3    H175778   0.414   1.434   2.998 -0.1740  0.9061 -0.5229
18121TIP3    H275779   0.294   1.516   2.956 -0.4431  0.3631 -0.8264
18122TIP3   OH275780   5.752   6.501   2.587  0.1464 -0.0158  0.0422
18122TIP3    H175781   5.684   6.545   2.536  2.2295  1.7296 -1.3954
18122TIP3    H275782   5.771   6.561   2.659  1.4041  0.4205 -0.6231
18123TIP3   OH275783   4.526   0.971   5.682  0.3313 -0.5106 -0.3226
18123TIP3    H175784   4.525   1.038   5.749 -0.7720 -0.0049 -0.8244
18123TIP3    H275785   4.619   0.956   5.665  0.6128 -0.3969  1.0487
18124TIP3   OH275786   1.064   2.435  12.322 -0.0398  0.2718  0.0784
18124TIP3    H175787   1.009   2.433  12.399  0.7968 -2.2225  0.6916
18124TIP3    H275788   1.068   2.344  12.292  2.9867  0.4711 -0.4341
18125TIP3   OH275789   5.176   1.646   2.592 -0.7643 -0.3354 -0.3854
18125TIP3    H175790   5.137   1.558   2.596 -0.4157 -0.4448  1.2592
18125TIP3    H275791   5.249   1.636   2.531  0.5621 -1.7726  1.3135
18126TIP3   OH275792   0.581   4.459  15.698 -0.0886  0.4189  0.0793
18126TIP3    H175793   0.585   4.410  15.616  0.1516  1.2010 -0.3875
18126TIP3    H275794   0.524   4.407  15.754 -1.6931  0.7394 -1.1822
18127TIP3   OH275795   0.989   3.451  13.457 -0.1994 -1.1172 -0.1418
18127TIP3    H175796   1.049   3.416  13.391  0.5677 -2.3244  1.1330
18127TIP3    H275797   0.955   3.373  13.502 -0.3927 -0.3241  1.1280
18128TIP3   OH275798   1.887   3.295   5.240 -0.0519  0.2087 -0.0864
18128TIP3    H175799   1.982   3.282   5.235 -0.2415 -1.0384 -0.9341
18128TIP3    H275800   1.859   3.233   5.308 -0.4287 -0.6004 -0.9529
18129TIP3   OH275801   1.494   4.373   3.462  0.0782  0.0969  0.2233
18129TIP3    H175802   1.577   4.344   3.499  0.5275  0.8172 -0.2116
18129TIP3    H275803   1.435   4.380   3.538  1.0099  1.6271  0.8518
18130TIP3   OH275804   0.019   0.471  12.179 -0.1936  0.0570  0.2332
18130TIP3    H175805   0.032   0.544  12.240 -0.8921  0.5723 -0.2139
18130TIP3    H275806   0.029   0.511  12.092 -0.7323 -0.3446 -0.0185
18131TIP3   OH275807   2.311   0.593  11.880  0.3389 -0.6626  0.2429
18131TIP3    H175808   2.395   0.631  11.905 -0.1722 -0.7068  2.2038
18131TIP3    H275809   2.329   0.499  11.872  0.1758 -0.9342  2.4141
18132TIP3   OH275810   0.706   5.878  11.670  0.9413  0.4885 -0.0958
18132TIP3    H175811   0.612   5.871  11.683  0.3054 -0.4932 -3.9212
18132TIP3    H275812   0.744   5.826  11.741 -1.4084  0.3880  1.1699
18133TIP3   OH275813   3.956   0.118  13.311  0.1014  0.1140 -0.2313
18133TIP3    H175814   3.909   0.110  13.394  0.1768 -0.2019 -0.2169
18133TIP3    H275815   3.949   0.031  13.271 -1.9039  0.8164 -1.6297
18134TIP3   OH275816   0.480   1.870  12.863  0.3777 -0.6555 -0.0052
18134TIP3    H175817   0.430   1.829  12.934  0.4400 -1.3668 -0.3666
18134TIP3    H275818   0.557   1.908  12.906  0.1684 -0.6535  0.3731
18135TIP3   OH275819   3.541   4.094   4.025  0.2647 -0.0172 -0.0747
18135TIP3    H175820   3.494   4.059   3.949 -1.7075  0.3630  0.8923
18135TIP3    H275821   3.558   4.185   4.003 -0.1976  0.0608 -0.1290
18136TIP3   OH275822   6.791   3.010  16.909 -0.6817 -0.3664  0.2889
18136TIP3    H175823   6.824   3.061  16.983 -0.2481 -1.0192  0.5550
18136TIP3    H275824   6.838   2.927  16.914 -0.5967 -0.3992 -0.7611
18137TIP3   OH275825   0.860   2.535  13.275 -0.3881  0.4214  0.3028
18137TIP3    H175826   0.850   2.507  13.366 -1.0790 -0.0136  0.1029
18137TIP3    H275827   0.902   2.621  13.280 -0.5429  0.4548  1.0383
18138TIP3   OH275828   6.347   1.009  15.435  0.3848 -0.6448 -0.1183
18138TIP3    H175829   6.364   0.951  15.360  0.2965  0.8972 -1.3917
18138TIP3    H275830   6.339   1.096  15.396 -0.5576  0.0866  1.6068
18139TIP3   OH275831   1.870   4.295  12.442  0.1134 -0.0326 -0.6941
18139TIP3    H175832   1.811   4.255  12.378  0.4981  0.4487 -1.3583
18139TIP3    H275833   1.956   4.258  12.422  0.7075  1.9323 -2.0765
18140TIP3   OH275834   4.498   5.009  13.891  0.3754  0.3107  0.1281
18140TIP3    H175835   4.447   5.075  13.938 -0.0645  0.4541 -0.5307
18140TIP3    H275836   4.582   5.052  13.875  0.6339  0.1568  1.0178
18141TIP3   OH275837   5.184   0.149   1.511 -0.1453 -0.0655 -0.3151
18141TIP3    H175838   5.156   0.193   1.431 -1.3806  0.7358  0.5223
18141TIP3    H275839   5.148   0.061   1.504 -1.3356  0.3894 -0.0896
18142TIP3   OH275840   3.323   4.088   0.027  0.1437  0.1349 -0.0213
18142TIP3    H175841   3.307   4.135   0.109 -0.4581  0.3706 -0.2643
18142TIP3    H275842   3.414   4.059   0.033  2.0048  4.6840 -1.4589
18143TIP3   OH275843   5.109   2.718  12.380  0.0417 -0.3917 -0.1734
18143TIP3    H175844   5.027   2.727  12.429  0.0995 -1.4910  0.1699
18143TIP3    H275845   5.157   2.649  12.428  0.1308 -1.4494 -1.7164
18144TIP3   OH275846   0.107   2.830  14.658 -0.4978  0.0927 -0.4151
18144TIP3    H175847   0.134   2.869  14.742 -1.3426 -0.1388 -0.0263
18144TIP3    H275848   0.021   2.867  14.641 -0.5330 -0.2328 -0.9436
18145TIP3   OH275849   0.153   0.137  11.935  0.3634 -0.5921  0.1914
18145TIP3    H175850   0.130   0.223  11.899 -0.0860 -1.0791 -0.7089
18145TIP3    H275851   0.234   0.113  11.890  1.0582 -0.1959  1.1975
18146TIP3   OH275852   5.965   3.551   2.728 -0.3315 -0.0990  0.3693
18146TIP3    H175853   6.049   3.594   2.742 -0.7071  0.2110  1.8301
18146TIP3    H275854   5.899   3.615   2.756 -0.9435 -1.1472  1.4352
18147TIP3   OH275855   6.647   2.855   5.414 -0.5754 -0.0126  0.7134
18147TIP3    H175856   6.599   2.871   5.496 -1.3112  1.0395  0.1032
18147TIP3    H275857   6.737   2.840   5.442 -0.4698  1.9970  1.6317
18148TIP3   OH275858   1.131   3.226   3.198  0.0957  0.3837 -0.5142
18148TIP3    H175859   1.195   3.295   3.214  2.3063 -1.6745  0.1071
18148TIP3    H275860   1.128   3.218   3.102  1.7060 -0.2149 -0.5593
18149TIP3   OH275861   3.702   4.858  13.866  0.0683 -0.3417  0.1239
18149TIP3    H175862   3.670   4.780  13.820  1.6566 -0.6977 -0.4641
18149TIP3    H275863   3.781   4.828  13.911 -1.4678 -0.0404  3.2861
18150TIP3   OH275864   3.945   4.161   4.542  0.0806  0.2506 -0.5662
18150TIP3    H175865   3.958   4.174   4.636  4.1985 -0.2632 -0.8646
18150TIP3    H275866   3.928   4.248   4.507 -1.6701  0.4229  0.5884
18151TIP3   OH275867   1.457   1.886  13.763 -0.1074 -0.1906  0.1682
18151TIP3    H175868   1.484   1.934  13.685 -0.1806 -0.1836  0.1473
18151TIP3    H275869   1.361   1.886  13.759 -0.1323  0.4006  0.6168
18152TIP3   OH275870   5.867   3.515   1.481 -0.7619  0.5441  0.2535
18152TIP3    H175871   5.943   3.532   1.425  0.6032  0.4908  1.9814
18152TIP3    H275872   5.852   3.421   1.474 -0.4783  0.5077  0.1252
18153TIP3   OH275873   0.497   3.804   0.638 -0.4820 -0.2316  0.2990
18153TIP3    H175874   0.592   3.812   0.636 -0.5609  0.6831 -0.0926
18153TIP3    H275875   0.471   3.841   0.723 -0.7273  2.6785 -0.9256
18154TIP3   OH275876   4.720   0.785  11.838  0.2923 -0.8508 -0.2763
18154TIP3    H175877   4.705   0.740  11.755 -0.2738 -3.1106  0.9798
18154TIP3    H275878   4.808   0.758  11.864 -0.3733 -1.9647  0.8971
18155TIP3   OH275879   4.591   6.356  12.784  0.1335 -0.0666 -0.5008
18155TIP3    H175880   4.605   6.383  12.693 -0.1614 -0.6579 -0.7291
18155TIP3    H275881   4.546   6.272  12.777  1.9325 -1.1615  0.1586
18156TIP3   OH275882   0.560   6.044   4.502  0.5546  0.5970  0.3419
18156TIP3    H175883   0.508   6.039   4.581  0.4652  2.9119  0.4988
18156TIP3    H275884   0.638   5.991   4.520 -0.0016  0.1655  1.5203
18157TIP3   OH275885   5.316   6.479  16.057  0.1768 -0.1140  0.4892
18157TIP3    H175886   5.401   6.446  16.030 -0.8552 -0.1478 -3.2881
18157TIP3    H275887   5.335   6.560  16.103  2.2701  0.1388 -0.7063
18158TIP3   OH275888   5.528   2.920  12.876 -0.3833 -0.3172  0.1818
18158TIP3    H175889   5.433   2.916  12.890 -0.3372 -0.6012  0.4174
18158TIP3    H275890   5.561   2.839  12.914 -0.2325 -1.0620 -1.4731
18159TIP3   OH275891   1.149   3.457  10.840 -0.0596  0.1240 -0.2256
18159TIP3    H175892   1.093   3.457  10.762 -1.1878 -0.9409  0.5482
18159TIP3    H275893   1.089   3.465  10.914  0.9699  0.8388  0.5665
18160TIP3   OH275894   4.481   4.203  12.337 -0.6560 -0.3489  0.4069
18160TIP3    H175895   4.508   4.287  12.375  1.0308 -0.8817  0.4727
18160TIP3    H275896   4.386   4.198  12.353 -0.6614  1.2352  0.9782
18161TIP3   OH275897   3.157   4.434  12.646 -0.3831  0.2579  0.1580
18161TIP3    H175898   3.083   4.430  12.585 -0.5576  0.9473  0.3165
18161TIP3    H275899   3.233   4.456  12.592 -0.7721  2.2619  0.3438
18162TIP3   OH275900   3.694   2.162   6.179 -0.0037 -0.0344 -0.4852
18162TIP3    H175901   3.615   2.170   6.233 -0.6403  0.4357 -1.4520
18162TIP3    H275902   3.737   2.247   6.186  1.1623 -0.7044  1.1048
18163TIP3   OH275903   0.328   4.888  15.146 -0.1092 -0.4545 -0.7151
18163TIP3    H175904   0.245   4.880  15.099  0.0338  0.0573 -1.0729
18163TIP3    H275905   0.317   4.965  15.201 -0.0456 -0.6746 -0.3957
18164TIP3   OH275906   2.789   2.392   4.629 -0.8075  0.0043  0.4375
18164TIP3    H175907   2.874   2.430   4.654 -0.0626 -0.3953 -1.3469
18164TIP3    H275908   2.724   2.449   4.671  0.2955  2.6408 -1.1580
18165TIP3   OH275909   5.077   0.947  14.058  0.5679 -0.1109  0.4460
18165TIP3    H175910   5.133   0.896  14.117 -1.4876 -1.4812  1.2905
18165TIP3    H275911   5.060   1.028  14.105  0.4689 -0.3959  0.9004
18166TIP3   OH275912   2.274   1.894   4.346 -0.3584  0.0506  0.7286
18166TIP3    H175913   2.227   1.848   4.416 -0.0699  0.4848  1.2163
18166TIP3    H275914   2.292   1.826   4.281  1.9677 -1.0657  2.4025
18167TIP3   OH275915   5.329   0.448   1.063  0.1817 -0.0270  0.0100
18167TIP3    H175916   5.279   0.470   0.985 -0.1032  0.8982  0.4264
18167TIP3    H275917   5.264   0.443   1.133  0.2356 -2.3400 -0.0494
18168TIP3   OH275918   6.020   1.917   2.417 -0.6907 -0.5202  0.2976
18168TIP3    H175919   5.959   1.982   2.452  0.1659 -0.3656  1.5572
18168TIP3    H275920   5.992   1.904   2.326 -1.6789  0.6264  0.4205
18169TIP3   OH275921   0.997   2.044   0.068  0.4767 -0.0051 -0.0108
18169TIP3    H175922   0.924   2.095   0.033  1.4733  0.9884 -0.7253
18169TIP3    H275923   0.993   2.058   0.163  0.2870  0.7953 -0.1319
18170TIP3   OH275924   3.182   4.166   5.887 -0.4823  0.4731 -0.0400
18170TIP3    H175925   3.165   4.230   5.956 -1.4160 -1.0885  1.2677
18170TIP3    H275926   3.102   4.113   5.885 -1.7451  2.1247 -4.3357
18171TIP3   OH275927   5.125   3.714   6.010 -0.0862 -0.7367  0.0116
18171TIP3    H175928   5.057   3.676   6.067 -1.1430  1.7770  0.5339
18171TIP3    H275929   5.082   3.725   5.926  0.6113 -1.7816 -0.5060
18172TIP3   OH275930   2.979   5.484   4.430  0.0297  0.2185 -0.1516
18172TIP3    H175931   2.930   5.553   4.385  1.0392  1.9426  1.2501
18172TIP3    H275932   3.062   5.525   4.453 -0.1115 -0.7800  2.5133
18173TIP3   OH275933   6.806   1.058   5.783 -0.2507  0.3079 -0.2320
18173TIP3    H175934   6.763   1.002   5.718 -1.0636 -0.3899  0.8648
18173TIP3    H275935   6.861   1.117   5.732  0.4581 -1.3354 -1.4534
18174TIP3   OH275936   0.730   3.222   3.717 -0.4386  0.1418  0.1139
18174TIP3    H175937   0.800   3.163   3.690 -0.2335 -0.0032  0.9310
18174TIP3    H275938   0.674   3.231   3.639 -2.6390 -4.1848  0.8944
18175TIP3   OH275939   5.265   0.147   2.628 -0.0739  0.0113  0.7715
18175TIP3    H175940   5.214   0.066   2.625  0.6028 -0.4391  1.1352
18175TIP3    H275941   5.212   0.211   2.579 -1.1736 -0.3205  1.4947
18176TIP3   OH275942   5.633   4.618  16.366 -0.3627  0.4642  0.3335
18176TIP3    H175943   5.547   4.648  16.393 -0.6001 -0.6834  0.9319
18176TIP3    H275944   5.620   4.578  16.280 -0.4635  0.1318  0.5033
18177TIP3   OH275945   3.326   6.106  15.293  0.2468  0.1211 -0.3594
18177TIP3    H175946   3.369   6.111  15.379 -1.0181  0.0454  0.2965
18177TIP3    H275947   3.247   6.159  15.302 -0.5139 -0.8544 -1.1068
18178TIP3   OH275948   6.661   3.801   3.004  0.1235  0.2310  0.1800
18178TIP3    H175949   6.704   3.827   2.922 -1.1877  0.0512 -0.5935
18178TIP3    H275950   6.622   3.882   3.037  1.2126  0.4434  1.0091
18179TIP3   OH275951   1.854   1.146  14.242  0.0342 -0.1106  0.1724
18179TIP3    H175952   1.945   1.118  14.242 -0.0440 -0.3633 -0.4837
18179TIP3    H275953   1.814   1.099  14.316  0.0968 -1.1001 -0.4126
18180TIP3   OH275954   5.861   0.275   4.885 -0.2278 -0.4324 -0.1043
18180TIP3    H175955   5.777   0.321   4.886  1.4520  2.9847  2.0355
18180TIP3    H275956   5.860   0.224   4.966 -0.4044 -0.8062 -0.3376
18181TIP3   OH275957   3.858   3.675  10.447 -0.3916  0.1944  0.1643
18181TIP3    H175958   3.886   3.586  10.471 -0.0244  0.0732 -0.6798
18181TIP3    H275959   3.911   3.697  10.370 -1.5968  0.5199 -0.6017
18182TIP3   OH275960   4.086   4.975   3.172 -0.2069  0.7096 -0.7529
18182TIP3    H175961   4.174   4.987   3.135  0.7655 -0.5506  1.0008
18182TIP3    H275962   4.101   4.928   3.254 -2.8492 -3.9799 -2.6243
18183TIP3   OH275963   3.063   1.232   1.005  0.3101  0.7157  0.3461
18183TIP3    H175964   3.093   1.318   0.977  0.1009  0.9253  0.7757
18183TIP3    H275965   3.086   1.174   0.931 -0.0013  1.2179 -0.1540
18184TIP3   OH275966   6.507   0.489  14.742  0.7286 -0.4363 -0.4344
18184TIP3    H175967   6.586   0.466  14.792  0.7652  0.1321 -0.2224
18184TIP3    H275968   6.541   0.533  14.664  0.5983  0.6499  0.1035
18185TIP3   OH275969   1.287   6.482   3.072  0.0824  0.1790  0.3561
18185TIP3    H175970   1.253   6.395   3.053  0.8709  0.1640 -1.0675
18185TIP3    H275971   1.322   6.475   3.161  1.5350 -1.4210 -0.2853
18186TIP3   OH275972   2.239   0.680   0.699  0.1675 -0.3192  0.5594
18186TIP3    H175973   2.192   0.638   0.770 -0.0765 -0.4620  0.3121
18186TIP3    H275974   2.199   0.767   0.690 -0.1185 -0.4785  0.2816
18187TIP3   OH275975   3.743   0.086   5.355  0.0543 -0.1835  0.4774
18187TIP3    H175976   3.716   0.167   5.397  0.8485  0.3797 -0.0834
18187TIP3    H275977   3.715   0.017   5.415 -2.4340  0.3521  0.0369
18188TIP3   OH275978   0.986   5.226  12.019 -0.1702 -0.1945 -0.2108
18188TIP3    H175979   0.899   5.258  11.995  0.5625  0.2147 -2.6330
18188TIP3    H275980   0.984   5.132  11.998 -0.0438 -0.1930 -0.2323
18189TIP3   OH275981   5.101   2.874  13.607 -0.0820  0.2722 -0.2464
18189TIP3    H175982   5.134   2.957  13.641 -3.8569  2.5282 -1.4398
18189TIP3    H275983   5.110   2.812  13.680  2.2859  1.8487  0.9047
18190TIP3   OH275984   2.062   4.712  11.961 -0.3257  0.2947  0.6166
18190TIP3    H175985   2.030   4.651  12.028  0.9225 -0.3779  0.6254
18190TIP3    H275986   2.005   4.788  11.970 -0.9426 -0.2535  1.6475
18191TIP3   OH275987   0.955   1.531   1.593 -0.3318  0.3995 -0.3428
18191TIP3    H175988   0.912   1.460   1.640 -0.6860  1.0178  0.2810
18191TIP3    H275989   1.048   1.519   1.612 -0.2676 -0.5557 -1.1677
18192TIP3   OH275990   1.326   2.331   4.623 -0.1479 -0.1875 -0.4691
18192TIP3    H175991   1.398   2.284   4.581 -0.1966  0.8059 -1.6914
18192TIP3    H275992   1.337   2.422   4.596 -1.3158  0.1372  0.1039
18193TIP3   OH275993   3.770   0.935  11.205 -0.1091 -0.1447  0.0384
18193TIP3    H175994   3.852   0.959  11.161 -1.2436  0.3940 -1.8862
18193TIP3    H275995   3.784   0.845  11.233  1.4586  0.2240  0.5561
18194TIP3   OH275996   3.082   1.593   3.947  0.2945 -0.2735 -0.2040
18194TIP3    H175997   3.007   1.579   3.889 -0.6324  1.7993  0.3825
18194TIP3    H275998   3.044   1.599   4.034  1.3049 -0.4867  0.2627
18195TIP3   OH275999   1.440   1.016   1.162 -0.1029 -0.0269  0.2182
18195TIP3    H176000   1.406   1.081   1.100  0.6164  0.4025  0.2637
18195TIP3    H276001   1.378   1.017   1.234 -0.7901 -0.3145 -0.3505
18196TIP3   OH276002   0.891   0.470  12.412  0.3759 -0.3043  0.0345
18196TIP3    H176003   0.983   0.452  12.432  0.6798 -0.0735 -1.0916
18196TIP3    H276004   0.850   0.483  12.497  1.8468  1.7951  0.4971
18197TIP3   OH276005   5.314   0.443   2.281 -0.4759  0.1634 -0.5222
18197TIP3    H176006   5.304   0.348   2.279  0.8029 -0.0248  0.3181
18197TIP3    H276007   5.248   0.473   2.344  0.0320 -0.3408  0.2746
18198TIP3   OH276008   6.091   0.503   0.254 -0.1253  0.1534  0.1802
18198TIP3    H176009   5.998   0.488   0.239 -0.1313 -0.3142  0.6341
18198TIP3    H276010   6.111   0.583   0.207 -1.2088  1.4085  1.7639
18199TIP3   OH276011   4.713   2.440   1.655 -0.7145 -0.3164 -0.4730
18199TIP3    H176012   4.678   2.461   1.742 -2.0901  0.9963 -1.3017
18199TIP3    H276013   4.698   2.346   1.645 -2.2135 -0.1540  0.0010
18200TIP3   OH276014   1.823   4.833   1.712  0.5420 -0.1497 -0.0437
18200TIP3    H176015   1.738   4.809   1.674  0.9403 -0.5450 -0.6970
18200TIP3    H276016   1.872   4.751   1.715  1.5454  0.3722 -1.3349
18201TIP3   OH276017   5.125   5.933  14.175 -0.8199 -0.2825 -0.1983
18201TIP3    H176018   5.072   5.855  14.158  1.2636 -1.3964 -2.0189
18201TIP3    H276019   5.153   5.962  14.089 -0.6047  1.8405  0.5434
18202TIP3   OH276020   2.293   0.604   3.344 -0.4343 -0.1385  0.6365
18202TIP3    H176021   2.205   0.637   3.363 -1.3538 -1.0409 -1.7231
18202TIP3    H276022   2.351   0.675   3.371 -1.8801  0.6665  1.8350
18203TIP3   OH276023   5.461   5.545   0.336  0.1510 -0.1909  0.2366
18203TIP3    H176024   5.555   5.562   0.342  0.2882 -0.7127 -0.3564
18203TIP3    H276025   5.446   5.524   0.244 -0.2501 -1.8086  0.6348
18204TIP3   OH276026   5.929   2.363  14.724 -0.3096 -0.2189 -0.6577
18204TIP3    H176027   5.898   2.450  14.749 -3.6290 -0.6675 -2.6054
18204TIP3    H276028   6.013   2.379  14.681 -0.3152  1.8557 -0.0083
18205TIP3   OH276029   6.202   4.340  13.683  0.1059 -0.3407 -0.4508
18205TIP3    H176030   6.109   4.318  13.685 -0.0270  0.2017 -0.3437
18205TIP3    H276031   6.210   4.415  13.742  0.8331 -1.1652  0.5280
18206TIP3   OH276032   5.090   3.141   4.050  0.4436  0.0984 -0.5526
18206TIP3    H176033   5.092   3.097   4.135  0.6680  0.3360 -0.4322
18206TIP3    H276034   4.998   3.137   4.024 -0.0502  1.8579  0.6876
18207TIP3   OH276035   3.869   0.816   0.420 -0.6487 -0.1511  0.4584
18207TIP3    H176036   3.883   0.745   0.358  0.2939  1.0088 -0.7219
18207TIP3    H276037   3.911   0.892   0.379 -4.0372  1.8146  0.2963
18208TIP3   OH276038   2.447   2.317   1.959  0.1666  0.0589 -0.0247
18208TIP3    H176039   2.383   2.327   1.889  0.5799 -0.9041 -0.5602
18208TIP3    H276040   2.529   2.299   1.915  0.2350 -1.6181  0.6964
18209TIP3   OH276041   0.475   3.422  14.386  0.4156  0.7078 -0.5738
18209TIP3    H176042   0.543   3.406  14.451  1.2756  2.8773 -0.8663
18209TIP3    H276043   0.395   3.389  14.426  1.2191  0.3552  0.8018
18210TIP3   OH276044   2.629   6.801  16.406 -0.4099 -0.4643 -0.4979
18210TIP3    H176045   2.724   6.795  16.417 -0.7244 -1.3519  2.5928
18210TIP3    H276046   2.608   6.889  16.436 -0.6198 -0.3343 -1.0125
18211TIP3   OH276047   4.208   5.083   3.838 -0.0955 -0.4163 -1.1104
18211TIP3    H176048   4.210   5.093   3.933  0.7188 -2.1547 -0.9042
18211TIP3    H276049   4.178   5.168   3.805  1.3019  0.7929  0.5853
18212TIP3   OH276050   4.246   0.063  11.360 -0.2440 -0.4001 -1.0115
18212TIP3    H176051   4.227   0.146  11.315  1.1213  0.4379 -0.1089
18212TIP3    H276052   4.305   0.017  11.300  1.8696  0.8745 -0.0171
18213TIP3   OH276053   3.460   1.006  14.722 -0.3591  0.0771 -0.0041
18213TIP3    H176054   3.420   0.920  14.711  0.4736 -0.3499  0.1825
18213TIP3    H276055   3.497   1.027  14.636  1.3805 -0.7832  0.4870
18214TIP3   OH276056   2.051   3.186   6.188  0.5649 -0.3527 -0.0947
18214TIP3    H176057   1.988   3.212   6.256 -0.1197  1.5664 -1.3928
18214TIP3    H276058   2.117   3.255   6.189 -0.4789  0.7778 -2.6144
18215TIP3   OH276059   6.245   5.073  15.336  0.0448  0.5343  0.4217
18215TIP3    H176060   6.284   4.999  15.384  2.1334  0.6280 -0.9981
18215TIP3    H276061   6.284   5.150  15.377  0.3219  0.6956 -0.1443
18216TIP3   OH276062   5.408   4.070  14.929  0.4837 -0.2154 -0.2567
18216TIP3    H176063   5.474   4.119  14.978  0.1594 -1.3382  1.3782
18216TIP3    H276064   5.326   4.118  14.944  0.5268 -0.0811 -0.4364
18217TIP3   OH276065   5.140   4.097   0.284  0.4991 -0.0137 -0.4563
18217TIP3    H176066   5.151   4.192   0.287  0.0404  0.0335 -0.1836
18217TIP3    H276067   5.073   4.079   0.350  0.8839 -0.5709 -0.2125
18218TIP3   OH276068   6.255   1.322  13.624 -0.5044  0.3255 -0.1844
18218TIP3    H176069   6.207   1.390  13.671  0.8323 -0.3876  2.3547
18218TIP3    H276070   6.287   1.263  13.692  3.3197  0.3124 -1.7469
18219TIP3   OH276071   2.990   3.099  13.483 -0.0860  0.0558 -0.0143
18219TIP3    H176072   2.967   3.082  13.392 -1.6803  2.0040 -0.0484
18219TIP3    H276073   3.054   3.170  13.479  0.2521 -0.2234  0.3692
18220TIP3   OH276074   4.311   2.488  12.848 -0.3703  0.3369 -0.4693
18220TIP3    H176075   4.233   2.437  12.824 -0.9943  0.5722  0.9130
18220TIP3    H276076   4.370   2.424  12.888 -0.2690  0.3244 -0.6407
18221TIP3   OH276077   4.936   3.881   1.741 -0.2233  0.3529 -0.9118
18221TIP3    H176078   4.975   3.793   1.742 -1.4891 -0.2898 -2.7205
18221TIP3    H276079   4.964   3.919   1.658 -0.5586  1.2600 -0.6225
18222TIP3   OH276080   5.398   5.941   3.015  0.0505  0.0279 -0.3369
18222TIP3    H176081   5.400   6.005   2.944 -0.7199 -0.1609 -0.5506
18222TIP3    H276082   5.373   5.859   2.971 -1.9003  0.2020  0.3289
18223TIP3   OH276083   6.557   6.218  13.854 -0.1854 -0.0107 -0.5168
18223TIP3    H176084   6.557   6.310  13.880 -0.4608 -1.0138  3.6777
18223TIP3    H276085   6.646   6.188  13.870 -0.2874 -0.6624 -1.1031
18224TIP3   OH276086   2.166   3.913  14.642  0.3144 -0.3730  0.4216
18224TIP3    H176087   2.075   3.889  14.624  0.0377  1.9129 -1.9300
18224TIP3    H276088   2.162   3.963  14.723 -0.5714 -0.2408  0.3075
18225TIP3   OH276089   4.998   4.227  12.790  0.6556 -0.0542  0.1277
18225TIP3    H176090   5.022   4.150  12.842  0.5537  0.1669  0.5092
18225TIP3    H276091   4.907   4.212  12.765 -0.1987  1.0477  2.2846
18226TIP3   OH276092   3.321   5.323   6.849  0.4712  0.0749  0.5138
18226TIP3    H176093   3.411   5.300   6.825 -0.4204 -1.7047 -1.4000
18226TIP3    H276094   3.282   5.241   6.878 -0.9332  0.4902 -0.1072
18227TIP3   OH276095   4.489   5.830   1.061  0.1753  0.1340  0.0091
18227TIP3    H176096   4.570   5.833   1.110 -0.6565  2.2847  1.3759
18227TIP3    H276097   4.496   5.900   0.996 -0.3380 -0.0725 -0.2840
18228TIP3   OH276098   1.219   2.203  12.412  0.0961 -0.1656  0.0439
18228TIP3    H176099   1.298   2.170  12.455 -0.2930 -0.2113  0.7246
18228TIP3    H276100   1.240   2.200  12.318  1.0057  0.0846  0.2307
18229TIP3   OH276101   2.922   6.751  10.866  0.5213  0.6366 -0.1074
18229TIP3    H176102   2.850   6.694  10.892  0.2406  0.2845 -1.5493
18229TIP3    H276103   2.882   6.813  10.804  1.3711  0.6872 -0.6195
18230TIP3   OH276104   4.336   0.597   1.111  0.1670 -0.0733 -0.1481
18230TIP3    H176105   4.283   0.649   1.051  1.7514  0.6328 -0.9848
18230TIP3    H276106   4.409   0.654   1.134  0.7417 -1.1250  0.7368
18231TIP3   OH276107   3.874   3.141  16.851  0.3330  0.6928 -0.1627
18231TIP3    H176108   3.784   3.173  16.859  0.2388  0.6571 -0.9989
18231TIP3    H276109   3.907   3.140  16.941 -0.3593  1.1136  0.1055
18232TIP3   OH276110   3.442   1.223   3.179  0.3412  0.1424  0.1615
18232TIP3    H176111   3.485   1.138   3.188  1.3322  0.5393 -0.5306
18232TIP3    H276112   3.383   1.229   3.253  0.7569 -0.8739  0.5846
18233TIP3   OH276113   0.819   0.412  14.800  0.0022 -0.4321  0.0110
18233TIP3    H176114   0.780   0.343  14.746 -3.6003  1.6685 -0.3967
18233TIP3    H276115   0.853   0.475  14.737 -1.1712  0.4408  0.2289
18234TIP3   OH276116   6.591   4.436  13.291  0.0938  0.3814 -0.0146
18234TIP3    H176117   6.539   4.356  13.291  0.4489  0.1447 -0.6718
18234TIP3    H276118   6.664   4.417  13.349  0.6754 -0.1162 -0.8783
18235TIP3   OH276119   5.749   5.598   4.956  0.4639  0.2872  0.1303
18235TIP3    H176120   5.806   5.528   4.923 -0.6580  0.0917 -1.5172
18235TIP3    H276121   5.810   5.666   4.984  1.5772  0.2716 -2.0029
18236TIP3   OH276122   5.429   5.480   0.084  0.0482 -0.1363  0.3659
18236TIP3    H176123   5.486   5.414   0.044  0.7877 -0.0487  1.2559
18236TIP3    H276124   5.348   5.433   0.104 -0.3774 -0.1712 -1.2732
18237TIP3   OH276125   3.438   4.847   1.680 -0.3358  0.2914  0.1690
18237TIP3    H176126   3.401   4.930   1.649 -1.9634 -0.1602  0.8166
18237TIP3    H276127   3.412   4.784   1.613  1.1571  0.3256 -0.4768
18238TIP3   OH276128   0.778   6.499  11.445 -0.0127  0.0176 -0.6515
18238TIP3    H176129   0.820   6.575  11.487 -1.4088  1.4406 -1.7079
18238TIP3    H276130   0.831   6.482  11.367 -1.4091  1.9812 -2.1324
18239TIP3   OH276131   3.801   4.275  12.086  0.3692 -0.0152 -0.3691
18239TIP3    H176132   3.707   4.270  12.103  0.4461 -0.1225  0.0237
18239TIP3    H276133   3.817   4.368  12.070  0.5426  0.3187  1.6033
18240TIP3   OH276134   1.961   1.847   3.653 -0.5753 -0.2297 -0.9101
18240TIP3    H176135   1.888   1.883   3.704 -1.5471 -1.8788 -1.0529
18240TIP3    H276136   1.969   1.906   3.578 -0.2339  1.2701  0.2515
18241TIP3   OH276137   6.364   5.430   3.811  0.5259  0.1827  1.0975
18241TIP3    H176138   6.306   5.444   3.736  0.2523  2.9199  1.6808
18241TIP3    H276139   6.410   5.514   3.821  1.9563 -0.7342  2.8284
18242TIP3   OH276140   0.050   2.506  15.802 -0.9195  0.2725  0.4783
18242TIP3    H176141   0.113   2.573  15.776 -1.2013  0.0644 -0.8238
18242TIP3    H276142   0.045   2.448  15.726 -2.9713  0.5117  0.3870
18243TIP3   OH276143   6.259   1.010   2.732  0.0156 -0.2381 -0.0336
18243TIP3    H176144   6.348   1.018   2.765 -0.2121 -1.8880  1.1213
18243TIP3    H276145   6.205   1.000   2.811 -0.9374 -1.1494 -0.7729
18244TIP3   OH276146   0.922   0.868  12.569 -0.0412 -0.4088  0.0258
18244TIP3    H176147   0.968   0.812  12.631  0.3563 -0.4988 -0.3441
18244TIP3    H276148   0.877   0.807  12.511  1.1923 -0.4054 -0.9963
18245TIP3   OH276149   2.780   2.495  13.501 -0.3631  0.7660 -0.3651
18245TIP3    H176150   2.765   2.569  13.442  1.2075 -1.3861 -3.8055
18245TIP3    H276151   2.695   2.453  13.511 -0.6439  1.1226 -1.2195
18246TIP3   OH276152   0.169   2.479   3.850  0.6021 -0.0670  0.1894
18246TIP3    H176153   0.122   2.437   3.921  0.6353  0.1800  0.3578
18246TIP3    H276154   0.203   2.407   3.797 -3.3566 -0.4406 -2.2777
18247TIP3   OH276155   2.655   3.563  16.647  0.2682  0.8497 -0.0723
18247TIP3    H176156   2.668   3.577  16.741 -2.5704 -1.2412  0.7864
18247TIP3    H276157   2.623   3.646  16.614  4.5257  2.7458 -0.1125
18248TIP3   OH276158   1.722   1.641   3.959  0.3761  0.2195 -0.2185
18248TIP3    H176159   1.695   1.682   4.041  2.4777  0.3602  0.4621
18248TIP3    H276160   1.692   1.550   3.967  3.3531 -0.7736  2.3413
18249TIP3   OH276161   0.808   3.014  13.888 -0.0712  0.4566 -0.0707
18249TIP3    H176162   0.822   3.098  13.931  0.7061 -0.0026  0.6140
18249TIP3    H276163   0.791   3.036  13.797  2.3982  1.2726 -0.4194
18250TIP3   OH276164   0.021   3.778   1.667  0.4761  0.3204  0.5777
18250TIP3    H176165   0.059   3.864   1.683 -2.3458  1.5297  1.4009
18250TIP3    H276166   0.027   3.733   1.751  2.7685 -0.7561 -0.0664
18251TIP3   OH276167   5.631   5.873   2.801 -0.2885  0.0930 -0.2858
18251TIP3    H176168   5.723   5.876   2.775 -0.7003 -0.9026 -2.0327
18251TIP3    H276169   5.628   5.807   2.870  0.2660 -0.1204 -0.4607
18252TIP3   OH276170   3.227   3.207  13.088 -0.1452  0.5608 -0.2845
18252TIP3    H176171   3.258   3.260  13.014 -0.7464  0.1775 -0.8308
18252TIP3    H276172   3.132   3.215  13.085 -0.2774 -0.8333 -0.6181
18253TIP3   OH276173   2.876   3.619   5.894  0.9023 -0.0364  0.0630
18253TIP3    H176174   2.869   3.531   5.931  4.3306 -0.9706 -1.1403
18253TIP3    H276175   2.925   3.669   5.959  1.1936  0.2115 -0.3409
18254TIP3   OH276176   6.039   1.018   3.582  0.2239  0.5447  0.4974
18254TIP3    H176177   6.078   0.951   3.526  0.5327  3.0756 -2.5754
18254TIP3    H276178   6.113   1.066   3.618  0.1230  2.4389 -1.6090
18255TIP3   OH276179   6.482   0.975   4.279  0.1018  0.1773  0.5359
18255TIP3    H176180   6.411   0.955   4.341 -0.6914 -1.0671 -0.7125
18255TIP3    H276181   6.515   0.889   4.252  0.3648  0.6876 -0.8332
18256TIP3   OH276182   6.759   3.529   1.567  0.3710 -0.6937  0.1167
18256TIP3    H176183   6.700   3.528   1.643  1.0533 -1.8866  0.6655
18256TIP3    H276184   6.823   3.598   1.586 -0.6160  0.3721 -0.3217
18257TIP3   OH276185   1.936   5.612   2.764 -0.3583  0.1981  0.1203
18257TIP3    H176186   1.841   5.612   2.751 -0.4197 -1.5381  0.3509
18257TIP3    H276187   1.951   5.675   2.834 -1.1831  1.3844 -0.7199
18258TIP3   OH276188   6.516   1.787   4.585  0.2318  0.2908 -0.0312
18258TIP3    H176189   6.423   1.805   4.591  0.0017 -0.8903  0.2928
18258TIP3    H276190   6.528   1.707   4.637  1.4631  0.5773  0.1552
18259TIP3   OH276191   6.399   3.388  11.570 -0.2186  0.4703  0.2979
18259TIP3    H176192   6.465   3.397  11.638  2.8161  2.2054 -2.5927
18259TIP3    H276193   6.432   3.320  11.512 -1.9497  0.0563 -0.2916
18260TIP3   OH276194   2.976   1.853   3.566 -0.9577  0.3923 -0.0793
18260TIP3    H176195   3.008   1.850   3.476 -0.7135  0.5132  0.0020
18260TIP3    H276196   3.039   1.800   3.615 -1.3627 -0.0850 -0.0590
18261TIP3   OH276197   3.949   5.607  14.201  0.5723 -0.0378 -0.2294
18261TIP3    H176198   4.025   5.571  14.155  2.2220  2.2649  0.5030
18261TIP3    H276199   3.946   5.699  14.173 -1.7501  0.0250  0.0639
18262TIP3   OH276200   2.361   6.777  11.596  0.1196  0.4612 -0.2274
18262TIP3    H176201   2.282   6.771  11.543  0.5500 -0.2409 -0.8008
18262TIP3    H276202   2.351   6.860  11.644 -0.4292  0.9529 -1.1581
18263TIP3   OH276203   5.096   2.950   5.398 -0.1945 -0.1615  0.4968
18263TIP3    H176204   5.060   2.974   5.483  0.3950 -0.0475  0.7163
18263TIP3    H276205   5.177   3.001   5.390  0.8064 -1.6517  0.7461
18264TIP3   OH276206   1.927   0.402   5.583 -0.2622  0.1320 -0.2430
18264TIP3    H176207   1.923   0.497   5.576  1.0152  0.1663 -0.7743
18264TIP3    H276208   2.016   0.380   5.558  0.2480 -1.0273  2.3358
18265TIP3   OH276209   6.681   6.039   4.786 -0.1927 -0.1532 -0.0595
18265TIP3    H176210   6.655   6.020   4.876 -0.8499  2.7625  0.4821
18265TIP3    H276211   6.618   5.993   4.732 -0.3654 -1.1881  0.9906
18266TIP3   OH276212   3.533   5.396   5.475  0.1964 -0.7191  0.3367
18266TIP3    H176213   3.608   5.445   5.510 -0.4833  0.0193  0.7919
18266TIP3    H276214   3.462   5.412   5.538 -0.9101  0.2090 -1.0961
18267TIP3   OH276215   5.537   4.634  13.981 -0.1288  0.4522 -0.3821
18267TIP3    H176216   5.587   4.563  13.942 -0.8654  0.3253 -1.1347
18267TIP3    H276217   5.456   4.593  14.011  0.4036  0.5553  1.2807
18268TIP3   OH276218   5.484   2.313   4.401 -0.4923  0.0628  0.0274
18268TIP3    H176219   5.456   2.226   4.374 -0.1914 -0.6254  1.7691
18268TIP3    H276220   5.580   2.309   4.397 -0.4208 -0.1870  1.4343
18269TIP3   OH276221   3.847   1.417   1.162 -0.7717  0.1548  0.4092
18269TIP3    H176222   3.791   1.355   1.209 -1.6967 -0.0991 -0.9663
18269TIP3    H276223   3.843   1.388   1.071 -0.2187  1.5076 -0.0695
18270TIP3   OH276224   6.452   3.501   3.038  0.2421  0.3499  0.1723
18270TIP3    H176225   6.499   3.511   3.121  1.3151 -0.3815 -0.3209
18270TIP3    H276226   6.407   3.585   3.026 -1.1456 -0.0278  2.1864
18271TIP3   OH276227   4.812   5.642  12.339  0.1692 -0.2492 -0.0938
18271TIP3    H176228   4.869   5.588  12.394 -0.2626  0.3306  0.9490
18271TIP3    H276229   4.856   5.727  12.334  0.3405 -0.3744 -0.8869
18272TIP3   OH276230   6.088   3.109   0.183  0.0244  0.1767 -0.1059
18272TIP3    H176231   6.090   3.087   0.090 -0.3469 -0.1630 -0.0354
18272TIP3    H276232   6.174   3.147   0.200  0.6840 -1.2253 -0.2248
18273TIP3   OH276233   4.705   3.763   5.927  0.8508 -0.5752 -0.5887
18273TIP3    H176234   4.769   3.793   5.992  0.2671 -1.5262  0.4653
18273TIP3    H276235   4.729   3.810   5.847  2.2305 -0.1372  0.0361
18274TIP3   OH276236   5.612   2.969  15.240  0.8164  0.1251 -0.1446
18274TIP3    H176237   5.700   2.931  15.234  0.8377  0.1589 -0.0419
18274TIP3    H276238   5.613   3.020  15.320  1.0192  0.9421 -0.6595
18275TIP3   OH276239   4.597   5.484  14.706  0.4486  0.3685 -0.0962
18275TIP3    H176240   4.688   5.499  14.679  0.1741  2.0730 -0.1620
18275TIP3    H276241   4.587   5.533  14.787 -0.3905  0.1308 -0.0465
18276TIP3   OH276242   2.142   6.677   0.575  0.9636 -0.0017 -0.0393
18276TIP3    H176243   2.181   6.725   0.502 -0.4137  0.2579 -0.6371
18276TIP3    H276244   2.180   6.717   0.653  0.4692  1.5282 -0.5415
18277TIP3   OH276245   2.940   4.947   1.507  0.3306 -0.0133  0.3975
18277TIP3    H176246   2.928   5.032   1.464 -0.8491  0.7191  2.0488
18277TIP3    H276247   2.938   4.967   1.600  1.6704 -1.6812  0.8348
18278TIP3   OH276248   6.137   6.525  12.030  0.6030  0.3775  0.2544
18278TIP3    H176249   6.232   6.526  12.025  0.6008 -0.5363 -0.1292
18278TIP3    H276250   6.116   6.446  12.080  0.0647  0.9496  0.9539
18279TIP3   OH276251   1.451   1.136  13.815 -0.6965 -0.1425  0.3782
18279TIP3    H176252   1.475   1.228  13.808  0.0119 -0.3544 -0.0669
18279TIP3    H276253   1.527   1.094  13.854 -0.5794 -0.7183 -0.4404
18280TIP3   OH276254   5.649   2.332  13.264 -0.1422 -0.1321  0.3610
18280TIP3    H176255   5.554   2.319  13.262 -0.1021 -0.4186  0.2543
18280TIP3    H276256   5.660   2.423  13.291 -0.4867  0.2984 -0.8742
18281TIP3   OH276257   0.538   6.233  13.191  0.6629  0.1386 -0.1856
18281TIP3    H176258   0.610   6.218  13.130  0.4677 -0.1194 -0.3528
18281TIP3    H276259   0.546   6.162  13.255 -0.5903 -1.0292 -1.2870
18282TIP3   OH276260   4.736   3.091   5.751 -0.2819  0.1124  0.4046
18282TIP3    H176261   4.664   3.044   5.792  0.6166 -2.3488 -0.6109
18282TIP3    H276262   4.808   3.027   5.748  0.6399  1.1294 -2.1787
18283TIP3   OH276263   6.230   1.884   0.625  0.1350 -0.4460  0.4540
18283TIP3    H176264   6.308   1.907   0.575 -0.5069  0.1834 -0.2773
18283TIP3    H276265   6.199   1.802   0.587 -0.8844  0.5053 -0.8431
18284TIP3   OH276266   0.694   6.764   0.373 -0.0981  0.8088 -0.3557
18284TIP3    H176267   0.680   6.706   0.448  0.6383  0.2121 -0.6607
18284TIP3    H276268   0.606   6.783   0.340 -0.4380  1.2148  0.7532
18285TIP3   OH276269   6.324   3.280   2.296 -1.0831  0.5201  0.5658
18285TIP3    H176270   6.416   3.279   2.268 -0.7950 -0.6652  1.4527
18285TIP3    H276271   6.281   3.341   2.236 -0.3255 -1.0833 -1.7501
18286TIP3   OH276272   3.988   3.789   2.990 -0.1123  0.2939 -0.0435
18286TIP3    H176273   4.004   3.797   3.084 -1.3258  3.4364 -0.0037
18286TIP3    H276274   4.061   3.835   2.949  0.0061 -0.3996 -0.6306
18287TIP3   OH276275   5.535   2.431  15.505  0.3006 -0.1428  0.2895
18287TIP3    H176276   5.457   2.408  15.555  0.3156  0.7992  0.7659
18287TIP3    H276277   5.590   2.352  15.509 -1.4635 -1.6051 -1.8172
18288TIP3   OH276278   1.822   2.984   5.024  0.3758 -0.4936 -0.0033
18288TIP3    H176279   1.738   2.942   5.040  1.0821 -1.9355  0.0377
18288TIP3    H276280   1.855   2.943   4.944  1.2659 -0.3174  0.2636
18289TIP3   OH276281   3.342   0.634  11.066 -0.2023  0.6597  0.1577
18289TIP3    H176282   3.393   0.566  11.023  1.0038  1.3036  0.5288
18289TIP3    H276283   3.260   0.637  11.017  1.1015  1.3681 -2.1109
18290TIP3   OH276284   0.604   3.242  13.781  0.1833  0.1106  0.2547
18290TIP3    H176285   0.597   3.194  13.699 -1.4971 -0.3195  0.6055
18290TIP3    H276286   0.635   3.329  13.756 -0.8610  0.1642 -0.9135
18291TIP3   OH276287   2.949   1.487  14.148 -0.4332 -0.3379 -0.2247
18291TIP3    H176288   3.026   1.528  14.189 -0.3275 -0.3527 -0.4064
18291TIP3    H276289   2.892   1.561  14.125 -0.3585 -0.3090 -0.3190
18292TIP3   OH276290   0.448   6.408  10.210 -0.0209  0.3289  0.2744
18292TIP3    H176291   0.403   6.346  10.267 -1.5104 -0.7972 -1.9507
18292TIP3    H276292   0.534   6.370  10.196 -0.6734 -0.9199 -0.5030
18293TIP3   OH276293   3.160   3.320  13.576 -0.1019 -0.1915 -0.1921
18293TIP3    H176294   3.234   3.358  13.529 -0.1914 -0.0646 -0.2293
18293TIP3    H276295   3.200   3.257  13.637  0.1335  0.7928  0.6986
18294TIP3   OH276296   0.122   2.399  13.841  0.4943 -0.0676 -0.2343
18294TIP3    H176297   0.077   2.336  13.897 -0.1758  1.9814  1.6831
18294TIP3    H276298   0.213   2.399  13.873  0.6288 -0.4435 -0.6082
18295TIP3   OH276299   1.855   6.775  16.871  1.0175 -0.1369 -0.0770
18295TIP3    H176300   1.939   6.814  16.846  0.6750  1.2442  0.8188
18295TIP3    H276301   1.814   6.840  16.928 -1.1350 -0.3177 -1.3107
18296TIP3   OH276302   1.773   1.844  11.180  0.7714 -0.3684 -0.4324
18296TIP3    H176303   1.749   1.807  11.095 -0.4942  3.0784 -1.7533
18296TIP3    H276304   1.865   1.866  11.171  0.1202  2.1977 -1.9928
18297TIP3   OH276305   3.793   3.389   6.280  0.2744 -0.6155 -0.4455
18297TIP3    H176306   3.732   3.325   6.315  2.1405 -2.6145 -0.6866
18297TIP3    H276307   3.761   3.406   6.191 -1.2386  0.1988  0.2166
18298TIP3   OH276308   4.817   4.692  16.133  0.0745 -0.4214 -0.0610
18298TIP3    H176309   4.735   4.669  16.088  0.2808 -0.5333 -0.3778
18298TIP3    H276310   4.812   4.787  16.145 -0.1207 -0.4341 -0.0393
18299TIP3   OH276311   5.829   0.783  11.720  0.1229 -0.1404  0.4475
18299TIP3    H176312   5.741   0.787  11.683  0.1457 -0.7863  0.3098
18299TIP3    H276313   5.821   0.828  11.804 -0.1105  0.6487  0.0098
18300TIP3   OH276314   4.444   2.876   3.570 -0.4497  0.3420  0.0292
18300TIP3    H176315   4.418   2.789   3.540  0.8103 -0.9412  2.3118
18300TIP3    H276316   4.367   2.910   3.616  0.1591 -1.3528  2.5410
18301TIP3   OH276317   1.486   4.023  11.315 -0.0773  0.5790  0.2883
18301TIP3    H176318   1.476   3.985  11.228  0.3976  0.1119  0.4292
18301TIP3    H276319   1.560   4.084  11.306 -0.2740  0.8170  0.2741
18302TIP3   OH276320   0.069   3.682  12.503  0.1179 -0.0898 -0.3797
18302TIP3    H176321   0.000   3.740  12.470  0.0878  1.2729  1.8209
18302TIP3    H276322   0.150   3.717  12.465 -0.2831 -1.6140 -2.8634
18303TIP3   OH276323   3.493   4.442  11.358 -0.6761  0.6939  0.1646
18303TIP3    H176324   3.547   4.377  11.402  0.1191  1.2747  0.0578
18303TIP3    H276325   3.523   4.442  11.268 -2.5188 -0.7236 -0.5196
18304TIP3   OH276326   5.094   3.270   1.396  0.1745  0.3033 -0.4216
18304TIP3    H176327   5.075   3.256   1.489 -1.5035 -0.5004 -0.8459
18304TIP3    H276328   5.187   3.248   1.387 -0.1378 -1.7309  0.7110
18305TIP3   OH276329   4.278   2.925   4.207  0.0319  0.2974 -0.0910
18305TIP3    H176330   4.291   3.003   4.153 -0.7705  0.1558 -0.5018
18305TIP3    H276331   4.261   2.958   4.295 -0.2865  0.5836 -0.2605
18306TIP3   OH276332   4.744   4.878   0.324 -0.3938 -0.3475 -0.6456
18306TIP3    H176333   4.778   4.963   0.355  1.2647 -1.5258  1.0242
18306TIP3    H276334   4.665   4.863   0.377 -1.5953  0.8093 -2.0421
18307TIP3   OH276335   6.083   2.132   1.724 -0.0415  0.4323 -0.1112
18307TIP3    H176336   6.149   2.197   1.700 -0.1961  0.4189 -0.5909
18307TIP3    H276337   6.132   2.051   1.733 -0.0403  0.3450 -0.8400
18308TIP3   OH276338   3.579   1.778   2.988  0.3731  0.1013  0.8338
18308TIP3    H176339   3.615   1.761   2.901  1.3410 -1.0511  1.4285
18308TIP3    H276340   3.647   1.828   3.033 -0.6947  1.9272  0.5135
18309TIP3   OH276341   4.667   4.528   0.390 -0.2140 -0.3508  0.1250
18309TIP3    H176342   4.656   4.622   0.402 -0.7709 -0.3119 -0.6406
18309TIP3    H276343   4.579   4.495   0.377 -0.0222 -0.9835  0.4113
18310TIP3   OH276344   5.968   5.773   3.342  0.0234 -0.2326 -0.1317
18310TIP3    H176345   5.941   5.727   3.263  2.2041 -0.5587 -0.7654
18310TIP3    H276346   5.934   5.720   3.414 -1.5784 -0.1966 -0.8254
18311TIP3   OH276347   6.436   1.614  11.559 -0.5409 -0.1444  0.3727
18311TIP3    H176348   6.478   1.591  11.476 -0.4488  3.1181 -0.6156
18311TIP3    H276349   6.492   1.682  11.596 -3.4200  2.4897  0.2880
18312TIP3   OH276350   6.482   5.785  15.027  0.1080 -0.2012 -0.4577
18312TIP3    H176351   6.455   5.873  15.053 -1.4127 -0.5490 -0.7663
18312TIP3    H276352   6.499   5.791  14.933 -2.2861 -0.7083 -0.9828
18313TIP3   OH276353   4.583   4.174  15.788  0.1555 -0.2156  0.5957
18313TIP3    H176354   4.615   4.223  15.712 -0.3594  1.9602  1.6739
18313TIP3    H276355   4.643   4.198  15.858 -0.6804 -0.3555  1.3787
18314TIP3   OH276356   5.920   5.625   3.611 -0.0105  0.2262  0.1914
18314TIP3    H176357   5.832   5.610   3.576  0.8525 -3.1276 -0.9617
18314TIP3    H276358   5.905   5.653   3.701 -2.2540  0.5148 -0.1998
18315TIP3   OH276359   3.312   3.534   2.577  0.1745 -0.1425  0.5741
18315TIP3    H176360   3.309   3.504   2.668 -1.2813 -2.1404 -0.0610
18315TIP3    H276361   3.252   3.609   2.574  0.5957  0.2344  1.3312
18316TIP3   OH276362   0.126   5.375  14.860 -0.4010 -0.0196  0.1455
18316TIP3    H176363   0.211   5.383  14.817  1.5437 -1.1382  3.4529
18316TIP3    H276364   0.068   5.433  14.810  2.2748  0.8243 -2.2049
18317TIP3   OH276365   4.771   3.603  14.430 -0.1858  0.0877 -0.1185
18317TIP3    H176366   4.784   3.536  14.497  0.7399 -0.2719 -0.6418
18317TIP3    H276367   4.859   3.634  14.410 -0.5842  1.2821 -0.0779
18318TIP3   OH276368   4.264   6.743  12.589  0.0236  0.4883 -0.3232
18318TIP3    H176369   4.293   6.792  12.666 -0.4434  0.5591 -0.1931
18318TIP3    H276370   4.307   6.658  12.598  0.0625  0.5354 -0.0428
18319TIP3   OH276371   5.888   6.616  14.872 -0.6996 -0.3224 -0.3258
18319TIP3    H176372   5.797   6.607  14.901 -0.7423  1.0198  0.0229
18319TIP3    H276373   5.938   6.621  14.953 -0.1303 -2.3540 -0.4976
18320TIP3   OH276374   2.449   1.668  16.441 -0.0677  0.2707  0.5812
18320TIP3    H176375   2.507   1.704  16.374 -0.0737 -1.9156 -0.7146
18320TIP3    H276376   2.373   1.725  16.441  0.5435  1.1146 -0.2634
18321TIP3   OH276377   0.848   0.535   3.854 -0.2555 -0.5406 -0.0295
18321TIP3    H176378   0.824   0.623   3.882 -0.0477 -0.2399 -0.7686
18321TIP3    H276379   0.770   0.483   3.868 -0.8323  0.0688 -0.8759
18322TIP3   OH276380   2.505   2.858   0.768  0.0995  0.2271 -0.0336
18322TIP3    H176381   2.428   2.812   0.802  1.5176 -1.3651  1.2065
18322TIP3    H276382   2.558   2.877   0.845  1.8601 -0.4766 -1.0124
18323TIP3   OH276383   3.187   5.316   1.691  0.4626  0.2965  0.0815
18323TIP3    H176384   3.232   5.310   1.607  1.8105  2.7356  0.5424
18323TIP3    H276385   3.110   5.371   1.673  0.4400  0.3439  0.3205
18324TIP3   OH276386   2.448   4.033  11.492  0.0801 -0.4635 -0.5058
18324TIP3    H176387   2.359   4.009  11.520 -1.0649  2.1515 -1.5106
18324TIP3    H276388   2.477   4.096  11.558  0.8222 -0.5988 -0.7022
18325TIP3   OH276389   5.976   5.659   5.134  0.7240 -0.0781 -0.0096
18325TIP3    H176390   5.928   5.581   5.164 -1.8480  0.4169 -2.4020
18325TIP3    H276391   5.960   5.724   5.202 -1.2799 -0.2454 -0.2549
18326TIP3   OH276392   5.035   1.925   1.705  0.4283 -0.6118 -0.3217
18326TIP3    H176393   5.056   1.959   1.792  0.4892 -0.6434 -0.3244
18326TIP3    H276394   5.086   1.844   1.697  0.3553 -0.6559 -0.3517
18327TIP3   OH276395   6.263   5.204   0.173 -0.0655  0.0092  0.1248
18327TIP3    H176396   6.311   5.261   0.114 -0.1106 -0.6990 -0.6144
18327TIP3    H276397   6.298   5.116   0.156 -0.8200 -0.3559  0.3915
18328TIP3   OH276398   1.806   5.557  16.584  0.2264 -0.3872  0.7169
18328TIP3    H176399   1.825   5.651  16.582  0.2818 -0.3844  1.2398
18328TIP3    H276400   1.715   5.552  16.612 -0.8219 -0.3774 -2.2639
18329TIP3   OH276401   0.332   5.893   2.138  0.1178  0.0134  0.2973
18329TIP3    H176402   0.379   5.905   2.220 -0.2039 -0.0849  0.4940
18329TIP3    H276403   0.395   5.850   2.080  0.0193 -0.8149  0.8007
18330TIP3   OH276404   5.599   1.802   2.664  0.1687  0.6317  0.3215
18330TIP3    H176405   5.562   1.726   2.708  0.3577  0.8385  0.8481
18330TIP3    H276406   5.686   1.812   2.702  0.7752  0.1706 -0.8775
18331TIP3   OH276407   2.656   2.574  15.034 -0.1984 -1.0422  0.4132
18331TIP3    H176408   2.583   2.542  14.980 -0.3228  0.5289 -0.3910
18331TIP3    H276409   2.729   2.583  14.973  0.2636 -1.1940  0.9336
18332TIP3   OH276410   3.638   0.111   3.771  0.2209  0.3451  0.2576
18332TIP3    H176411   3.621   0.025   3.810 -0.4311  0.2864 -0.1477
18332TIP3    H276412   3.668   0.092   3.682  0.7902  0.5170  0.4045
18333TIP3   OH276413   3.189   5.751   5.872  0.2228 -0.8857  0.3920
18333TIP3    H176414   3.211   5.822   5.932 -0.7284  0.4815 -0.7890
18333TIP3    H276415   3.111   5.710   5.909 -0.9802  0.6138 -0.3506
18334TIP3   OH276416   4.767   1.228   1.867  0.5729 -0.3719 -0.5816
18334TIP3    H176417   4.846   1.174   1.860  0.5603 -0.7734  1.6248
18334TIP3    H276418   4.695   1.165   1.872  0.5385 -0.2358  1.7705
18335TIP3   OH276419   0.683   0.637   5.995  0.3837  0.1791  0.2328
18335TIP3    H176420   0.763   0.596   6.029 -0.0391 -1.0368 -0.1813
18335TIP3    H276421   0.623   0.636   6.070 -0.0075 -1.0406 -0.0697
18336TIP3   OH276422   4.573   0.729   4.167 -0.2672  0.1482  0.4398
18336TIP3    H176423   4.479   0.725   4.178 -0.2430  0.3169  0.7106
18336TIP3    H276424   4.588   0.705   4.075 -0.7935  2.8268 -0.4265
18337TIP3   OH276425   1.091   4.081  15.397  0.0206  0.3761 -0.0132
18337TIP3    H176426   1.041   4.123  15.467  1.2068  0.3670  0.8615
18337TIP3    H276427   1.089   4.145  15.325  2.0255  2.1496  1.3906
18338TIP3   OH276428   2.041   2.862   3.547 -0.1011 -0.2743 -0.1552
18338TIP3    H176429   2.116   2.860   3.607  0.0344 -0.6983 -0.3286
18338TIP3    H276430   2.063   2.928   3.482 -0.3443  0.3423  0.3789
18339TIP3   OH276431   1.543   5.711  16.946 -0.9506  0.6709  0.0375
18339TIP3    H176432   1.603   5.759  16.888 -1.5661  1.1902 -0.1855
18339TIP3    H276433   1.547   5.620  16.916 -0.9995  0.8743 -0.6015
18340TIP3   OH276434   1.637   0.174   5.255  0.1239  0.0473 -0.5826
18340TIP3    H176435   1.631   0.249   5.195 -0.0958  0.9266  0.4990
18340TIP3    H276436   1.728   0.146   5.249 -0.0033 -0.1673 -1.6566
18341TIP3   OH276437   4.629   5.431  15.111  0.0442  0.2599 -0.5765
18341TIP3    H176438   4.568   5.357  15.112  0.9406 -0.5071  1.0348
18341TIP3    H276439   4.648   5.448  15.203 -0.7959  3.1147 -0.8360
18342TIP3   OH276440   5.616   6.538  13.229 -0.0613  0.0146 -0.0269
18342TIP3    H176441   5.565   6.485  13.292 -0.6562  1.2357  0.5593
18342TIP3    H276442   5.706   6.506  13.238 -0.2876 -0.4210  0.8192
18343TIP3   OH276443   0.930   1.182  10.996 -0.4205  0.0734 -0.6210
18343TIP3    H176444   0.894   1.106  10.951  2.4991 -1.2690 -0.9306
18343TIP3    H276445   0.906   1.170  11.088 -0.3618 -1.0168 -0.7382
18344TIP3   OH276446   4.288   6.713  12.284  0.0986 -0.3870 -0.1446
18344TIP3    H176447   4.309   6.724  12.376  0.2421 -1.5055 -0.0325
18344TIP3    H276448   4.289   6.802  12.248  0.2634  0.0314  0.8748
18345TIP3   OH276449   0.632   2.417  17.011 -0.5114  0.5222  0.1247
18345TIP3    H176450   0.673   2.437  17.095  0.8542  0.4808 -0.5063
18345TIP3    H276451   0.557   2.477  17.006 -0.6175  0.5175  1.3582
18346TIP3   OH276452   6.594   4.454   5.047 -0.3839 -0.2828 -0.6081
18346TIP3    H176453   6.557   4.536   5.014 -0.5294 -0.6779 -1.4552
18346TIP3    H276454   6.521   4.413   5.095 -0.8490 -0.7171 -1.6548
18347TIP3   OH276455   3.037   3.312  14.825 -0.4104  0.2224 -0.0219
18347TIP3    H176456   3.129   3.315  14.852 -0.9502 -0.6041  2.1183
18347TIP3    H276457   2.993   3.371  14.886 -1.2430  1.1963 -1.4988
18348TIP3   OH276458   4.010   5.356  14.449  0.1042  0.0538 -0.1489
18348TIP3    H176459   3.923   5.348  14.487  0.3307  0.5078  0.4916
18348TIP3    H276460   4.002   5.320  14.361 -0.8182  0.4448 -0.2307
18349TIP3   OH276461   0.510   0.690   2.230 -0.2253 -0.3904 -0.3000
18349TIP3    H176462   0.442   0.737   2.182 -0.4166  0.5917  0.8928
18349TIP3    H276463   0.465   0.651   2.304  0.6422  1.1721  1.1130
18350TIP3   OH276464   4.323   1.959  12.263 -0.1784  0.0789  0.2091
18350TIP3    H176465   4.390   1.943  12.329  1.4782  0.1609 -1.3607
18350TIP3    H276466   4.331   2.052  12.243  0.8699 -0.3533 -1.6095
18351TIP3   OH276467   5.601   0.504  14.370  0.4897 -0.3673 -0.6954
18351TIP3    H176468   5.537   0.452  14.419 -1.0662  1.6044 -0.4872
18351TIP3    H276469   5.559   0.590  14.361  2.4264  0.4917 -2.0602
18352TIP3   OH276470   5.586   3.771   4.840  0.8236  0.1685  0.2950
18352TIP3    H176471   5.567   3.770   4.747 -0.2312 -0.1435  0.4996
18352TIP3    H276472   5.558   3.857   4.870  1.5848  0.4381  0.2494
18353TIP3   OH276473   6.065   1.663   0.855  0.5851 -0.4137  0.2901
18353TIP3    H176474   6.081   1.582   0.904  0.2810 -0.2345  0.6924
18353TIP3    H276475   6.152   1.696   0.834  0.7096 -1.0956 -0.2960
18354TIP3   OH276476   5.263   0.525  14.946 -0.1108  0.4496  0.0334
18354TIP3    H176477   5.303   0.484  14.869 -0.8196 -0.9177  0.3547
18354TIP3    H276478   5.187   0.470  14.965 -0.0875  0.9010  1.5625
18355TIP3   OH276479   6.106   4.875  12.685 -0.7780 -0.2710 -0.0363
18355TIP3    H176480   6.172   4.939  12.657 -1.3745  0.7681  0.8751
18355TIP3    H276481   6.077   4.907  12.770  0.0780 -2.6499  1.2352
18356TIP3   OH276482   0.665   6.654  13.294  0.0013  0.1851 -0.3267
18356TIP3    H176483   0.731   6.718  13.321 -0.1541 -0.1034  0.7820
18356TIP3    H276484   0.655   6.596  13.369 -1.5780  0.2685 -0.4363
18357TIP3   OH276485   1.743   4.634  13.677  0.3601 -0.1343 -0.3349
18357TIP3    H176486   1.744   4.718  13.722  0.9943  0.4290 -1.3592
18357TIP3    H276487   1.666   4.638  13.620 -0.0401 -0.5619  0.1637
18358TIP3   OH276488   5.326   0.103  13.345 -0.3259  0.4571  0.5133
18358TIP3    H176489   5.317   0.107  13.249  0.9170  0.0875  0.3657
18358TIP3    H276490   5.325   0.009  13.365 -0.4356  0.5290  0.8513
18359TIP3   OH276491   1.830   6.641   3.785  0.2497 -0.0030  0.4537
18359TIP3    H176492   1.792   6.633   3.872 -0.8853  0.1980 -0.0067
18359TIP3    H276493   1.917   6.677   3.800  0.8247 -1.7728  1.6517
18360TIP3   OH276494   4.370   4.452   0.397 -0.1340 -0.1409 -0.5385
18360TIP3    H176495   4.328   4.462   0.312  1.1481  0.4027 -1.1363
18360TIP3    H276496   4.346   4.363   0.425  0.2095 -0.6923 -1.9224
18361TIP3   OH276497   3.331   6.568   2.579  0.4916 -0.0103 -0.0887
18361TIP3    H176498   3.373   6.629   2.519 -1.1240  2.0518  0.7260
18361TIP3    H276499   3.247   6.547   2.537 -0.4875  1.1597  1.1901
18362TIP3   OH276500   0.237   0.589   2.703  0.0348 -0.2572  0.9530
18362TIP3    H176501   0.317   0.634   2.727  0.8826 -1.4195  0.3826
18362TIP3    H276502   0.217   0.533   2.778  0.7482 -1.2818  0.3928
18363TIP3   OH276503   1.500   2.267   1.318 -0.1017  0.1979 -0.2841
18363TIP3    H176504   1.589   2.244   1.345 -0.5037 -0.3471  0.6285
18363TIP3    H276505   1.491   2.359   1.345  0.3945  0.4659 -0.9841
18364TIP3   OH276506   2.993   4.465  16.245  0.0323 -0.5053  0.1463
18364TIP3    H176507   2.979   4.558  16.230  1.0890 -0.6371 -2.0720
18364TIP3    H276508   2.926   4.421  16.192  1.3323 -0.9720 -1.2120
18365TIP3   OH276509   1.708   6.039  13.732  0.2391  0.2543 -0.4807
18365TIP3    H176510   1.742   6.092  13.660  0.0874  0.1037 -0.6660
18365TIP3    H276511   1.641   5.984  13.691  2.8141 -2.6922 -1.0802
18366TIP3   OH276512   4.965   0.837   2.426  0.5911  0.4638  0.1624
18366TIP3    H176513   4.934   0.754   2.462  0.9860  0.2758  0.0775
18366TIP3    H276514   5.058   0.839   2.449  0.4451  1.1781  0.7280
18367TIP3   OH276515   6.398   5.866  11.328  0.7249  0.2624 -0.1681
18367TIP3    H176516   6.316   5.840  11.371  0.6069  0.1280 -0.4678
18367TIP3    H276517   6.414   5.955  11.358  0.1380  0.5155 -0.5790
18368TIP3   OH276518   5.468   5.769  16.004  0.2224  0.4252  0.0223
18368TIP3    H176519   5.545   5.768  16.061  0.9756  0.1810 -0.9564
18368TIP3    H276520   5.458   5.861  15.979  2.4939  0.0844 -2.7385
18369TIP3   OH276521   0.099   1.608   6.036 -1.0803 -0.4179  0.5607
18369TIP3    H176522   0.122   1.519   6.062 -0.5088 -0.4040  0.1255
18369TIP3    H276523   0.068   1.649   6.116 -2.4174 -1.3335  0.5590
18370TIP3   OH276524   0.106   2.995   1.536  0.2635  0.6485 -0.4750
18370TIP3    H176525   0.019   2.961   1.515  0.7876 -1.5541  0.5770
18370TIP3    H276526   0.166   2.943   1.483  0.9454  2.9479 -2.1003
18371TIP3   OH276527   2.062   5.046  12.113  0.2611 -0.0796 -0.1823
18371TIP3    H176528   2.047   5.129  12.068 -0.0119 -0.8216 -1.4824
18371TIP3    H276529   1.986   4.993  12.091  1.0459 -1.1269 -0.4019
18372TIP3   OH276530   3.486   5.477   0.505  0.0532 -0.4492  0.3715
18372TIP3    H176531   3.468   5.415   0.434 -1.6379  1.0298 -0.5857
18372TIP3    H276532   3.569   5.518   0.480  0.1707 -0.9283 -0.0387
18373TIP3   OH276533   5.673   4.446   4.610  0.0975  0.3501 -0.1695
18373TIP3    H176534   5.667   4.497   4.529  0.6808 -1.1152 -1.1894
18373TIP3    H276535   5.590   4.397   4.613 -1.4502  2.8853  1.9588
18374TIP3   OH276536   6.325   1.244  13.894  0.4444  0.0061 -0.0194
18374TIP3    H176537   6.379   1.265  13.971  0.0465 -2.0335  0.8736
18374TIP3    H276538   6.242   1.289  13.911  0.8387  0.7406  0.0271
18375TIP3   OH276539   6.095   3.495  11.209  0.1928 -0.8720 -0.8478
18375TIP3    H176540   6.150   3.545  11.269 -1.3098 -0.0158 -0.1221
18375TIP3    H276541   6.039   3.441  11.266 -2.1534  0.8897 -1.3164
18376TIP3   OH276542   6.613   4.447  11.688  0.2429  0.0033 -0.2795
18376TIP3    H176543   6.649   4.399  11.762  0.1581 -0.0863 -0.2950
18376TIP3    H276544   6.613   4.383  11.616 -0.8739 -0.3127 -0.0197
18377TIP3   OH276545   3.364   5.588  10.971 -0.1936 -0.0459  0.1459
18377TIP3    H176546   3.334   5.669  10.930 -3.1033 -1.0041  0.2137
18377TIP3    H276547   3.356   5.521  10.903 -0.8554 -0.8527  0.9861
18378TIP3   OH276548   4.719   1.532  12.355 -0.0936  0.0602 -0.0652
18378TIP3    H176549   4.720   1.455  12.298 -0.3497  0.7769 -1.0580
18378TIP3    H276550   4.786   1.513  12.421  2.0588  0.2659 -2.0504
18379TIP3   OH276551   6.214   6.306   1.500  0.3686  0.1625  0.2121
18379TIP3    H176552   6.216   6.373   1.432 -0.1050  0.3171  0.3488
18379TIP3    H276553   6.123   6.303   1.529  0.5030 -0.1198  0.6222
18380TIP3   OH276554   5.252   0.420  12.716 -0.1786 -0.4463  0.3319
18380TIP3    H176555   5.245   0.336  12.670 -0.3521  0.7169 -1.8524
18380TIP3    H276556   5.164   0.457  12.714  0.1190  0.2808  0.3078
18381TIP3   OH276557   6.490   1.967   1.928 -0.1460  0.7404  0.2705
18381TIP3    H176558   6.446   1.899   1.878  0.6521 -0.2370  0.8637
18381TIP3    H276559   6.419   2.017   1.969 -0.8612  1.9834 -2.2745
18382TIP3   OH276560   0.645   3.772  16.885  0.3444 -0.5912  0.2615
18382TIP3    H176561   0.685   3.754  16.800  1.8323  0.4185  0.6979
18382TIP3    H276562   0.700   3.726  16.948 -0.3060 -0.7215  0.7462
18383TIP3   OH276563   6.035   6.687   2.837 -0.3244  0.5870 -0.3349
18383TIP3    H176564   6.041   6.756   2.771  0.5260 -2.4445 -3.7471
18383TIP3    H276565   5.941   6.665   2.840 -0.4378  1.0887 -0.1009
18384TIP3   OH276566   5.519   4.855  11.922  0.4358  0.8071 -0.0984
18384TIP3    H176567   5.516   4.893  11.834  3.3223  1.3564 -0.0612
18384TIP3    H276568   5.590   4.791  11.918  0.1751  0.3546  1.6709
18385TIP3   OH276569   3.551   4.171  11.912  0.3246  0.2923  0.3963
18385TIP3    H176570   3.478   4.141  11.857 -0.2856  1.5800  0.4504
18385TIP3    H276571   3.525   4.149  12.001 -1.1598  2.7952  0.6790
18386TIP3   OH276572   0.434   1.430   2.663 -0.1616 -0.0289  0.3289
18386TIP3    H176573   0.345   1.456   2.686  0.0218  0.0956  0.9259
18386TIP3    H276574   0.484   1.512   2.666  0.0620 -0.1682  0.4488
18387TIP3   OH276575   4.847   2.446   5.452 -0.4838 -0.2565  0.0782
18387TIP3    H176576   4.776   2.384   5.470 -2.0627  1.1133 -1.1076
18387TIP3    H276577   4.829   2.477   5.363  1.0392  0.8860  0.1403
18388TIP3   OH276578   2.072   5.639  16.815 -0.0198  0.7113 -0.2573
18388TIP3    H176579   2.035   5.563  16.860  0.8197  1.3819  1.6778
18388TIP3    H276580   2.108   5.604  16.734 -0.0821 -0.8801  0.3718
18389TIP3   OH276581   2.381   2.471   3.981  0.1759  0.1974 -0.2138
18389TIP3    H176582   2.416   2.385   4.002 -1.7884 -0.3393  1.0748
18389TIP3    H276583   2.289   2.455   3.957 -0.4814  1.9871  0.8787
18390TIP3   OH276584   2.060   6.575  14.314 -0.1190  0.2306  0.0060
18390TIP3    H176585   2.055   6.602  14.406 -0.6666  1.7794 -0.4364
18390TIP3    H276586   2.094   6.486  14.316 -0.2337  0.2015  1.7148
18391TIP3   OH276587   4.717   5.496   1.726  0.4010 -0.3830  0.5882
18391TIP3    H176588   4.801   5.493   1.770  1.3653 -0.2282 -1.1645
18391TIP3    H276589   4.730   5.446   1.645 -1.0967 -0.1007  0.1322
18392TIP3   OH276590   4.400   1.575   2.759 -0.4196  0.0766 -0.5849
18392TIP3    H176591   4.374   1.642   2.697 -1.9420 -0.0435 -0.1212
18392TIP3    H276592   4.402   1.619   2.844 -1.9618 -0.5476 -0.1965
18393TIP3   OH276593   0.525   5.921  13.136 -0.4133 -0.2055  0.0997
18393TIP3    H176594   0.605   5.950  13.182 -0.8547 -2.5578  2.6383
18393TIP3    H276595   0.557   5.885  13.053  1.0723 -0.1634  0.6153
18394TIP3   OH276596   2.143   6.556  15.936  0.0776  0.1395  0.5044
18394TIP3    H176597   2.060   6.514  15.959  0.2147 -0.0882  0.5877
18394TIP3    H276598   2.128   6.593  15.849 -0.2075  0.3630  0.6467
18395TIP3   OH276599   4.363   5.109  16.123  0.3471  0.1232 -0.1488
18395TIP3    H176600   4.382   5.062  16.204 -1.1006 -1.4427 -0.6536
18395TIP3    H276601   4.285   5.160  16.142  0.4524  0.3590 -0.3395
18396TIP3   OH276602   1.040   6.776   3.143 -0.2111  0.0919  0.1746
18396TIP3    H176603   1.132   6.800   3.136  0.0813 -1.2499 -1.0991
18396TIP3    H276604   1.038   6.706   3.208 -0.1361 -0.7257 -0.6885
18397TIP3   OH276605   2.640   3.734   5.304  0.1401 -0.4116 -0.1472
18397TIP3    H176606   2.693   3.814   5.297 -0.3010  0.0232  1.2442
18397TIP3    H276607   2.554   3.760   5.272  0.4130 -0.7894 -1.2380
18398TIP3   OH276608   4.728   1.310   0.742  0.2375 -0.2034  0.2144
18398TIP3    H176609   4.765   1.222   0.734  1.3313  0.4051 -2.2814
18398TIP3    H276610   4.790   1.356   0.799 -0.6169 -1.1101  1.9730
18399TIP3   OH276611   6.160   4.281   3.915  0.2758 -0.0425  0.2872
18399TIP3    H176612   6.091   4.234   3.962 -1.6874 -0.3794 -2.6723
18399TIP3    H276613   6.237   4.224   3.922 -0.4343 -0.9004  1.5399
18400TIP3   OH276614   2.178   2.243  13.138  0.6337  0.6874  0.2305
18400TIP3    H176615   2.135   2.205  13.062 -1.8924  1.8543  0.9772
18400TIP3    H276616   2.176   2.337  13.123  1.9757  0.8395  0.8298
18401TIP3   OH276617   4.922   1.157  16.325  0.4828  0.1420  0.5960
18401TIP3    H176618   4.873   1.085  16.366  1.4150 -1.3197 -0.7094
18401TIP3    H276619   5.009   1.153  16.365  1.3908 -1.2778 -1.3301
18402TIP3   OH276620   5.902   6.049   2.698  0.6217 -0.4805 -0.4198
18402TIP3    H176621   5.948   6.012   2.623  0.2339  0.3113 -1.0633
18402TIP3    H276622   5.842   6.114   2.660  0.9987  0.5189  0.6460
18403TIP3   OH276623   2.866   4.047  14.692  0.7790 -0.3702  0.1322
18403TIP3    H176624   2.841   4.055  14.784  2.3672 -2.6272  0.8801
18403TIP3    H276625   2.836   4.128  14.651 -1.0395  0.1936  2.3613
18404TIP3   OH276626   2.339   3.285   6.159 -0.4202 -0.1552 -0.3144
18404TIP3    H176627   2.365   3.238   6.080 -1.0117 -1.1371  0.0632
18404TIP3    H276628   2.326   3.375   6.129 -0.5990 -0.5010 -1.3318
18405TIP3   OH276629   0.930   5.866   3.698  0.2812 -0.4868  0.6745
18405TIP3    H176630   0.854   5.890   3.750  0.3762 -0.2871  0.7232
18405TIP3    H276631   0.907   5.891   3.608  1.1181  1.6217  0.9866
18406TIP3   OH276632   5.004   1.495   1.561  0.1910 -0.2399 -0.5916
18406TIP3    H176633   4.957   1.550   1.498 -0.5507 -0.7451 -0.4887
18406TIP3    H276634   4.955   1.412   1.562 -0.5987  0.1768  1.5892
18407TIP3   OH276635   1.699   4.367   2.077  0.2014  0.1984 -0.1248
18407TIP3    H176636   1.693   4.291   2.136 -2.8236 -1.1130 -1.9072
18407TIP3    H276637   1.651   4.436   2.123  0.7786  0.2824  0.3780
18408TIP3   OH276638   1.635   0.546   3.590  0.7210 -1.1322 -0.2735
18408TIP3    H176639   1.653   0.537   3.684 -1.4059  1.5541  0.5130
18408TIP3    H276640   1.688   0.621   3.563 -1.2094  0.2799 -0.3286
18409TIP3   OH276641   5.261   0.773  10.621  0.1727  0.1298  0.0221
18409TIP3    H176642   5.177   0.793  10.579  1.4146 -1.4311 -3.5699
18409TIP3    H276643   5.247   0.689  10.665 -0.7756  1.1524  1.8136
18410TIP3   OH276644   4.467   2.911  15.098 -0.0579  0.4654 -0.6230
18410TIP3    H176645   4.440   2.837  15.152 -0.1450  0.1762 -1.0592
18410TIP3    H276646   4.502   2.975  15.161  0.7275 -0.2526 -0.3144
18411TIP3   OH276647   4.741   5.158   5.541 -0.2786  0.5265 -0.5087
18411TIP3    H176648   4.745   5.248   5.571  0.5007  1.0628 -2.0877
18411TIP3    H276649   4.718   5.165   5.448  2.2845 -0.7382 -1.3291
18412TIP3   OH276650   4.867   6.041   3.081  0.4424 -0.1165  0.2350
18412TIP3    H176651   4.870   6.000   2.995 -0.7727 -0.4277  0.3252
18412TIP3    H276652   4.918   6.121   3.071 -0.7973  0.5536 -1.1789
18413TIP3   OH276653   0.628   3.252  12.712 -0.1593 -0.2427  0.2193
18413TIP3    H176654   0.712   3.298  12.724 -0.8360  0.8548  0.9465
18413TIP3    H276655   0.596   3.282  12.628 -1.1416  1.6036  1.1816
18414TIP3   OH276656   1.953   1.775  14.779 -0.1306  0.2885  0.4384
18414TIP3    H176657   1.987   1.845  14.722 -0.1237 -1.1423 -1.4006
18414TIP3    H276658   1.974   1.805  14.868  0.6392  2.2103 -0.3193
18415TIP3   OH276659   1.901   3.062  13.909 -0.1880  0.2045 -0.1141
18415TIP3    H176660   1.953   2.993  13.868  0.7461  0.4142  0.6635
18415TIP3    H276661   1.966   3.116  13.956 -1.1967 -0.0754  1.6858
18416TIP3   OH276662   2.659   1.184  11.563 -0.0685 -0.1401 -0.4252
18416TIP3    H176663   2.609   1.167  11.643  1.1939 -0.1698  0.3865
18416TIP3    H276664   2.723   1.251  11.589 -0.0911  0.3509 -1.6024
18417TIP3   OH276665   3.727   1.670  13.308 -0.6239  0.6080 -0.0320
18417TIP3    H176666   3.724   1.758  13.271 -0.5130  0.6554  0.0727
18417TIP3    H276667   3.719   1.683  13.402 -0.8251  0.4917 -0.0309
18418TIP3   OH276668   4.223   6.288  13.408 -0.0650  0.4289 -0.4868
18418TIP3    H176669   4.142   6.246  13.377 -0.3111  0.6690 -0.1781
18418TIP3    H276670   4.213   6.292  13.503 -0.0658  1.2094 -0.5125
18419TIP3   OH276671   0.498   2.226   3.994 -0.1162  0.5199 -0.0251
18419TIP3    H176672   0.408   2.199   3.973 -0.1340  0.6683 -0.1477
18419TIP3    H276673   0.549   2.146   3.988 -0.4690  0.1633  1.4129
18420TIP3   OH276674   2.253   2.520   0.230  0.2022  0.4381  0.1790
18420TIP3    H176675   2.334   2.489   0.189  0.6843  2.4098 -0.5032
18420TIP3    H276676   2.183   2.470   0.186  0.9081  0.4029 -0.9457
18421TIP3   OH276677   4.307   2.286  11.687  0.0836 -0.3111  0.3761
18421TIP3    H176678   4.329   2.320  11.601 -0.5006  0.7895  0.6386
18421TIP3    H276679   4.365   2.333  11.747  0.7277 -1.3189  0.5696
18422TIP3   OH276680   0.904   2.726  13.639 -0.0941 -0.3326  0.3399
18422TIP3    H176681   0.994   2.736  13.608 -0.4191  0.1991 -0.4784
18422TIP3    H276682   0.892   2.796  13.703 -0.1105 -0.0226 -0.0008
18423TIP3   OH276683   5.645   2.440   3.458  0.2562  0.4252 -0.5093
18423TIP3    H176684   5.651   2.401   3.545  0.9971  1.4844 -0.0533
18423TIP3    H276685   5.551   2.450   3.443  0.1261  1.2476  0.6634
18424TIP3   OH276686   0.566   0.786  16.707 -0.1931 -0.3964  0.3198
18424TIP3    H176687   0.584   0.694  16.729  1.8877 -0.6197 -1.9554
18424TIP3    H276688   0.567   0.789  16.612  0.9590  2.1938  0.3326
18425TIP3   OH276689   2.202   5.254  13.676  0.1156 -0.3078 -0.0019
18425TIP3    H176690   2.245   5.269  13.592  1.1037 -2.0409  0.1383
18425TIP3    H276691   2.195   5.341  13.715 -1.2895  0.6806 -2.2685
18426TIP3   OH276692   6.669   3.925  16.323 -0.2412 -0.0117 -0.2573
18426TIP3    H176693   6.655   3.873  16.402 -0.3860  0.3709 -0.0302
18426TIP3    H276694   6.761   3.909  16.300 -0.5395 -1.1229 -0.7443
18427TIP3   OH276695   5.034   6.247   3.109  0.2456  0.5697  0.6902
18427TIP3    H176696   5.109   6.299   3.079 -0.5221  0.9069 -0.7319
18427TIP3    H276697   5.063   6.209   3.192  2.9568 -1.3126 -0.9449
18428TIP3   OH276698   4.970   3.857   0.760  0.2420 -0.2020 -0.1315
18428TIP3    H176699   4.882   3.890   0.779  0.7681  1.2068 -0.0431
18428TIP3    H276700   4.956   3.787   0.697 -0.8931  0.5122 -0.7046
18429TIP3   OH276701   0.003   1.964  12.693  0.2890 -0.0176  0.5764
18429TIP3    H176702  -0.041   1.883  12.719  0.2962 -0.0114  0.6081
18429TIP3    H276703   0.048   1.942  12.612  1.8773 -0.5851  1.5594
18430TIP3   OH276704   4.544   6.021   2.197  0.2040 -0.3377 -0.8816
18430TIP3    H176705   4.473   6.057   2.143 -0.3932  0.6769  0.5130
18430TIP3    H276706   4.511   5.936   2.225  0.4288 -0.7764 -1.9326
18431TIP3   OH276707   0.250   5.935   4.080  0.1236 -0.0246  0.2568
18431TIP3    H176708   0.169   5.903   4.121 -1.6189  2.6651 -0.8223
18431TIP3    H276709   0.295   5.982   4.149  1.0227 -1.7873  0.9462
18432TIP3   OH276710   1.440   0.375   2.587  0.0237  0.0066  0.4267
18432TIP3    H176711   1.416   0.385   2.679 -0.0144 -3.9164  0.9958
18432TIP3    H276712   1.357   0.362   2.542  0.2347 -1.7651  0.4917
18433TIP3   OH276713   3.121   5.150  12.130 -0.3650  0.1157 -0.7030
18433TIP3    H176714   3.209   5.146  12.091 -0.4790  1.9551 -1.2429
18433TIP3    H276715   3.067   5.191  12.062 -1.6019 -0.7676 -0.2803
18434TIP3   OH276716   4.401   1.457  12.947  0.1177  0.0302  0.1164
18434TIP3    H176717   4.311   1.426  12.943  0.1891 -0.1606 -0.0012
18434TIP3    H276718   4.441   1.428  12.865  0.4486 -0.4000  0.4251
18435TIP3   OH276719   1.276   6.196   2.877  0.1189  0.0094  0.3843
18435TIP3    H176720   1.303   6.280   2.838  1.0521 -0.3998  0.1138
18435TIP3    H276721   1.199   6.170   2.826  0.5933  0.0828 -0.3937
18436TIP3   OH276722   4.008   5.217   3.254 -0.0698  0.0569  0.0892
18436TIP3    H176723   3.934   5.249   3.203 -0.2530  0.0076  0.3257
18436TIP3    H276724   4.023   5.128   3.222 -0.5501 -0.1818  0.5229
18437TIP3   OH276725   4.007   5.531   5.311  0.5757 -0.5104  0.8304
18437TIP3    H176726   3.980   5.541   5.220 -0.9746  1.3579  1.4287
18437TIP3    H276727   3.967   5.448   5.339 -0.8173 -0.0113  0.4057
18438TIP3   OH276728   6.712   5.285  12.331 -0.1177  0.1512  0.1499
18438TIP3    H176729   6.688   5.301  12.240  0.3731  0.0707  0.0025
18438TIP3    H276730   6.806   5.264  12.328 -0.1526 -0.0927  0.6456
18439TIP3   OH276731   3.717   1.764   1.722 -0.0108  0.0673 -0.5921
18439TIP3    H176732   3.809   1.742   1.706 -0.4397 -1.5944 -0.9309
18439TIP3    H276733   3.689   1.810   1.643  0.5289  0.6723 -0.4463
18440TIP3   OH276734   1.791   5.466   5.225 -0.5363  0.3722 -1.0123
18440TIP3    H176735   1.706   5.445   5.264 -0.3809 -1.7352 -1.6692
18440TIP3    H276736   1.783   5.441   5.133  0.5558  0.8943 -1.2748
18441TIP3   OH276737   4.800   6.809  12.207  0.2578  0.4720  0.4064
18441TIP3    H176738   4.772   6.857  12.129 -1.1825 -0.1664  0.5015
18441TIP3    H276739   4.739   6.836  12.275 -1.0520 -1.9375  0.2919
18442TIP3   OH276740   2.110   5.521   4.256  0.1669 -0.1747 -0.0954
18442TIP3    H176741   2.085   5.610   4.234  1.2785 -0.0675 -0.9905
18442TIP3    H276742   2.049   5.466   4.208  0.6433  0.0958 -1.0253
18443TIP3   OH276743   3.888   5.363   0.499 -0.6119  0.2252  0.0891
18443TIP3    H176744   3.815   5.414   0.533 -0.1670  1.0557 -0.1475
18443TIP3    H276745   3.943   5.345   0.576 -0.2197  1.0567  0.0148
18444TIP3   OH276746   1.632   0.740   5.762 -0.0316 -0.2587 -0.2241
18444TIP3    H176747   1.681   0.666   5.726  0.0077 -0.2305 -0.2296
18444TIP3    H276748   1.590   0.706   5.841  1.0901  0.0640  0.5392
18445TIP3   OH276749   1.366   1.889  12.885  0.1240  0.6452  0.1120
18445TIP3    H176750   1.408   1.843  12.812  2.1170  0.2634  1.4335
18445TIP3    H276751   1.288   1.836  12.905  0.2354  0.0641 -0.9163
18446TIP3   OH276752   5.500   4.207  16.171  0.2569  0.0458  0.2500
18446TIP3    H176753   5.531   4.217  16.261  0.5112  0.0458  0.1638
18446TIP3    H276754   5.405   4.216  16.177  0.2364 -0.3507  0.5726
18447TIP3   OH276755   2.558   5.847   4.403 -0.1997 -0.0863  0.4790
18447TIP3    H176756   2.480   5.899   4.423 -0.2778 -0.3814  0.9499
18447TIP3    H276757   2.620   5.869   4.472  0.0158 -0.1051  0.2944
18448TIP3   OH276758   5.448   5.308  11.853 -0.1657  0.5980 -0.5260
18448TIP3    H176759   5.381   5.362  11.811 -0.2910  0.5247 -0.4202
18448TIP3    H276760   5.419   5.218  11.840 -0.7726  0.6040  0.6452
18449TIP3   OH276761   0.086   0.648   1.403 -0.7473 -0.3095  0.6343
18449TIP3    H176762   0.163   0.688   1.443 -0.9170 -0.6163  1.2724
18449TIP3    H276763   0.013   0.703   1.430 -1.0780 -1.3977  2.0849
18450TIP3   OH276764   2.723   1.783  11.312 -0.0574 -0.5262  0.5159
18450TIP3    H176765   2.743   1.872  11.341  2.3159 -0.6204 -0.5447
18450TIP3    H276766   2.770   1.727  11.373 -0.4016 -0.9936  0.3522
18451TIP3   OH276767   4.907   6.122  16.971 -0.1196 -0.2602 -0.1485
18451TIP3    H176768   4.913   6.171  17.053 -0.7730 -1.7697  0.8428
18451TIP3    H276769   4.984   6.149  16.921  1.4518 -0.8363  1.8444
18452TIP3   OH276770   1.225   1.701   5.491 -0.4612 -0.3461  0.2381
18452TIP3    H176771   1.132   1.709   5.472 -0.2044  2.8920 -0.2764
18452TIP3    H276772   1.251   1.618   5.451 -2.8461 -0.6744 -0.8094
18453TIP3   OH276773   5.871   6.501  15.704  0.5368 -0.0037 -0.1777
18453TIP3    H176774   5.948   6.484  15.650  0.5968 -0.8372  0.1513
18453TIP3    H276775   5.810   6.546  15.645 -0.1381 -2.5197 -1.5505
18454TIP3   OH276776   1.215   4.980   1.419  0.4192  0.0542 -0.1370
18454TIP3    H176777   1.220   5.070   1.451  3.1006 -1.1513  3.5103
18454TIP3    H276778   1.296   4.967   1.371  1.1438 -0.9201  1.2589
18455TIP3   OH276779   3.374   1.895   4.651 -0.0646  0.1134 -0.2389
18455TIP3    H176780   3.461   1.913   4.615  0.4635 -1.1529  0.3602
18455TIP3    H276781   3.318   1.882   4.575  0.6328 -0.6738 -0.6312
18456TIP3   OH276782   0.563   2.727   0.810  0.1745 -0.1300  0.1698
18456TIP3    H176783   0.481   2.756   0.769 -0.6146 -1.5964  0.6197
18456TIP3    H276784   0.632   2.771   0.762 -0.8929  1.2690 -0.1245
18457TIP3   OH276785   1.739   3.469   2.793 -0.2744  0.5371 -0.0066
18457TIP3    H176786   1.701   3.550   2.825 -1.0066  0.4535 -0.6315
18457TIP3    H276787   1.690   3.400   2.839 -0.6287  0.4357 -0.5240
18458TIP3   OH276788   2.378   1.493   2.339 -0.2212  0.3118 -0.5972
18458TIP3    H176789   2.424   1.544   2.407 -0.9543 -1.1844  1.0999
18458TIP3    H276790   2.303   1.548   2.316  0.8800  1.5436 -1.3921
18459TIP3   OH276791   6.220   2.715   4.080  0.0461  0.1176 -0.1842
18459TIP3    H176792   6.283   2.761   4.134 -2.2147  2.9144  0.2889
18459TIP3    H276793   6.204   2.773   4.006 -1.6784 -0.6524 -0.4795
18460TIP3   OH276794   2.632   5.908   5.465 -0.1067  0.2999 -0.1855
18460TIP3    H176795   2.604   5.819   5.488  0.5001  0.3098  0.6331
18460TIP3    H276796   2.616   5.959   5.544 -0.0150  0.8255 -0.5001
18461TIP3   OH276797   3.246   3.564   1.736 -0.0110 -0.1322 -0.3003
18461TIP3    H176798   3.264   3.631   1.802  1.1188 -1.9179  1.3381
18461TIP3    H276799   3.150   3.563   1.729 -0.0941  0.9371  0.4072
18462TIP3   OH276800   0.498   6.144   0.992 -0.0751 -0.0593 -0.0686
18462TIP3    H176801   0.444   6.190   0.928  2.3082  1.7761 -0.8908
18462TIP3    H276802   0.585   6.142   0.953  1.0676 -0.5092  2.3383
18463TIP3   OH276803   4.714   2.899   3.471  0.0370  0.6639 -0.2466
18463TIP3    H176804   4.626   2.917   3.505  0.4768 -0.1933  1.4382
18463TIP3    H276805   4.727   2.964   3.402 -1.9134  0.8082 -0.5351
18464TIP3   OH276806   6.800   6.013  11.582 -0.1362  0.0008  0.2904
18464TIP3    H176807   6.715   5.967  11.583 -0.3494  0.3452 -0.7286
18464TIP3    H276808   6.779   6.101  11.552  0.6990 -0.1715 -0.8474
18465TIP3   OH276809   4.886   1.540  11.584 -0.7606  0.3971  0.1053
18465TIP3    H176810   4.859   1.459  11.627  1.0635 -0.3101  0.0050
18465TIP3    H276811   4.980   1.529  11.567 -0.8392  1.7611 -1.6001
18466TIP3   OH276812   1.130   5.513  15.347  0.6957  1.3003 -0.0403
18466TIP3    H176813   1.127   5.482  15.437  0.2361  0.4956 -0.3123
18466TIP3    H276814   1.218   5.491  15.317  0.4841  0.5137 -0.1245
18467TIP3   OH276815   3.080   4.029   2.605 -0.0457 -0.5241  0.0421
18467TIP3    H176816   3.060   4.116   2.571 -0.4424 -0.7435 -0.2836
18467TIP3    H276817   3.169   4.037   2.639  0.0051 -0.0536 -0.1950
18468TIP3   OH276818   6.043   2.109  14.022  0.6724 -0.6383  0.0138
18468TIP3    H176819   6.087   2.191  14.000  0.0297 -0.1536  0.5146
18468TIP3    H276820   6.005   2.078  13.940 -0.8908  0.6578  0.2152
18469TIP3   OH276821   0.578   5.015  13.921 -0.6920  0.2204  0.6450
18469TIP3    H176822   0.567   5.109  13.909  0.2489  0.3817  1.0371
18469TIP3    H276823   0.506   4.990  13.980 -2.2915  0.2810 -1.1621
18470TIP3   OH276824   3.087   4.331   5.204 -0.0232 -0.9038 -0.1407
18470TIP3    H176825   3.163   4.359   5.153 -0.8059 -0.0370 -0.8607
18470TIP3    H276826   3.107   4.358   5.294  0.4473 -0.5358 -0.3510
18471TIP3   OH276827   4.881   2.261   2.131  0.1906  0.1460  0.4939
18471TIP3    H176828   4.920   2.311   2.203 -0.9214 -0.6461  1.6977
18471TIP3    H276829   4.822   2.199   2.175 -0.1467 -0.6862 -1.0861
18472TIP3   OH276830   5.420   1.620  13.612  0.0994 -0.6134  0.2397
18472TIP3    H176831   5.351   1.555  13.625 -1.6288  0.7189 -1.6818
18472TIP3    H276832   5.443   1.611  13.519  0.7406  0.6331  0.2599
18473TIP3   OH276833   6.353   6.135   4.091 -0.1942 -0.4406 -0.4623
18473TIP3    H176834   6.408   6.157   4.016  0.1685  2.5925  0.5657
18473TIP3    H276835   6.288   6.204   4.094 -1.4462 -1.6149  0.8705
18474TIP3   OH276836   0.630   3.600   0.838 -0.3087 -0.0796  0.2466
18474TIP3    H176837   0.690   3.534   0.873 -0.1910 -0.0868  0.0313
18474TIP3    H276838   0.638   3.674   0.899 -1.2974 -0.6895  1.1409
18475TIP3   OH276839   6.641   3.854   5.505  0.2920 -0.0525 -0.3393
18475TIP3    H176840   6.659   3.937   5.549  0.9049 -0.3212 -0.0540
18475TIP3    H276841   6.697   3.791   5.551  1.9786 -0.1244 -2.3161
18476TIP3   OH276842   6.227   0.198   1.714 -0.4688  0.1478 -0.7368
18476TIP3    H176843   6.240   0.103   1.712 -1.0485  0.0599 -2.5043
18476TIP3    H276844   6.314   0.234   1.734 -0.3162 -0.7374  0.2888
18477TIP3   OH276845   6.083   0.391   4.355 -0.2343  0.3532  0.0018
18477TIP3    H176846   5.995   0.356   4.370 -0.3161  0.5625  0.0171
18477TIP3    H276847   6.078   0.482   4.384  0.0732  0.2784  0.2998
18478TIP3   OH276848   4.840   6.639   0.454 -0.3457 -0.3891 -0.1636
18478TIP3    H176849   4.758   6.669   0.492  0.8142  1.6213  0.9411
18478TIP3    H276850   4.838   6.669   0.364  0.1854  1.9774  0.5466
18479TIP3   OH276851   2.718   3.289   1.784  0.3768 -0.1613 -0.1516
18479TIP3    H176852   2.743   3.197   1.786 -2.4401 -1.0064  1.1718
18479TIP3    H276853   2.646   3.293   1.721 -0.9673  0.6690  1.3636
18480TIP3   OH276854   3.749   6.741  16.019 -0.3446  0.5176 -0.5269
18480TIP3    H176855   3.713   6.814  16.069  1.0197  0.5739  0.4250
18480TIP3    H276856   3.789   6.684  16.084 -0.3628 -0.5033 -1.3719
18481TIP3   OH276857   3.815   3.925   4.072 -0.1312 -0.1853 -0.1101
18481TIP3    H176858   3.896   3.972   4.058  0.2482 -1.3282 -2.0095
18481TIP3    H276859   3.747   3.984   4.040  0.3595 -0.9311 -2.7276
18482TIP3   OH276860   2.700   6.169   4.475 -0.0230  0.2049 -0.1689
18482TIP3    H176861   2.718   6.076   4.490  0.5293  0.5464  1.4321
18482TIP3    H276862   2.658   6.199   4.556 -0.4889  1.2898 -0.7868
18483TIP3   OH276863   3.506   4.661  13.756  0.4239  0.3551 -0.4923
18483TIP3    H176864   3.420   4.702  13.753  0.8800  1.3971  0.2078
18483TIP3    H276865   3.541   4.673  13.667  1.2206  3.0469  0.0955
18484TIP3   OH276866   5.815   6.509   4.735  0.2480  0.0084  0.1980
18484TIP3    H176867   5.848   6.573   4.672  3.0007 -0.2055  1.2853
18484TIP3    H276868   5.758   6.452   4.684  1.4283  0.5520 -1.8471
18485TIP3   OH276869   2.127   4.537  16.282  0.4546 -0.1442  0.1131
18485TIP3    H176870   2.075   4.555  16.203  1.2538 -2.1438 -0.9550
18485TIP3    H276871   2.080   4.581  16.352 -0.6648  1.1463 -1.3668
18486TIP3   OH276872   1.064   0.564   1.115  0.1770  0.3505  0.5963
18486TIP3    H176873   1.102   0.508   1.183 -2.2778 -3.1311 -0.5898
18486TIP3    H276874   0.980   0.592   1.151  0.9192  2.5277  0.7421
18487TIP3   OH276875   5.006   1.646  16.335 -0.5362 -0.3121 -0.1111
18487TIP3    H176876   5.042   1.579  16.277 -0.0471 -0.0004 -0.1701
18487TIP3    H276877   5.008   1.606  16.422  0.3302 -0.1505 -0.0508
18488TIP3   OH276878   0.619   4.058   0.387  0.2047  0.4847 -0.4078
18488TIP3    H176879   0.588   4.037   0.298 -2.6976  1.0759  0.3541
18488TIP3    H276880   0.562   4.130   0.415  1.1040  0.3525  1.9104
18489TIP3   OH276881   4.824   0.507  10.523 -0.6718  0.1015 -0.6411
18489TIP3    H176882   4.820   0.603  10.515 -2.4103  0.2378  1.0848
18489TIP3    H276883   4.917   0.486  10.509 -0.5061  1.8245 -2.6317
18490TIP3   OH276884   4.697   5.758  15.875  0.2308 -0.0679  0.1873
18490TIP3    H176885   4.690   5.741  15.969  0.5512 -0.1909  0.1917
18490TIP3    H276886   4.791   5.770  15.860  0.0919  0.8327  0.0309
18491TIP3   OH276887   6.239   4.794  10.842  0.3111  0.1251 -0.1907
18491TIP3    H176888   6.207   4.716  10.797  0.1494 -1.4948  2.5142
18491TIP3    H276889   6.172   4.860  10.827 -1.8139 -1.6280  1.0421
18492TIP3   OH276890   2.344   3.044   6.003  0.2704 -0.3797 -0.0857
18492TIP3    H176891   2.363   2.994   6.082 -0.6325 -0.6173 -0.0086
18492TIP3    H276892   2.361   2.982   5.931  0.4502 -0.3740 -0.0475
18493TIP3   OH276893   1.006   5.315  14.451 -0.3020  0.0339  0.1526
18493TIP3    H176894   0.924   5.266  14.441 -0.2603  0.1134 -0.5875
18493TIP3    H276895   1.021   5.356  14.366  1.3487 -1.2931 -0.2708
18494TIP3   OH276896   4.042   2.207  14.989 -0.0141  0.2215  0.4903
18494TIP3    H176897   3.950   2.232  14.980  0.2217  0.6844 -0.9008
18494TIP3    H276898   4.040   2.112  15.001 -0.7500  0.4386  2.5018
18495TIP3   OH276899   1.511   2.357   5.117  0.2987 -0.1844 -0.3340
18495TIP3    H176900   1.532   2.356   5.210 -0.0851 -3.2446 -0.1859
18495TIP3    H276901   1.593   2.335   5.073  0.1106 -0.3501 -0.6048
18496TIP3   OH276902   5.631   0.463  12.504 -0.2074  0.3086 -0.7266
18496TIP3    H176903   5.621   0.536  12.443 -0.8357  2.0393  1.3067
18496TIP3    H276904   5.590   0.494  12.585  0.2837 -1.9965  0.4909
18497TIP3   OH276905   0.383   0.909  12.088 -0.4076 -0.1455 -0.0652
18497TIP3    H176906   0.394   0.979  12.152  0.6294  0.3525 -0.7631
18497TIP3    H276907   0.472   0.879  12.069 -0.7791 -1.0560 -0.4401
18498TIP3   OH276908   3.254   0.896   4.613 -0.1062  0.0879 -0.2466
18498TIP3    H176909   3.176   0.878   4.665  0.8659 -0.4263  1.1230
18498TIP3    H276910   3.326   0.862   4.667  1.1233  1.2581 -1.0967
18499TIP3   OH276911   2.598   2.552   0.909  0.0740 -0.0989 -0.3479
18499TIP3    H176912   2.511   2.530   0.875  0.6288 -0.5540 -1.5625
18499TIP3    H276913   2.650   2.569   0.830  1.0050  0.4799  0.3719
18500TIP3   OH276914   4.667   2.606   1.152  0.5008  0.2886  0.3075
18500TIP3    H176915   4.641   2.604   1.244 -0.9098  1.2614 -0.0480
18500TIP3    H276916   4.756   2.642   1.153  1.4798 -1.8997  1.4365
18501TIP3   OH276917   6.382   0.053  10.754  0.5325 -0.3041  0.5231
18501TIP3    H176918   6.298   0.028  10.716  1.1783 -0.1357 -1.1196
18501TIP3    H276919   6.372   0.037  10.848 -1.3521 -0.1860  0.3834
18502TIP3   OH276920   0.276   4.712  16.102  0.2493 -0.0892  0.1646
18502TIP3    H176921   0.239   4.793  16.066 -1.7433 -0.9988  0.0018
18502TIP3    H276922   0.225   4.696  16.182  0.5762 -1.1945  0.1679
18503TIP3   OH276923   1.437   2.071  13.072  0.4667 -0.0918  0.7440
18503TIP3    H176924   1.374   2.046  13.139  0.5730 -0.9333  0.5455
18503TIP3    H276925   1.411   2.020  12.995 -1.0053  2.4464 -0.5757
18504TIP3   OH276926   5.304   6.706   3.709 -0.1514  0.6807 -0.4135
18504TIP3    H176927   5.293   6.611   3.712  0.2400  0.6490  0.3959
18504TIP3    H276928   5.219   6.741   3.738 -0.8084  0.6278 -2.1658
18505TIP3   OH276929   4.821   3.292   2.572  0.2587  0.1215 -0.4162
18505TIP3    H176930   4.744   3.236   2.564 -0.4030  0.5168  2.2888
18505TIP3    H276931   4.891   3.234   2.602  0.6696  0.0386 -1.4814
18506TIP3   OH276932   4.385   5.279   4.043 -0.1518  0.0656 -0.0303
18506TIP3    H176933   4.449   5.235   3.986  0.9810 -0.9529  1.9152
18506TIP3    H276934   4.338   5.208   4.086 -0.0453  0.7646  1.2882
18507TIP3   OH276935   0.272   3.150   3.103  0.0668 -0.0502  0.3603
18507TIP3    H176936   0.212   3.210   3.059  1.2241  1.6526  0.9787
18507TIP3    H276937   0.335   3.126   3.035 -0.1848 -0.2770  0.2050
18508TIP3   OH276938   1.713   2.884  13.533  0.4666  0.0414 -0.6936
18508TIP3    H176939   1.727   2.971  13.570  0.6958 -0.0243 -0.6241
18508TIP3    H276940   1.762   2.825  13.591  0.8793 -0.0573 -1.1346
18509TIP3   OH276941   5.015   0.543  12.643 -0.4861  0.0654  0.0919
18509TIP3    H176942   4.972   0.626  12.620 -0.1419  0.4523  0.8164
18509TIP3    H276943   5.044   0.507  12.559 -0.9675  0.4958 -0.2654
18510TIP3   OH276944   5.447   0.059   3.530 -0.1403  0.7178  0.2421
18510TIP3    H176945   5.388   0.013   3.590 -1.0167  2.5154  0.8121
18510TIP3    H276946   5.427   0.022   3.444  0.8126 -1.5647  0.9223
18511TIP3   OH276947   6.427   4.335  16.903  0.0060 -0.0992 -0.5900
18511TIP3    H176948   6.428   4.423  16.866 -1.6892  0.2257  0.0422
18511TIP3    H276949   6.470   4.344  16.987 -0.2287  0.1567 -0.4940
18512TIP3   OH276950   6.324   3.199  16.993  0.3244  0.1640  0.3437
18512TIP3    H176951   6.275   3.146  16.930 -1.9730  2.0878  0.4029
18512TIP3    H276952   6.416   3.188  16.966 -0.1369 -2.7003 -0.4295
18513TIP3   OH276953   5.629   4.434   3.481 -0.2859 -0.1094  0.3724
18513TIP3    H176954   5.654   4.348   3.516  0.2258 -0.1669 -0.1260
18513TIP3    H276955   5.699   4.457   3.420 -2.5582 -1.3938 -3.0251
18514TIP3   OH276956   2.505   5.562   0.303 -0.2167  0.7780  0.2801
18514TIP3    H176957   2.564   5.488   0.293  0.5658  1.5117 -0.8766
18514TIP3    H276958   2.439   5.550   0.234 -0.9103  0.4270  0.9975
18515TIP3   OH276959   6.221   2.459  15.607  0.6656  0.2787 -0.2298
18515TIP3    H176960   6.280   2.400  15.560  0.0339 -1.2488  0.8129
18515TIP3    H276961   6.172   2.503  15.538 -1.4404 -3.1449 -1.1554
18516TIP3   OH276962   1.633   6.140  14.249  0.3878 -0.3289  0.1172
18516TIP3    H176963   1.597   6.228  14.261 -0.0671 -0.6547  1.2679
18516TIP3    H276964   1.641   6.105  14.338  2.0198 -0.8855 -0.1988
18517TIP3   OH276965   1.274   6.801   6.019  0.1761  0.3118  0.4569
18517TIP3    H176966   1.221   6.725   5.993 -0.7008  1.1299 -0.2326
18517TIP3    H276967   1.211   6.860   6.062  0.4582  1.4276 -0.6162
18518TIP3   OH276968   6.706   2.773  16.695  0.0445  0.6038 -0.6433
18518TIP3    H176969   6.798   2.769  16.721 -0.0543 -1.3205 -0.4261
18518TIP3    H276970   6.702   2.725  16.612 -0.7897  0.4548 -0.5293
18519TIP3   OH276971   5.054   3.666   3.054  0.4323 -0.2946  0.1255
18519TIP3    H176972   5.012   3.752   3.053  1.2191  0.1007  0.1378
18519TIP3    H276973   5.082   3.654   3.144  0.6713 -0.3859  0.0412
18520TIP3   OH276974   4.274   5.787   2.793 -0.4133  0.3397 -0.4521
18520TIP3    H176975   4.324   5.752   2.867  0.8213  0.1136 -1.3697
18520TIP3    H276976   4.299   5.880   2.789 -1.8951  0.8308  0.5183
18521TIP3   OH276977   6.345   0.650  13.731 -0.1281  0.2361  0.0712
18521TIP3    H176978   6.278   0.718  13.723 -0.3050 -0.0446 -0.9580
18521TIP3    H276979   6.422   0.687  13.687  0.5654  0.7320  1.6149
18522TIP3   OH276980   4.524   4.327   3.546 -0.0945 -0.2298  0.3169
18522TIP3    H176981   4.443   4.289   3.513 -0.1455 -0.6676  0.9265
18522TIP3    H276982   4.590   4.302   3.482  0.2324 -2.9446  1.5590
18523TIP3   OH276983   4.146   5.536   2.172  0.1809  0.3355 -0.2260
18523TIP3    H176984   4.175   5.580   2.252  1.0126 -1.9453  0.8459
18523TIP3    H276985   4.140   5.605   2.106  0.7458  2.0886  1.4789
18524TIP3   OH276986   4.039   0.723   0.164 -0.1015  0.0551 -0.5390
18524TIP3    H176987   4.084   0.805   0.144  0.5055 -0.0211  0.4131
18524TIP3    H276988   3.946   0.745   0.159  0.0487  0.9246  0.0924
18525TIP3   OH276989   3.498   2.769   3.243 -0.6503 -0.6900 -0.3779
18525TIP3    H176990   3.546   2.775   3.161  2.1501  1.7582  1.2415
18525TIP3    H276991   3.406   2.766   3.216 -0.0327  2.3867 -3.6483
18526TIP3   OH276992   0.810   0.341  11.601  0.0570 -0.4071  0.2749
18526TIP3    H176993   0.787   0.421  11.554  0.7407 -1.5438 -2.1366
18526TIP3    H276994   0.889   0.365  11.650  0.1862  0.4335 -0.3165
18527TIP3   OH276995   3.943   3.556  15.280  0.0417  0.0250 -0.0725
18527TIP3    H176996   3.925   3.463  15.290  0.7371  0.0654  2.0179
18527TIP3    H276997   4.025   3.559  15.230 -0.0087 -0.4616 -0.1924
18528TIP3   OH276998   4.486   5.081  16.411 -0.1436  0.2751 -0.4426
18528TIP3    H176999   4.502   5.170  16.442 -1.8028  0.4614  0.0201
18528TIP3    H277000   4.466   5.031  16.490 -0.8895 -0.0945 -0.8516
18529TIP3   OH277001   3.263   5.978  10.502  0.2671 -0.1635 -0.3847
18529TIP3    H177002   3.346   5.983  10.550 -0.8066 -1.0469  1.7121
18529TIP3    H277003   3.253   6.064  10.462 -0.0529  1.7588  3.3452
18530TIP3   OH277004   3.442   6.280   5.522  0.1727 -0.1878 -0.2850
18530TIP3    H177005   3.435   6.241   5.609  1.9363  0.7715  0.3416
18530TIP3    H277006   3.367   6.245   5.473  0.0134 -1.9409  1.1327
18531TIP3   OH277007   1.631   2.313   5.383 -0.5455 -0.1560 -0.3307
18531TIP3    H177008   1.618   2.218   5.373 -0.1943 -0.0827 -1.7280
18531TIP3    H277009   1.712   2.321   5.433 -2.8013 -0.5744  3.8278
18532TIP3   OH277010   4.806   2.526  13.652 -0.4291 -0.5265  0.8152
18532TIP3    H177011   4.798   2.617  13.679  1.2026  0.3563 -1.3885
18532TIP3    H277012   4.716   2.497  13.640 -0.9664  1.4973 -0.4961
18533TIP3   OH277013   3.370   2.351  14.884  0.0360 -0.3352 -0.5185
18533TIP3    H177014   3.356   2.405  14.806  0.5670 -1.4621 -1.4423
18533TIP3    H277015   3.437   2.288  14.857 -0.5301 -1.4214  0.5123
18534TIP3   OH277016   1.648   5.017  16.238  0.1973 -0.0212 -0.5801
18534TIP3    H177017   1.682   4.933  16.209 -0.5455 -0.1110 -1.2209
18534TIP3    H277018   1.626   5.004  16.330  0.7554 -0.3095 -0.4866
18535TIP3   OH277019   4.624   3.554  15.731 -0.0063  0.1847  0.2823
18535TIP3    H177020   4.682   3.506  15.790  0.5038  0.2412 -0.1617
18535TIP3    H277021   4.683   3.612  15.683 -0.7173  2.0034  1.5072
18536TIP3   OH277022   1.649   2.090  13.424 -0.1132  0.6398  0.4887
18536TIP3    H177023   1.716   2.119  13.485  0.6042  0.8776 -0.3840
18536TIP3    H277024   1.566   2.112  13.467  0.3824  1.8763  0.8764
18537TIP3   OH277025   2.516   1.160  11.820 -0.0540 -0.4635  0.6477
18537TIP3    H177026   2.511   1.117  11.905 -3.2252 -0.1705  0.7288
18537TIP3    H277027   2.427   1.155  11.785  0.9723  0.0613 -2.3605
18538TIP3   OH277028   6.016   0.410  16.397 -0.0836  0.3492  0.5484
18538TIP3    H177029   5.972   0.459  16.328  2.1912  0.9176 -0.6044
18538TIP3    H277030   5.979   0.322  16.392 -2.1686  1.1566  0.7366
18539TIP3   OH277031   5.013   4.486   6.273 -0.1679 -0.0003 -0.1437
18539TIP3    H177032   4.921   4.505   6.285  0.1002  1.2120  0.0972
18539TIP3    H277033   5.042   4.452   6.357 -0.6442 -1.5418 -0.5698
18540TIP3   OH277034   2.187   6.690   2.618  0.0446 -0.0864 -0.3541
18540TIP3    H177035   2.185   6.784   2.601 -0.4595 -0.2922 -1.5785
18540TIP3    H277036   2.161   6.681   2.709  1.2234  1.0234  0.1347
18541TIP3   OH277037   6.275   4.292   3.644 -0.3044 -0.5467  0.0194
18541TIP3    H177038   6.313   4.379   3.629 -1.8202  0.0460 -0.6062
18541TIP3    H277039   6.247   4.293   3.735  2.2403 -1.4628  0.8982
18542TIP3   OH277040   4.772   6.504   4.831  0.5780  0.0442  0.6511
18542TIP3    H177041   4.790   6.555   4.910 -0.3981  1.0175  0.2624
18542TIP3    H277042   4.765   6.569   4.761 -0.0159 -0.6764  0.0234
18543TIP3   OH277043   0.951   1.906   1.415 -0.1120 -0.1551 -0.5497
18543TIP3    H177044   0.974   1.915   1.322  1.6573 -0.6346 -0.1763
18543TIP3    H277045   0.917   1.817   1.423  1.7383 -0.8825 -0.3700
18544TIP3   OH277046   0.790   4.252   3.583 -0.1009 -0.7469 -0.8783
18544TIP3    H177047   0.764   4.332   3.536  0.0826  0.1953  0.5610
18544TIP3    H277048   0.804   4.187   3.514 -1.3015  0.1551 -2.0242
18545TIP3   OH277049   3.248   5.488  14.774  0.0831 -0.0698 -0.2211
18545TIP3    H177050   3.252   5.560  14.835 -1.6925  2.1610 -2.4992
18545TIP3    H277051   3.203   5.418  14.822 -1.9908  1.8620  0.8530
18546TIP3   OH277052   1.860   6.535  15.816  0.2766  0.4276  0.1083
18546TIP3    H177053   1.909   6.569  15.741  0.9697  2.4151  1.3623
18546TIP3    H277054   1.778   6.584  15.816  0.2355  0.3643  0.5732
18547TIP3   OH277055   5.932   6.030   3.413  0.1597 -0.5430  0.1982
18547TIP3    H177056   5.932   5.941   3.378  1.3980 -0.6099  0.3346
18547TIP3    H277057   5.954   6.085   3.338 -1.2680 -0.2687 -0.0404
18548TIP3   OH277058   1.750   6.502  10.958 -0.3119 -0.3177 -0.5591
18548TIP3    H177059   1.844   6.488  10.959  0.2485  2.7546 -1.0097
18548TIP3    H277060   1.717   6.445  10.889  1.1570 -1.5292 -0.3076
18549TIP3   OH277061   0.424   3.809   0.228 -0.3359 -0.0208  0.1875
18549TIP3    H177062   0.370   3.887   0.245 -0.5508 -0.0404 -0.3884
18549TIP3    H277063   0.489   3.838   0.164 -0.6278 -0.4049 -0.2848
18550TIP3   OH277064   3.728   4.713  14.221 -0.3764 -0.4005 -0.1745
18550TIP3    H177065   3.710   4.805  14.201 -0.8921 -0.1729  1.1861
18550TIP3    H277066   3.699   4.665  14.144  2.3093  0.7206 -2.0636
18551TIP3   OH277067   3.888   6.289  15.529 -0.0252  0.1062 -0.2236
18551TIP3    H177068   3.795   6.268  15.521 -0.1720  0.8621 -0.6682
18551TIP3    H277069   3.896   6.376  15.489  0.5865  0.7680  1.2564
18552TIP3   OH277070   0.857   5.485  11.174 -0.7860  0.2805  0.1924
18552TIP3    H177071   0.767   5.454  11.165 -0.7735 -0.1479  1.3671
18552TIP3    H277072   0.888   5.445  11.255  0.9965 -0.8414 -0.9974
18553TIP3   OH277073   5.382   5.497  11.195  0.2774 -0.0736  0.2244
18553TIP3    H177074   5.349   5.550  11.268  0.5387  1.5823 -0.8368
18553TIP3    H277075   5.430   5.558  11.140  0.0480 -1.2816 -1.3854
18554TIP3   OH277076   2.465   4.186   4.637  0.4482  0.7010 -0.2888
18554TIP3    H177077   2.420   4.145   4.563  1.7434 -0.9445 -0.2267
18554TIP3    H277078   2.443   4.131   4.712  3.4089 -0.9703 -0.4603
18555TIP3   OH277079   4.816   0.623   4.922 -0.1741  0.2047 -0.1295
18555TIP3    H177080   4.857   0.686   4.981  3.1206 -1.0070 -0.8465
18555TIP3    H277081   4.835   0.538   4.961 -1.0227 -0.4973 -1.1617
18556TIP3   OH277082   3.089   0.294   0.350  0.0344  0.1347  1.1870
18556TIP3    H177083   3.081   0.250   0.435  1.6310 -0.4621  1.0671
18556TIP3    H277084   3.180   0.280   0.325 -0.4699  0.0492 -0.7681
18557TIP3   OH277085   2.432   4.848   1.531  0.3199  0.3879  0.3775
18557TIP3    H177086   2.478   4.797   1.598 -0.6624 -0.0718  0.7196
18557TIP3    H277087   2.471   4.935   1.537  1.6203 -0.1571  0.1784
18558TIP3   OH277088   2.591   6.382  11.886  0.5739  0.1300  0.1154
18558TIP3    H177089   2.531   6.314  11.917  0.2102  0.4075  0.0265
18558TIP3    H277090   2.534   6.449  11.848  1.0232 -0.3417 -1.4407
18559TIP3   OH277091   4.543   3.104  16.633 -0.1216  0.4784 -0.0085
18559TIP3    H177092   4.548   3.029  16.574 -0.3635  0.6864 -0.2951
18559TIP3    H277093   4.480   3.163  16.592 -0.2412  0.6544  0.4216
18560TIP3   OH277094   5.986   0.788   2.246  0.3022 -1.3346  0.3033
18560TIP3    H177095   5.892   0.770   2.250 -0.0102  0.3447  1.5957
18560TIP3    H277096   5.999   0.830   2.161  0.1080 -2.6150 -0.3763
18561TIP3   OH277097   4.995   0.151   4.063  0.0429 -0.4953  1.1703
18561TIP3    H177098   5.002   0.246   4.061 -0.7820 -0.4270  0.8971
18561TIP3    H277099   4.901   0.134   4.075  0.2412 -1.2719  1.7723
18562TIP3   OH277100   4.196   5.210   0.445  0.2754  0.1092 -0.8369
18562TIP3    H177101   4.187   5.231   0.538 -0.1174 -2.0191 -0.3401
18562TIP3    H277102   4.153   5.283   0.399 -0.7101  0.5254  0.6906
18563TIP3   OH277103   5.496   3.155  14.153  0.3711  0.0034 -0.2310
18563TIP3    H177104   5.452   3.128  14.072  1.8518 -0.0371 -1.0596
18563TIP3    H277105   5.481   3.249  14.159 -0.9242 -0.2040  0.2252
18564TIP3   OH277106   3.054   5.034   0.494 -0.0224 -0.0595  0.3734
18564TIP3    H177107   3.038   5.021   0.588  0.0065  2.4512  0.7871
18564TIP3    H277108   3.077   5.126   0.486  2.0051 -0.6737 -1.8675
18565TIP3   OH277109   3.950   4.866   4.129  0.0234  0.3062 -0.0156
18565TIP3    H177110   3.891   4.916   4.072 -2.4635 -1.2341  1.0496
18565TIP3    H277111   3.923   4.889   4.218 -1.2147 -2.8123  0.5134
18566TIP3   OH277112   4.793   4.394   1.551  0.7291 -0.7629 -1.1327
18566TIP3    H177113   4.860   4.462   1.548  0.2559  0.0776  2.5216
18566TIP3    H277114   4.842   4.312   1.553  1.6942 -0.1997  0.3771
18567TIP3   OH277115   2.436   4.744  15.760  0.2955  0.0774 -0.0887
18567TIP3    H177116   2.473   4.666  15.802 -0.2062  0.5168  1.2514
18567TIP3    H277117   2.497   4.814  15.782  0.4408  0.1814 -0.7970
18568TIP3   OH277118   2.777   3.697   0.897  0.0352 -0.5362 -0.3505
18568TIP3    H177119   2.806   3.706   0.807 -0.4330  0.5470 -0.4097
18568TIP3    H277120   2.682   3.709   0.893  0.1283  0.5953  0.4119
18569TIP3   OH277121   5.119   2.253   0.048  0.4525  0.1249 -0.3365
18569TIP3    H177122   5.098   2.161   0.036  0.0683  0.1156  0.3439
18569TIP3    H277123   5.192   2.269  -0.012 -0.6383 -0.1585 -1.7896
18570TIP3   OH277124   0.503   3.790   2.417  0.5379  0.2906  1.2319
18570TIP3    H177125   0.576   3.729   2.408  2.4763  2.8064 -1.7510
18570TIP3    H277126   0.440   3.762   2.350  0.6977  0.6247  0.9418
18571TIP3   OH277127   1.493   4.686  16.217  0.0780 -0.2220  0.1717
18571TIP3    H177128   1.515   4.668  16.309  0.5795 -1.2721 -0.1382
18571TIP3    H277129   1.397   4.679  16.214  0.1065 -0.7974  0.4875
18572TIP3   OH277130   2.935   3.578   4.344  0.1356 -0.5316  0.3096
18572TIP3    H177131   2.920   3.661   4.391  0.2175  0.0338 -0.6387
18572TIP3    H277132   3.030   3.564   4.351  0.1408 -0.4761  0.3525
18573TIP3   OH277133   0.539   4.094   3.460  0.3941  0.4700  0.2994
18573TIP3    H177134   0.612   4.072   3.402  0.3522  0.3509  0.2904
18573TIP3    H277135   0.576   4.158   3.521  0.7614 -0.2385  0.8480
18574TIP3   OH277136   2.454   2.463   0.038  0.0230  0.3325  0.0752
18574TIP3    H177137   2.545   2.494   0.037  0.2670 -0.3371 -1.4861
18574TIP3    H277138   2.461   2.369   0.020 -0.8805 -0.1219  1.9157
18575TIP3   OH277139   4.735   3.113  12.132 -0.7789  0.2075  0.4332
18575TIP3    H177140   4.700   3.202  12.134  0.2262  0.6534 -0.8760
18575TIP3    H277141   4.692   3.072  12.058 -0.1222  0.0935  0.1099
18576TIP3   OH277142   2.555   1.895  13.292 -0.0483  0.3412  0.4406
18576TIP3    H177143   2.477   1.948  13.271  0.2236  1.0459  1.1788
18576TIP3    H277144   2.628   1.952  13.270  0.2504  0.2086  1.0867
18577TIP3   OH277145   4.840   2.757  14.696  0.1832 -0.6399  0.1792
18577TIP3    H177146   4.906   2.758  14.765 -1.0513 -2.0028  1.4526
18577TIP3    H277147   4.801   2.845  14.697  1.9827  0.2191 -0.6745
18578TIP3   OH277148   5.239   2.686   1.450 -0.0191 -0.4160 -0.4560
18578TIP3    H177149   5.152   2.647   1.453  0.4047 -1.4172 -0.3366
18578TIP3    H277150   5.242   2.735   1.368 -0.9950  0.4000 -0.0187
18579TIP3   OH277151   1.986   5.525  15.180  0.2979 -0.2551  0.3768
18579TIP3    H177152   1.937   5.554  15.103 -0.9808 -1.3344  0.7302
18579TIP3    H277153   1.981   5.598  15.241  0.7194  0.3414 -0.2852
18580TIP3   OH277154   5.381   0.496  14.663  0.5249  0.8469 -1.0919
18580TIP3    H177155   5.463   0.519  14.705  0.2948 -0.9212  0.4557
18580TIP3    H277156   5.403   0.423  14.606 -0.2462 -1.1754  1.0224
18581TIP3   OH277157   0.218   3.928  16.819  0.5852  0.5613 -0.1866
18581TIP3    H177158   0.287   3.983  16.782  1.1037 -0.1142 -0.2597
18581TIP3    H277159   0.265   3.854  16.859 -0.1156 -0.1213 -0.5930
18582TIP3   OH277160   2.018   6.285   4.265 -0.4330 -0.2074  0.3075
18582TIP3    H177161   2.016   6.219   4.335 -0.4090  0.2100  0.7089
18582TIP3    H277162   2.065   6.242   4.193  1.5158  0.0899  1.3246
18583TIP3   OH277163   5.084   6.666   0.811 -0.2039 -0.0126 -0.0975
18583TIP3    H177164   5.090   6.757   0.781  2.2559  0.0957  0.5215
18583TIP3    H277165   4.990   6.651   0.824 -0.6982  2.2869 -0.6333
18584TIP3   OH277166   0.255   6.194  13.375 -0.0927 -0.0845  0.1208
18584TIP3    H177167   0.186   6.253  13.407  0.3464  0.6219 -0.2295
18584TIP3    H277168   0.209   6.111  13.360 -0.6332  0.0322  1.0164
18585TIP3   OH277169   6.149   0.649   5.322 -0.0900 -0.3015  0.3086
18585TIP3    H177170   6.069   0.616   5.280  1.2176 -0.4362 -2.2944
18585TIP3    H277171   6.189   0.571   5.361 -0.9784 -0.3091  1.2384
18586TIP3   OH277172   0.788   2.089   1.509  0.3434  0.2044  0.4794
18586TIP3    H177173   0.855   2.034   1.468  0.4620 -0.5194  1.6245
18586TIP3    H277174   0.716   2.088   1.446  1.2627  0.7505 -0.6356
18587TIP3   OH277175   6.657   0.525  16.777  0.2341  0.0007  0.5219
18587TIP3    H177176   6.599   0.593  16.810  0.3839  0.7661 -0.7239
18587TIP3    H277177   6.696   0.486  16.855  0.0039  1.2232  1.2629
18588TIP3   OH277178   6.293   4.709  14.336  0.0395  0.5103  0.3008
18588TIP3    H177179   6.227   4.653  14.296 -0.7459  0.2694  1.8746
18588TIP3    H277180   6.244   4.781  14.375  0.7074  0.4595  1.2820
18589TIP3   OH277181   0.162   6.398  11.787  0.1561 -0.3320 -0.0484
18589TIP3    H177182   0.191   6.459  11.855  1.1893  0.0533 -0.8062
18589TIP3    H277183   0.242   6.376  11.739 -0.0790 -2.7528  0.5501
18590TIP3   OH277184   0.785   1.129  15.509 -0.3876  0.8660 -0.2041
18590TIP3    H177185   0.798   1.178  15.590 -1.0749  0.8719 -0.0887
18590TIP3    H277186   0.690   1.126  15.498 -0.3194  0.3768 -0.7108
18591TIP3   OH277187   2.602   0.438  13.215 -0.3740  0.3617 -0.5265
18591TIP3    H177188   2.693   0.459  13.193  0.0045 -1.3677 -0.7453
18591TIP3    H277189   2.558   0.431  13.131 -0.4239  0.0182 -0.4731
18592TIP3   OH277190   0.430   2.592  16.886  0.2128 -0.0363  0.0153
18592TIP3    H177191   0.421   2.684  16.913  1.1456  0.4655 -1.2574
18592TIP3    H277192   0.443   2.597  16.791  0.7452 -1.4621 -0.0013
18593TIP3   OH277193   0.835   6.677  12.820  0.3877 -0.0248  0.7121
18593TIP3    H177194   0.931   6.672  12.825  0.5816 -0.6439 -2.2887
18593TIP3    H277195   0.810   6.606  12.762 -1.9822 -0.0753  1.6812
18594TIP3   OH277196   1.570   1.825  13.379 -0.4048  0.2681  0.2877
18594TIP3    H177197   1.487   1.820  13.426 -0.7890 -0.4105 -0.4412
18594TIP3    H277198   1.586   1.919  13.368 -1.9293  0.4039 -1.0440
18595TIP3   OH277199   2.109   2.480  10.330  0.0913  0.4817  0.2757
18595TIP3    H177200   2.024   2.479  10.286  0.1820  0.1420  0.0978
18595TIP3    H277201   2.119   2.569  10.363  1.2214  1.5903 -2.7270
18596TIP3   OH277202   3.853   6.507   0.620  0.6929  0.0066  0.1816
18596TIP3    H177203   3.781   6.455   0.655  1.0063 -0.6413 -0.1420
18596TIP3    H277204   3.814   6.558   0.549  0.1711  0.9406  1.0963
18597TIP3   OH277205   6.526   0.746  15.791  0.0220  0.2076  0.2136
18597TIP3    H177206   6.436   0.763  15.818 -0.0217  0.6476 -0.2013
18597TIP3    H277207   6.539   0.799  15.713  1.2497  1.6889  1.3565
18598TIP3   OH277208   6.812   2.361   5.996 -0.6325 -0.2497 -0.7985
18598TIP3    H177209   6.850   2.337   5.912  1.4519  0.8659 -0.2409
18598TIP3    H277210   6.829   2.455   6.005  0.8739 -0.6470  1.6189
18599TIP3   OH277211   1.217   1.494   1.580 -0.2018 -0.4297 -0.1028
18599TIP3    H177212   1.260   1.419   1.622 -0.2314 -1.1154 -1.2451
18599TIP3    H277213   1.270   1.570   1.605  0.1956 -0.9136  0.5589
18600TIP3   OH277214   4.954   1.043   1.998  0.9378  0.3260  0.3855
18600TIP3    H177215   4.900   0.996   2.062 -0.1758  0.2094 -0.6087
18600TIP3    H277216   5.040   1.049   2.039  0.7931 -1.5294  1.0580
18601TIP3   OH277217   4.067   0.367  15.508  0.2043 -0.2261 -0.4224
18601TIP3    H177218   3.977   0.356  15.540 -0.2966  2.8641 -0.4467
18601TIP3    H277219   4.113   0.410  15.580  1.5482 -1.2245 -0.6403
18602TIP3   OH277220   4.906   2.848   5.796  0.2108 -0.1165  0.2003
18602TIP3    H177221   4.972   2.797   5.843  1.2100 -0.3231 -1.3330
18602TIP3    H277222   4.957   2.917   5.751 -0.8372  0.8206  0.3971
18603TIP3   OH277223   2.961   2.866   3.744  0.9071  0.7882 -0.1141
18603TIP3    H177224   2.934   2.774   3.755  0.2118  1.0387  0.3854
18603TIP3    H277225   3.002   2.889   3.828  1.7196  0.7298 -0.4907
18604TIP3   OH277226   6.705   0.660   5.922  0.2019  0.1878 -0.7869
18604TIP3    H177227   6.679   0.593   5.859 -2.5365  0.1928  0.2028
18604TIP3    H277228   6.635   0.660   5.987  1.0206  2.7690  0.2268
18605TIP3   OH277229   5.847   5.653  11.277  0.3204  0.1522  0.5536
18605TIP3    H177230   5.848   5.577  11.219  0.2039  0.6807 -0.1592
18605TIP3    H277231   5.928   5.646  11.327 -0.4898 -1.3455  1.7258
18606TIP3   OH277232   3.310   3.017  16.102 -0.3532  0.0231  0.1132
18606TIP3    H177233   3.323   3.019  16.197  1.2958 -0.1445 -0.0849
18606TIP3    H277234   3.343   3.101  16.071 -0.9686  0.1173 -0.3179
18607TIP3   OH277235   5.180   3.864  12.596  0.3164  0.3247 -0.1998
18607TIP3    H177236   5.274   3.872  12.614 -0.0857 -0.0816  2.6395
18607TIP3    H277237   5.160   3.772  12.616 -0.7932  0.5703 -0.1493
18608TIP3   OH277238   1.970   0.573  13.347 -0.2116 -0.0464  0.2664
18608TIP3    H177239   1.910   0.631  13.301 -2.5948 -1.0464  1.9207
18608TIP3    H277240   1.934   0.486  13.334 -0.2065 -0.4978  2.8067
18609TIP3   OH277241   0.017   5.990  14.893 -0.0831  0.0223 -0.5024
18609TIP3    H177242   0.025   6.052  14.820  0.2075  1.2214  0.5183
18609TIP3    H277243   0.081   6.020  14.957 -1.0782 -0.3520  0.7127
18610TIP3   OH277244   4.843   4.555  12.725 -0.3101  0.0584 -0.1019
18610TIP3    H177245   4.818   4.555  12.818 -0.3132 -0.4649 -0.1002
18610TIP3    H277246   4.924   4.606  12.722 -1.3740  1.8268 -0.1135
18611TIP3   OH277247   0.641   1.346   5.695  0.4436 -0.0676  0.6517
18611TIP3    H177248   0.724   1.325   5.651  0.5463  0.6222  0.5079
18611TIP3    H277249   0.664   1.350   5.788  0.1643 -1.8401  0.8437
18612TIP3   OH277250   0.038   3.188   0.559 -0.2100  0.2775  0.5185
18612TIP3    H177251   0.105   3.256   0.556  0.5524 -0.4934 -0.4278
18612TIP3    H277252  -0.002   3.190   0.472  0.9222 -1.5372 -0.1079
18613TIP3   OH277253   0.812   0.092  12.598  0.1505  0.2414 -0.4420
18613TIP3    H177254   0.738   0.116  12.542  0.2052  1.6078  0.0490
18613TIP3    H277255   0.796   0.138  12.680  0.4112 -1.2230  0.4776
18614TIP3   OH277256   3.530   3.685  16.233 -0.0866  0.2153  0.4457
18614TIP3    H177257   3.460   3.735  16.276 -0.8717  0.4702 -1.0410
18614TIP3    H277258   3.590   3.751  16.199 -0.3577  0.1000 -0.2735
18615TIP3   OH277259   4.419   0.864  12.768  0.3743  0.3853 -0.3606
18615TIP3    H177260   4.350   0.920  12.732  0.6964  0.6010 -0.6515
18615TIP3    H277261   4.457   0.822  12.691 -0.4315 -0.9048 -0.0790
18616TIP3   OH277262   6.523   5.926  16.680 -0.7362 -0.2963  0.5485
18616TIP3    H177263   6.521   5.863  16.608 -1.6423 -1.7301  1.7880
18616TIP3    H277264   6.602   5.902  16.730 -1.1268 -0.5138  1.0671
18617TIP3   OH277265   4.100   1.888  15.878  0.3036 -0.2372 -0.1493
18617TIP3    H177266   4.113   1.969  15.927 -0.5985  0.5249 -1.1102
18617TIP3    H277267   4.099   1.820  15.944 -1.2053  0.7806  0.9399
18618TIP3   OH277268   3.886   0.569   4.061  0.2681  0.2005  0.6563
18618TIP3    H177269   3.944   0.612   4.124  0.2066 -0.3652  1.1057
18618TIP3    H277270   3.912   0.477   4.062  0.9280  0.3365 -0.8981
18619TIP3   OH277271   6.516   4.371  13.015 -0.3584 -0.3667 -0.0241
18619TIP3    H177272   6.582   4.382  13.083  1.1992 -1.1238 -1.3402
18619TIP3    H277273   6.566   4.365  12.933 -2.1699  1.1322 -1.3590
18620TIP3   OH277274   4.167   2.492  16.571  0.2714  0.4343 -0.0611
18620TIP3    H177275   4.129   2.518  16.488 -0.0749 -0.9117 -0.3525
18620TIP3    H277276   4.094   2.457  16.622  0.2894  2.1265  1.2247
18621TIP3   OH277277   4.042   5.772   3.352 -0.3604 -0.4362 -0.2310
18621TIP3    H177278   4.030   5.678   3.362  3.5723 -1.0794 -0.1371
18621TIP3    H277279   4.079   5.782   3.264  0.1213  0.8948  0.1027
18622TIP3   OH277280   0.210   1.988   3.348 -0.3432  0.0652  0.2669
18622TIP3    H177281   0.284   2.048   3.336 -0.1327 -0.3856 -0.7037
18622TIP3    H277282   0.162   2.025   3.423  0.9303  0.2826  1.0107
18623TIP3   OH277283   3.979   1.836   5.078 -0.7157 -0.2672 -0.4930
18623TIP3    H177284   3.972   1.813   4.985  0.0532  2.0610 -1.1871
18623TIP3    H277285   4.066   1.875   5.087  0.4109 -2.9598  1.8721
18624TIP3   OH277286   5.590   3.426  16.987 -0.1228 -0.1780  0.1771
18624TIP3    H177287   5.617   3.450  16.898  0.7994 -1.2974  0.1338
18624TIP3    H277288   5.514   3.369  16.974 -0.1362 -0.1482  0.1232
18625TIP3   OH277289   2.324   2.916  10.116  0.5737  0.0694  0.2723
18625TIP3    H177290   2.275   2.918  10.034  0.0024 -1.6426  0.5225
18625TIP3    H277291   2.306   3.000  10.157 -1.1109 -0.0021 -0.2516
18626TIP3   OH277292   6.403   4.721  12.424  0.0540  0.1638 -0.6144
18626TIP3    H177293   6.494   4.744  12.406  0.5121 -0.8344  0.3325
18626TIP3    H277294   6.399   4.709  12.519 -0.7148 -1.2048 -0.7918
18627TIP3   OH277295   2.214   3.102  10.277 -0.5369  0.5164 -0.3771
18627TIP3    H177296   2.178   3.183  10.314 -0.7499  0.5430 -0.6372
18627TIP3    H277297   2.151   3.034  10.302  0.0823  0.2760  0.5837
18628TIP3   OH277298   3.160   5.207   5.015  0.2088  0.4254  0.5262
18628TIP3    H177299   3.195   5.209   5.104  0.9246 -0.3012  0.2723
18628TIP3    H277300   3.208   5.276   4.969 -0.7547  1.3688  0.9024
18629TIP3   OH277301   3.406   3.270   2.107  0.2300  1.1879  0.0241
18629TIP3    H177302   3.362   3.317   2.178 -0.6596  1.4826 -0.7019
18629TIP3    H277303   3.342   3.205   2.077  1.1085  0.1042  0.4071
18630TIP3   OH277304   4.293   5.614   4.560 -0.3827  0.2108  0.1042
18630TIP3    H177305   4.200   5.624   4.540 -0.0960 -0.9814 -2.0910
18630TIP3    H277306   4.324   5.549   4.498  2.1635  1.3064  0.1075
18631TIP3   OH277307   6.396   2.672  12.227 -0.2867  0.2817  0.1806
18631TIP3    H177308   6.359   2.606  12.168 -1.7310  1.2018  0.0195
18631TIP3    H277309   6.361   2.755  12.196 -0.6603  0.8556  2.0000
18632TIP3   OH277310   5.210   2.635   5.130 -0.3124  0.2593 -0.3314
18632TIP3    H177311   5.300   2.647   5.159 -0.7264  0.9704  0.7272
18632TIP3    H277312   5.177   2.561   5.181 -0.3723  0.0827 -0.6217
18633TIP3   OH277313   1.010   0.766   0.443  0.2982  0.7043  0.5186
18633TIP3    H177314   1.055   0.711   0.378 -0.6649  0.5559 -0.0391
18633TIP3    H277315   1.079   0.822   0.479  1.1773 -0.4110  0.6216
18634TIP3   OH277316   5.599   0.779   3.034  0.2946 -0.1044 -0.0459
18634TIP3    H177317   5.572   0.871   3.037  0.7611  0.0364 -0.0731
18634TIP3    H277318   5.623   0.763   2.943  1.4708  0.1249  0.2025
18635TIP3   OH277319   0.359   3.679  16.871  0.1073  0.1482 -0.5411
18635TIP3    H177320   0.449   3.692  16.901  1.6051 -0.3810 -4.2610
18635TIP3    H277321   0.326   3.609  16.927  2.0313  0.2419  0.8415
18636TIP3   OH277322   4.813   0.109  15.458  0.0259  0.2157  0.0145
18636TIP3    H177323   4.823   0.183  15.399 -0.5315  0.6432  0.4425
18636TIP3    H277324   4.874   0.126  15.530 -0.7413  0.7298  0.5628
18637TIP3   OH277325   1.071   5.197  13.157  0.2577  0.1802 -0.0592
18637TIP3    H177326   1.075   5.131  13.088 -0.3055 -0.6497  0.6672
18637TIP3    H277327   0.998   5.254  13.133 -1.4639 -1.4674  0.9644
18638TIP3   OH277328   2.496   5.515  13.513 -0.7170  0.1049 -0.5076
18638TIP3    H177329   2.509   5.547  13.423 -1.2120 -1.1130 -1.0338
18638TIP3    H277330   2.404   5.490  13.516 -0.7112  0.1782  0.3594
18639TIP3   OH277331   2.465   1.988   4.026 -0.4360  0.5397 -0.2284
18639TIP3    H177332   2.513   1.978   3.944 -2.1308  1.1585 -1.3551
18639TIP3    H277333   2.385   1.937   4.013  0.2770 -1.2802  1.9657
18640TIP3   OH277334   5.416   1.410  15.790  0.3182 -0.0532 -0.3931
18640TIP3    H177335   5.403   1.316  15.804  0.0541  0.0796  0.2534
18640TIP3    H277336   5.480   1.437  15.856 -2.3970  0.9642  1.9894
18641TIP3   OH277337   0.952   1.667  11.263  0.4536 -0.3127  0.2177
18641TIP3    H177338   0.995   1.631  11.341  1.6779 -0.7131 -0.6066
18641TIP3    H277339   0.904   1.594  11.225  1.5695 -0.6899 -0.5297
18642TIP3   OH277340   5.280   1.703  11.109 -0.4015  0.1431  0.1184
18642TIP3    H177341   5.363   1.743  11.082 -1.1983  0.6129 -1.7846
18642TIP3    H277342   5.295   1.609  11.099  0.6828  0.0305  2.2514
18643TIP3   OH277343   4.856   0.358   5.025  0.7297 -0.3499  0.6347
18643TIP3    H177344   4.861   0.280   4.970  0.6749 -0.7483  1.1819
18643TIP3    H277345   4.801   0.332   5.099 -2.3470  1.2606 -0.8842
18644TIP3   OH277346   5.313   2.311  16.611 -0.4712 -0.0558  0.4038
18644TIP3    H177347   5.261   2.242  16.571  0.4701 -0.2732 -0.4937
18644TIP3    H277348   5.367   2.345  16.540 -0.5586  1.2828  0.9377
18645TIP3   OH277349   2.481   0.439   6.134 -0.0490  0.5312 -0.1782
18645TIP3    H177350   2.424   0.515   6.147  0.0497  0.2271  2.6974
18645TIP3    H277351   2.423   0.364   6.139  0.4201  0.2612  1.8431
18646TIP3   OH277352   3.585   1.626  12.293  0.3391  0.0292  0.0403
18646TIP3    H177353   3.661   1.589  12.339 -0.0041  0.5032  1.0088
18646TIP3    H277354   3.510   1.597  12.344 -0.2731 -1.5665 -1.6587
18647TIP3   OH277355   6.084   4.197   1.278  0.5648 -0.4414  0.4015
18647TIP3    H177356   6.142   4.273   1.277 -1.1012  0.8846  0.5366
18647TIP3    H277357   6.132   4.130   1.229  2.0864  0.6808  0.2931
18648TIP3   OH277358   1.254   3.380  16.621 -0.3681 -0.2348 -0.2188
18648TIP3    H177359   1.165   3.354  16.646 -0.6390  1.8695  1.2275
18648TIP3    H277360   1.309   3.349  16.692 -0.3932  1.0498  0.3912
18649TIP3   OH277361   1.170   0.798   1.032  0.2013 -0.0097  0.7033
18649TIP3    H177362   1.149   0.706   1.048  1.7901 -0.2980  1.2553
18649TIP3    H277363   1.142   0.843   1.112  0.2666 -0.1577  0.8097
18650TIP3   OH277364   1.493   6.650   0.021 -0.0873 -0.2175  0.3804
18650TIP3    H177365   1.465   6.621  -0.066 -0.9497  1.0330  0.2151
18650TIP3    H277366   1.456   6.738   0.030  0.8791  0.0882  1.5949
18651TIP3   OH277367   2.942   4.300  12.500  0.2183  0.2034 -0.2074
18651TIP3    H177368   2.917   4.209  12.517 -2.3096  0.6492 -1.1772
18651TIP3    H277369   2.982   4.298  12.413  0.9098 -0.0729  0.1077
18652TIP3   OH277370   0.314   1.820  11.690 -0.5228 -0.0848  0.6080
18652TIP3    H177371   0.260   1.887  11.731 -0.2552 -0.0646  0.9355
18652TIP3    H277372   0.275   1.806  11.604 -1.2111 -0.2744  0.9502
18653TIP3   OH277373   1.098   2.867   4.874  0.1452  0.9139  0.5723
18653TIP3    H177374   1.026   2.926   4.892 -0.4787  0.1359  0.6888
18653TIP3    H277375   1.056   2.785   4.849  0.9715  0.9108 -0.9560
18654TIP3   OH277376   2.158   1.990  14.220 -0.0125  0.3435  0.4340
18654TIP3    H177377   2.231   1.927  14.219  0.7803  1.2364  0.4972
18654TIP3    H277378   2.104   1.962  14.293 -0.6466 -1.3234 -0.6015
18655TIP3   OH277379   0.683   4.150   0.716  0.0823 -0.1342  0.4534
18655TIP3    H177380   0.775   4.175   0.714  0.6747 -2.1319 -0.5926
18655TIP3    H277381   0.637   4.221   0.672  1.4647 -0.2471 -1.2438
18656TIP3   OH277382   3.929   5.829  14.427 -0.2694 -0.1223  0.4524
18656TIP3    H177383   3.904   5.825  14.334 -1.1741 -0.3095  0.6902
18656TIP3    H277384   3.875   5.900  14.463  0.5474  0.3826  0.7054
18657TIP3   OH277385   2.160   4.833   2.637  0.2964 -0.3360 -0.3153
18657TIP3    H177386   2.247   4.871   2.646  1.0758 -2.4698  2.2676
18657TIP3    H277387   2.172   4.757   2.580  0.0834 -0.4882 -0.1608
18658TIP3   OH277388   5.714   6.240  15.745 -0.4020 -0.2927  0.1671
18658TIP3    H177389   5.745   6.330  15.752  0.8096 -0.7774  1.2740
18658TIP3    H277390   5.720   6.220  15.651 -0.5569  0.7118 -0.0706
18659TIP3   OH277391   6.030   4.983  16.361 -0.3427 -0.3060  0.2813
18659TIP3    H177392   5.975   4.904  16.365  0.0542 -0.5617  0.8616
18659TIP3    H277393   5.981   5.043  16.305 -0.9953 -0.7007  0.4141
18660TIP3   OH277394   6.012   1.258  13.930 -0.1128  0.6911 -0.2933
18660TIP3    H177395   5.958   1.214  13.864 -0.0461 -0.0450  0.1225
18660TIP3    H277396   6.000   1.351  13.914 -0.1239  0.5232 -1.3201
18661TIP3   OH277397   5.955   1.640   5.222 -0.4453  0.2188  0.1710
18661TIP3    H177398   5.984   1.660   5.311 -1.1969 -2.6440  1.1780
18661TIP3    H277399   6.003   1.560   5.199 -0.1409  0.9861 -2.1072
18662TIP3   OH277400   2.424   4.296  11.154 -0.2262  0.4849 -0.4242
18662TIP3    H177401   2.424   4.227  11.087  1.2093 -1.5717  1.5227
18662TIP3    H277402   2.383   4.255  11.230 -2.3475  2.9339 -0.1021
18663TIP3   OH277403   5.315   1.079  12.328  0.0210 -0.6617  0.8842
18663TIP3    H177404   5.308   0.991  12.292  0.4548 -0.6402  0.7446
18663TIP3    H277405   5.349   1.066  12.417  0.6442 -0.6030  0.6613
18664TIP3   OH277406   3.814   4.943   0.650  0.5632  0.3116 -0.5757
18664TIP3    H177407   3.810   4.904   0.737 -1.1722  0.6373 -0.4752
18664TIP3    H277408   3.744   5.008   0.649  0.6735  0.4628 -2.1472
18665TIP3   OH277409   0.894   5.537  10.847  0.8254  0.0446 -0.6310
18665TIP3    H177410   0.912   5.485  10.768 -0.0156 -1.2407 -0.0150
18665TIP3    H277411   0.830   5.485  10.895 -0.9406  2.1992 -0.5067
18666TIP3   OH277412   3.140   1.857  13.747  0.2488  0.1356 -0.5102
18666TIP3    H177413   3.052   1.875  13.780 -0.3195  0.1002 -1.9346
18666TIP3    H277414   3.192   1.933  13.774 -0.6978  1.1102 -1.3303
18667TIP3   OH277415   2.755   0.871  11.807 -0.7284  0.1278 -0.2495
18667TIP3    H177416   2.677   0.849  11.858 -1.4407  1.9475 -0.5122
18667TIP3    H277417   2.811   0.919  11.867  0.8670 -2.2618  0.3411
18668TIP3   OH277418   2.564   0.617   1.776  0.4675  0.7136  0.1421
18668TIP3    H177419   2.546   0.530   1.740  1.4235  0.9562 -0.9839
18668TIP3    H277420   2.550   0.676   1.703 -0.3267  1.5405  0.9426
18669TIP3   OH277421   0.699   0.300   5.576  0.3781 -0.7279  0.1820
18669TIP3    H177422   0.684   0.336   5.489 -0.7491  0.5352  0.8703
18669TIP3    H277423   0.780   0.342   5.606  0.5332 -0.8372 -0.0853
18670TIP3   OH277424   4.943   3.095  11.286  0.0513  0.5831 -0.2829
18670TIP3    H177425   4.985   3.129  11.207  0.1170  1.6595  0.1989
18670TIP3    H277426   5.015   3.067  11.342  0.1551  2.1266  0.4069
18671TIP3   OH277427   3.680   2.163   0.670 -0.0735  0.4786  0.0321
18671TIP3    H177428   3.727   2.125   0.595 -0.5451 -0.0244 -0.0127
18671TIP3    H277429   3.657   2.088   0.724 -0.4848  0.7634  0.2549
18672TIP3   OH277430   3.725   6.664  12.275 -0.2077 -0.0022  0.0427
18672TIP3    H177431   3.699   6.753  12.253  1.5584  1.0265  1.7771
18672TIP3    H277432   3.796   6.644  12.214  0.5636  0.4651  0.7793
18673TIP3   OH277433   4.824   4.608   3.793 -0.5528 -0.6224 -0.3882
18673TIP3    H177434   4.824   4.590   3.699  0.8365 -0.1472 -0.5027
18673TIP3    H277435   4.904   4.566   3.825 -1.7631 -2.1024  0.8742
18674TIP3   OH277436   5.545   0.304   5.726 -0.1049  0.0041  0.2824
18674TIP3    H177437   5.472   0.246   5.749 -2.3572  2.2908 -0.5025
18674TIP3    H277438   5.535   0.379   5.785  2.6083 -0.2261  1.1800
18675TIP3   OH277439   0.180   0.369   4.863 -0.8313 -0.3910 -0.8453
18675TIP3    H177440   0.253   0.365   4.801  1.1997  2.7793  1.0738
18675TIP3    H277441   0.184   0.285   4.909  1.8004 -0.2732 -0.6955
18676TIP3   OH277442   0.362   6.153  13.737  0.0337  1.0290 -0.1654
18676TIP3    H177443   0.327   6.079  13.687  1.1119  0.1112  0.3964
18676TIP3    H277444   0.374   6.120  13.826 -0.2040  2.1213  0.2941
18677TIP3   OH277445   1.392   5.742   1.311 -0.3655  0.0333 -0.0207
18677TIP3    H177446   1.444   5.823   1.318 -1.6243  0.7421  1.5958
18677TIP3    H277447   1.362   5.741   1.220  1.0778  0.4694 -0.5297
18678TIP3   OH277448   1.018   2.847  11.507 -0.3656 -0.1953  0.3354
18678TIP3    H177449   0.955   2.844  11.579 -0.3953  0.6567  0.3577
18678TIP3    H277450   0.966   2.871  11.431 -0.1898 -0.2170  0.2094
18679TIP3   OH277451   2.324   0.158  12.222 -0.2811  0.3121 -0.1826
18679TIP3    H177452   2.256   0.134  12.159  0.5398  1.5809 -1.6197
18679TIP3    H277453   2.315   0.253  12.232  0.0352  0.2194  1.1341
18680TIP3   OH277454   4.587   3.791  16.607  0.0535  0.1996  0.2466
18680TIP3    H177455   4.605   3.835  16.690  0.2543 -0.9907  0.8461
18680TIP3    H277456   4.528   3.719  16.630  0.2429 -0.2404 -0.6096
18681TIP3   OH277457   0.301   5.802  15.063 -0.4262 -0.3731 -0.4918
18681TIP3    H177458   0.274   5.894  15.058 -0.0726 -0.2687 -0.4914
18681TIP3    H277459   0.280   5.777  15.153 -1.9632 -0.7505 -0.9264
18682TIP3   OH277460   5.448   3.513  15.799 -0.1858  0.5092  0.0363
18682TIP3    H177461   5.455   3.418  15.807 -0.3265  0.6160  1.7062
18682TIP3    H277462   5.463   3.531  15.706  3.0039 -0.8608  0.1719
18683TIP3   OH277463   3.177   4.778  16.947  0.3809 -0.5194 -0.1774
18683TIP3    H177464   3.222   4.814  17.024 -1.2503  1.8880 -0.2479
18683TIP3    H277465   3.198   4.838  16.876 -0.7698 -0.8720 -0.8407
18684TIP3   OH277466   2.733   6.527  16.436 -0.2545 -0.1104 -0.1111
18684TIP3    H177467   2.677   6.461  16.477 -0.6397 -0.4261 -1.1116
18684TIP3    H277468   2.676   6.573  16.375  0.6317 -0.6613 -1.4073
18685TIP3   OH277469   6.557   0.403  16.339 -0.1639 -0.3842  0.0676
18685TIP3    H177470   6.506   0.350  16.279 -0.8038  0.9584 -0.6244
18685TIP3    H277471   6.519   0.491  16.332  2.7736  0.9181 -1.1717
18686TIP3   OH277472   4.010   1.796  13.254  0.1960 -0.0020 -0.1645
18686TIP3    H177473   4.083   1.844  13.292 -1.4947  0.1478  3.2455
18686TIP3    H277474   4.018   1.708  13.290 -0.9136 -0.1784 -0.3108
18687TIP3   OH277475   5.891   4.445  15.862 -0.2601  0.2181  0.3290
18687TIP3    H177476   5.871   4.528  15.820 -0.4568  0.2517  0.4856
18687TIP3    H277477   5.985   4.432  15.848  0.2192  1.4471  2.0213
18688TIP3   OH277478   6.577   4.686   1.274 -0.2316 -0.4453  0.3499
18688TIP3    H177479   6.568   4.596   1.306  0.9015 -1.0246 -0.8598
18688TIP3    H277480   6.640   4.726   1.334  0.9491 -1.1583 -0.3554
18689TIP3   OH277481   0.810   3.097  15.518  0.0041  0.0490  0.1506
18689TIP3    H177482   0.716   3.080  15.511  0.0731 -0.2466 -0.0879
18689TIP3    H277483   0.844   3.080  15.430  0.0188  1.8745 -0.2333
18690TIP3   OH277484   1.070   6.787  16.823  0.1175  0.3420 -0.0919
18690TIP3    H177485   1.031   6.739  16.896 -0.2870  1.1020  0.2049
18690TIP3    H277486   1.007   6.856  16.803  1.1953  1.4611  0.2555
18691TIP3   OH277487   0.425   2.772   3.099  0.1617  0.4267  1.0372
18691TIP3    H177488   0.331   2.787   3.096  0.1731  0.3768 -0.6654
18691TIP3    H277489   0.455   2.822   3.175 -1.2733  0.1137  1.8527
18692TIP3   OH277490   5.513   2.682   3.192 -0.8462 -0.5869 -0.2706
18692TIP3    H177491   5.603   2.704   3.169 -0.3713 -2.1714 -0.0733
18692TIP3    H277492   5.460   2.722   3.123 -0.0983  1.2520  0.1781
18693TIP3   OH277493   3.869   2.237  10.514 -0.0507 -0.3958  0.2529
18693TIP3    H177494   3.958   2.265  10.532 -0.1499 -0.5049  0.9260
18693TIP3    H277495   3.837   2.202  10.597 -1.3737  1.4143  0.5780
18694TIP3   OH277496   0.578   6.008  14.959  0.5636  0.1104 -0.5134
18694TIP3    H177497   0.529   6.054  14.891  1.5415  1.4177 -0.3743
18694TIP3    H277498   0.664   6.051  14.960  1.1925 -1.0868  0.3057
18695TIP3   OH277499   3.380   0.777  14.988 -0.3556 -0.1289 -0.5196
18695TIP3    H177500   3.352   0.737  15.071  1.9720  1.1789  1.0101
18695TIP3    H277501   3.471   0.750  14.978 -0.3328  0.4556 -2.2549
18696TIP3   OH277502   4.532   2.027  13.281 -0.2281 -0.0221 -0.1448
18696TIP3    H177503   4.603   2.061  13.337 -0.3845 -0.1203  0.1106
18696TIP3    H277504   4.578   1.995  13.203 -0.0678  0.7477 -0.3850
18697TIP3   OH277505   3.491   5.633   4.441  0.3227  0.5514  0.0093
18697TIP3    H177506   3.525   5.712   4.400  1.2925  0.4645  0.6297
18697TIP3    H277507   3.535   5.627   4.525  0.0921 -0.5218  0.0775
18698TIP3   OH277508   6.337   1.389   3.793 -0.0501  0.4592  0.5422
18698TIP3    H177509   6.369   1.473   3.761  0.6529 -0.3845 -1.1175
18698TIP3    H277510   6.408   1.355   3.848  0.1204  0.4800  0.3362
18699TIP3   OH277511   0.054   4.458   5.134 -0.1449 -0.0186 -0.2869
18699TIP3    H177512   0.086   4.537   5.091  1.0976 -0.4465 -0.1812
18699TIP3    H277513  -0.035   4.447   5.101  0.9298 -0.6585 -3.2100
18700TIP3   OH277514   5.906   2.768  12.429  0.4974  0.3409  0.1797
18700TIP3    H177515   5.912   2.694  12.490 -0.6154 -0.7236 -0.9279
18700TIP3    H277516   5.996   2.780  12.397  0.9945  0.5760  1.5926
18701TIP3   OH277517   5.007   1.399   2.008  0.5388  0.3257  0.2098
18701TIP3    H177518   4.934   1.347   1.975  1.4563 -0.8854  0.0063
18701TIP3    H277519   4.972   1.446   2.084 -0.8929  1.1259 -0.9002
18702TIP3   OH277520   4.220   4.287   2.526  0.4150  0.1101  0.5149
18702TIP3    H177521   4.170   4.330   2.456  2.4198  1.7065 -0.0403
18702TIP3    H277522   4.157   4.228   2.567 -1.4342  0.7410 -1.2163
18703TIP3   OH277523   5.960   2.936   4.355  0.1669  0.4698 -0.3363
18703TIP3    H177524   5.990   3.020   4.389 -2.4421  1.2025  0.3810
18703TIP3    H277525   5.887   2.911   4.412 -0.4370 -1.2818 -1.7502
18704TIP3   OH277526   5.954   3.519  10.980 -0.1136 -0.5862 -0.5991
18704TIP3    H177527   5.982   3.504  11.070 -3.1918  0.7141  0.7129
18704TIP3    H277528   5.926   3.432  10.949 -0.5959 -0.7681  0.3156
18705TIP3   OH277529   3.073   2.302  11.895  0.2684 -0.3811  0.2734
18705TIP3    H177530   3.069   2.308  11.991 -0.3146  0.2736  0.2248
18705TIP3    H277531   3.053   2.391  11.865  2.0363 -0.1863 -0.4387
18706TIP3   OH277532   5.074   3.756  15.599 -0.1452  0.1518 -0.6047
18706TIP3    H177533   5.040   3.742  15.511  0.8091  1.1069 -1.1527
18706TIP3    H277534   5.141   3.824  15.588  0.0373  0.2342  0.8448
18707TIP3   OH277535   5.615   0.462  15.210  0.2356  0.3046  0.1890
18707TIP3    H177536   5.654   0.549  15.201  0.0193  0.2547 -1.6358
18707TIP3    H277537   5.673   0.405  15.160 -1.5469  0.0502 -1.7190
18708TIP3   OH277538   6.373   4.340   5.203  0.0988 -0.0564 -0.0303
18708TIP3    H177539   6.409   4.289   5.276 -2.0347  0.4852  1.5067
18708TIP3    H277540   6.314   4.279   5.158 -0.1212  0.1962 -0.0812
18709TIP3   OH277541   4.884   6.261  11.260  0.0649 -0.9480 -0.6362
18709TIP3    H177542   4.856   6.323  11.328  1.3371  0.6813 -1.5415
18709TIP3    H277543   4.811   6.200  11.253 -0.9184 -0.0241  0.8435
18710TIP3   OH277544   4.444   2.066  16.851  0.2654  0.1966 -0.3695
18710TIP3    H177545   4.522   2.089  16.901  1.5523  0.7457 -2.4677
18710TIP3    H277546   4.437   1.971  16.861  0.6316  0.2598  0.6061
18711TIP3   OH277547   6.513   3.442  11.822  0.5179 -0.2965  0.1343
18711TIP3    H177548   6.597   3.426  11.864  1.4618  0.4445 -1.4220
18711TIP3    H277549   6.503   3.537  11.822  0.0363 -0.3403 -0.3691
18712TIP3   OH277550   3.650   3.313  11.652 -0.1579 -0.0620 -0.1629
18712TIP3    H177551   3.576   3.292  11.595 -0.5433 -0.3729  0.4403
18712TIP3    H277552   3.727   3.293  11.599 -0.5046 -0.0425 -0.6880
18713TIP3   OH277553   1.945   2.242  13.935 -0.1703  0.6984  0.2953
18713TIP3    H177554   1.901   2.220  14.017 -0.1295 -0.8803 -0.0865
18713TIP3    H277555   1.965   2.335  13.943  0.6719  0.3663  2.4554
18714TIP3   OH277556   5.513   5.709   4.742 -0.3108  0.3675 -0.3269
18714TIP3    H177557   5.559   5.714   4.659  1.5070 -0.0133  0.5937
18714TIP3    H277558   5.559   5.640   4.791  0.0407  1.9918  1.7813
18715TIP3   OH277559   0.947   2.946  16.518 -0.1493 -0.3678 -0.0403
18715TIP3    H177560   0.908   2.879  16.463 -0.7962  0.7664 -1.0294
18715TIP3    H277561   0.950   3.024  16.462  1.4524  0.1946  0.7482
18716TIP3   OH277562   5.946   0.959  13.526 -0.2450  0.4669  0.0389
18716TIP3    H177563   6.009   0.895  13.494 -1.2081 -1.0372  0.9999
18716TIP3    H277564   5.899   0.989  13.447  0.2166 -0.0168 -0.4219
18717TIP3   OH277565   6.766   4.089   2.252 -0.1329 -0.4907 -0.3517
18717TIP3    H177566   6.720   4.169   2.225 -0.1265 -0.5028 -0.3973
18717TIP3    H277567   6.697   4.025   2.268 -0.0994 -0.6797 -0.9754
18718TIP3   OH277568   6.656   5.013   1.156 -0.2129 -0.2805  0.2480
18718TIP3    H177569   6.660   4.950   1.227 -1.8671 -0.4787  0.2043
18718TIP3    H277570   6.744   5.052   1.153  1.5091 -3.8392 -0.9245
18719TIP3   OH277571   0.531   0.655   5.097 -0.0410  0.1923 -0.6270
18719TIP3    H177572   0.467   0.692   5.035  0.3396  0.6201 -0.7648
18719TIP3    H277573   0.521   0.561   5.087 -0.3469  0.2567 -0.9685
18720TIP3   OH277574   2.316   5.059  11.911 -0.0350 -0.1062 -0.1730
18720TIP3    H177575   2.303   4.992  11.977 -0.3426  0.9892  0.9131
18720TIP3    H277576   2.397   5.102  11.936 -1.4902  2.0875  1.1601
18721TIP3   OH277577   6.222   5.459   4.034 -0.5250 -0.2881 -0.4438
18721TIP3    H177578   6.172   5.377   4.032  1.2547 -1.4664  0.7539
18721TIP3    H277579   6.293   5.444   3.971  3.0788 -2.0270  3.5638
18722TIP3   OH277580   6.416   4.774   4.061  0.0848 -0.6729  0.9057
18722TIP3    H177581   6.344   4.742   4.116 -1.1408 -1.3865 -1.0321
18722TIP3    H277582   6.385   4.856   4.025  0.3185 -0.8772  0.2216
18723TIP3   OH277583   6.193   4.482  16.160  0.1699  0.1462  0.3106
18723TIP3    H177584   6.194   4.388  16.141 -0.6038 -0.0880  1.2947
18723TIP3    H277585   6.235   4.489  16.246 -2.0781  0.3454  1.4709
18724TIP3   OH277586   6.268   2.909   4.601  0.2222 -0.6971 -0.4000
18724TIP3    H177587   6.248   2.841   4.537 -1.0382  0.2580 -1.0768
18724TIP3    H277588   6.362   2.925   4.591  0.3343 -1.6564 -0.9038
18725TIP3   OH277589   2.021   0.678   3.404  0.5516  0.3757 -0.7009
18725TIP3    H177590   1.957   0.683   3.333  0.1094  0.3183 -0.3179
18725TIP3    H277591   2.027   0.585   3.425  0.0052  0.4696 -0.0769
18726TIP3   OH277592   2.066   0.590   3.725 -0.1198 -0.1631  0.4403
18726TIP3    H177593   1.985   0.619   3.765 -0.1959  3.0844 -1.7468
18726TIP3    H277594   2.093   0.662   3.669  3.3765 -1.8254 -0.3045
18727TIP3   OH277595   4.827   1.203   3.183  0.2419 -0.4272 -0.6281
18727TIP3    H177596   4.785   1.118   3.171  1.1466 -1.0684  0.4843
18727TIP3    H277597   4.911   1.182   3.225  1.0740  0.9178 -1.5575
18728TIP3   OH277598   6.235   3.931  16.159 -0.8631 -0.0551 -0.4238
18728TIP3    H177599   6.294   3.890  16.096  0.2225 -0.0746  0.5863
18728TIP3    H277600   6.152   3.883  16.149  0.2761 -2.3417  0.5399
18729TIP3   OH277601   1.244   0.328  16.604 -0.1173  0.0570  0.6835
18729TIP3    H177602   1.184   0.325  16.529 -1.3457 -0.2270  1.6427
18729TIP3    H277603   1.324   0.286  16.572 -1.4099 -2.1945  0.1895
18730TIP3   OH277604   5.692   0.502   5.865 -0.2031  0.7504 -0.4219
18730TIP3    H177605   5.671   0.563   5.935 -0.8289 -0.6081  0.6257
18730TIP3    H277606   5.741   0.432   5.908  2.4495  1.5301 -1.9881
18731TIP3   OH277607   3.641   3.445  14.994 -0.7122  0.5660  0.0955
18731TIP3    H177608   3.650   3.526  15.044  1.0300  0.8512 -0.5922
18731TIP3    H277609   3.564   3.402  15.030  1.0537  0.1522  3.9028
18732TIP3   OH277610   0.162   4.825  12.990  0.1782 -0.1148 -0.4942
18732TIP3    H177611   0.090   4.782  13.037 -0.9846  1.6145 -0.6110
18732TIP3    H277612   0.195   4.757  12.931 -0.2427 -1.4495  0.7271
18733TIP3   OH277613   6.094   0.640  14.764 -0.6400 -0.4932 -0.4521
18733TIP3    H177614   6.157   0.646  14.836 -1.0938  0.2332 -0.1108
18733TIP3    H277615   6.139   0.678  14.689 -1.3902  2.0227  0.2913
18734TIP3   OH277616   6.798   6.748   1.905  0.3487 -0.1086 -0.0739
18734TIP3    H177617   6.746   6.824   1.878 -0.7094 -0.8804 -0.2844
18734TIP3    H277618   6.888   6.772   1.884 -0.0074  0.9182 -0.5219
18735TIP3   OH277619   1.980   4.512  12.132 -0.3497  0.3017  0.4765
18735TIP3    H177620   1.973   4.419  12.108  2.2935  0.2589 -0.5031
18735TIP3    H277621   2.064   4.518  12.178 -0.1475  2.2911 -0.0496
18736TIP3   OH277622   3.894   3.026   1.758 -0.1133 -0.7234 -0.0277
18736TIP3    H177623   3.869   3.081   1.683  0.4649  0.4672  0.6117
18736TIP3    H277624   3.982   2.997   1.738 -0.1368 -0.7947 -0.0257
18737TIP3   OH277625   2.138   2.633   3.190 -0.1987 -0.1848  0.3121
18737TIP3    H177626   2.095   2.623   3.275  0.8614  0.4943  0.9466
18737TIP3    H277627   2.219   2.583   3.198 -0.1873 -0.2876 -0.3807
18738TIP3   OH277628   0.911   3.492   3.192  0.0694 -0.2875  0.6662
18738TIP3    H177629   0.944   3.425   3.252 -2.0374 -0.4793  1.6914
18738TIP3    H277630   0.821   3.506   3.220 -0.1935  1.4290 -0.9194
18739TIP3   OH277631   5.241   0.820  14.853  0.4434 -0.0712 -0.2402
18739TIP3    H177632   5.306   0.842  14.919  1.4517 -1.6100 -0.6545
18739TIP3    H277633   5.232   0.725  14.858 -1.7608  0.0702 -0.2491
18740TIP3   OH277634   6.768   6.588   2.951 -0.0442  0.6733  0.0440
18740TIP3    H177635   6.702   6.534   2.907 -0.1537  0.5184  0.3956
18740TIP3    H277636   6.765   6.672   2.905  0.8254  0.0761 -1.1607
18741TIP3   OH277637   0.214   1.967  16.287  0.2040 -0.2050  0.0016
18741TIP3    H177638   0.124   1.963  16.254  1.0393  0.3529 -2.6460
18741TIP3    H277639   0.213   2.035  16.353 -1.4608 -0.7358  0.5599
18742TIP3   OH277640   3.187   1.673   1.351 -0.0299  0.0480 -0.3805
18742TIP3    H177641   3.164   1.644   1.263 -1.7392  1.8327 -0.5884
18742TIP3    H277642   3.186   1.768   1.346 -1.3146  0.2236  1.8008
18743TIP3   OH277643   4.024   0.353   1.119  0.5580  0.2221  0.1078
18743TIP3    H177644   4.008   0.410   1.043  3.4233  0.1686 -0.6618
18743TIP3    H277645   3.982   0.270   1.096  3.6495 -0.7542 -2.8955
18744TIP3   OH277646   0.850   6.686   5.218 -0.1747  0.4522 -0.6239
18744TIP3    H177647   0.909   6.677   5.292 -0.7538  0.3988 -0.1614
18744TIP3    H277648   0.798   6.606   5.218 -0.5061  0.6612 -0.7897
18745TIP3   OH277649   0.514   6.373   2.030 -0.5656 -0.4394 -0.8863
18745TIP3    H177650   0.518   6.460   2.069 -0.0695  0.2978 -2.4965
18745TIP3    H277651   0.427   6.369   1.990 -1.6003 -1.6939  1.2923
18746TIP3   OH277652   5.011   1.815  14.071  0.4628 -0.3421 -0.5779
18746TIP3    H177653   5.077   1.859  14.017  0.8274 -0.3821 -0.1689
18746TIP3    H277654   5.058   1.789  14.150  0.0040 -0.5583 -0.3725
18747TIP3   OH277655   4.676   6.570  11.047  0.2796 -0.2229 -0.0893
18747TIP3    H177656   4.632   6.589  10.964  0.8579  1.4160 -0.0544
18747TIP3    H277657   4.761   6.535  11.021 -0.6611 -2.6096 -0.1548
18748TIP3   OH277658   0.752   3.907   0.585 -0.5169  0.0947  0.1022
18748TIP3    H177659   0.701   3.941   0.512  0.0270 -1.3491 -0.9972
18748TIP3    H277660   0.747   3.975   0.652 -1.5233  1.1911 -1.0462
18749TIP3   OH277661   0.577   1.719   3.327  0.8914 -0.4800  0.1533
18749TIP3    H177662   0.554   1.777   3.255 -1.9099 -0.7305  0.7324
18749TIP3    H277663   0.671   1.731   3.339  0.8601  1.9512 -1.4428
18750TIP3   OH277664   0.008   1.970  15.981 -0.3867 -0.8678  0.0810
18750TIP3    H177665  -0.086   1.978  16.000  0.0368  0.7166  1.8587
18750TIP3    H277666   0.019   2.016  15.897 -1.3238 -2.0061 -0.6959
18751TIP3   OH277667   6.742   6.643   3.719 -0.0069  0.3836  0.1313
18751TIP3    H177668   6.798   6.720   3.712  0.2961  0.1207 -0.3299
18751TIP3    H277669   6.691   6.658   3.800 -1.4163  2.0345 -0.9818
18752TIP3   OH277670   3.516   3.158   5.392  0.4906  0.5702  0.1193
18752TIP3    H177671   3.426   3.190   5.387 -1.3510 -3.9895 -0.6037
18752TIP3    H277672   3.529   3.138   5.485 -0.3178 -1.1384 -0.0930
18753TIP3   OH277673   1.471   3.892  11.086 -0.6854  0.0057  0.3994
18753TIP3    H177674   1.418   3.841  11.024  1.0561 -0.0780 -1.1316
18753TIP3    H277675   1.561   3.866  11.066  0.1297  2.2335  0.9075
18754TIP3   OH277676   6.554   4.151  12.094 -0.9043  0.6526 -0.0645
18754TIP3    H177677   6.563   4.153  12.189  1.1027 -0.0331 -0.1812
18754TIP3    H277678   6.580   4.061  12.070 -1.9352  0.6401 -1.2180
18755TIP3   OH277679   0.784   1.157   1.439 -0.2009  0.1778 -0.0166
18755TIP3    H177680   0.729   1.112   1.375 -0.4871  2.0853 -1.1777
18755TIP3    H277681   0.722   1.184   1.507 -0.4097  0.7695 -0.4376
18756TIP3   OH277682   4.320   2.549   0.298 -0.6032 -0.1672  0.1255
18756TIP3    H177683   4.236   2.579   0.332 -0.7459 -0.0243 -0.3515
18756TIP3    H277684   4.311   2.552   0.203  0.1394  0.4182  0.0642
18757TIP3   OH277685   3.632   0.020  12.763 -0.6674 -0.2205 -0.1261
18757TIP3    H177686   3.708   0.078  12.761  0.3554 -1.4693 -2.9233
18757TIP3    H277687   3.606   0.017  12.855  1.3446  1.9089  0.6009
18758TIP3   OH277688   6.146   0.105   2.136  0.6650  0.6507  0.7699
18758TIP3    H177689   6.152   0.012   2.161  0.7234  0.8667  1.6018
18758TIP3    H277690   6.062   0.112   2.093  0.8366  0.1279  0.3292
18759TIP3   OH277691   1.537   0.507  14.319 -0.3301  0.0955 -1.1293
18759TIP3    H177692   1.477   0.437  14.345  0.5927 -1.5870 -3.1655
18759TIP3    H277693   1.505   0.536  14.233  0.9488  0.1215 -1.6188
18760TIP3   OH277694   4.968   4.924   0.844  0.0063 -0.4409 -0.2652
18760TIP3    H177695   4.888   4.949   0.797  0.0293 -0.2543 -0.2081
18760TIP3    H277696   4.942   4.855   0.903 -0.2261 -0.0067  0.1424
18761TIP3   OH277697   5.547   3.490  15.410  0.8446  0.1894 -0.8919
18761TIP3    H177698   5.496   3.418  15.373  0.9794 -1.5012  1.9167
18761TIP3    H277699   5.630   3.450  15.437  0.9948  1.4069  0.6104
18762TIP3   OH277700   6.372   5.108  10.832 -0.0191  0.4667 -0.0018
18762TIP3    H177701   6.330   5.189  10.803  0.9039  1.0323  0.1827
18762TIP3    H277702   6.408   5.069  10.752  0.1464  0.6076  0.0033
18763TIP3   OH277703   2.540   3.316  13.931 -0.0947 -0.7083 -0.5636
18763TIP3    H177704   2.561   3.228  13.963  1.4663 -0.9704 -2.1692
18763TIP3    H277705   2.541   3.308  13.836  0.5317  1.1250 -0.7584
18764TIP3   OH277706   5.228   2.401  15.911  0.1312  0.1332  0.4966
18764TIP3    H177707   5.177   2.321  15.900 -1.8232  1.0447  2.0834
18764TIP3    H277708   5.274   2.413  15.828  1.8676 -3.4669  0.7787
18765TIP3   OH277709   0.245   4.738   0.342  0.3755 -0.0344 -0.1814
18765TIP3    H177710   0.290   4.673   0.395  0.9709 -0.0291 -0.6629
18765TIP3    H277711   0.225   4.810   0.403 -0.3391 -0.6774  0.3616
18766TIP3   OH277712   5.035   2.652  11.323  0.2723 -0.2638 -0.1832
18766TIP3    H177713   5.003   2.597  11.251  2.0130 -1.7714  0.1368
18766TIP3    H277714   4.975   2.634  11.395  0.3063 -1.0753 -0.3527
18767TIP3   OH277715   6.554   4.583  14.850  0.1756 -0.4393 -0.1965
18767TIP3    H177716   6.529   4.641  14.922  1.1225 -0.8864  0.5086
18767TIP3    H277717   6.520   4.626  14.772  0.9126  1.0940  0.3005
18768TIP3   OH277718   1.316   6.563  11.870 -0.3367 -0.2347 -0.6868
18768TIP3    H177719   1.364   6.614  11.804  2.1755 -0.8194  0.5690
18768TIP3    H277720   1.360   6.582  11.952 -2.5697 -0.5504  0.6529
18769TIP3   OH277721   0.981   3.373  16.070 -0.4976 -0.3648 -0.4751
18769TIP3    H177722   0.929   3.293  16.070  1.0905 -1.4518 -0.9688
18769TIP3    H277723   1.006   3.385  16.161 -0.8270 -0.3551 -0.3829
18770TIP3   OH277724   5.293   3.665  16.840 -0.8200  0.0258  0.4947
18770TIP3    H177725   5.277   3.587  16.787 -1.3831 -0.7868  1.8137
18770TIP3    H277726   5.268   3.738  16.783 -2.5852 -0.8746  0.0392
18771TIP3   OH277727   3.165   5.138  16.922  0.1232 -0.0110 -0.4283
18771TIP3    H177728   3.114   5.106  16.847 -0.1667 -1.5690  0.3832
18771TIP3    H277729   3.256   5.121  16.897 -0.0260 -1.6233  0.0060
18772TIP3   OH277730   6.706   1.339  15.480  0.8769 -0.3617 -0.2712
18772TIP3    H177731   6.651   1.407  15.443  1.6617 -0.6918 -2.1430
18772TIP3    H277732   6.644   1.273  15.513  0.1328 -0.3287 -1.5547
18773TIP3   OH277733   0.422   5.977  12.217 -0.3457  0.4655 -0.0734
18773TIP3    H177734   0.353   5.913  12.234 -0.2466  0.4597  0.3235
18773TIP3    H277735   0.395   6.021  12.137  0.4280 -1.2334 -1.3426
18774TIP3   OH277736   6.514   4.686  13.369 -0.0176  0.5107 -0.4904
18774TIP3    H177737   6.559   4.684  13.454  0.7490 -1.1103 -0.9035
18774TIP3    H277738   6.550   4.612  13.321 -0.5752  1.3012 -2.1860
18775TIP3   OH277739   4.915   0.561  12.887  0.6044  0.2537 -0.2088
18775TIP3    H177740   4.959   0.536  12.806  0.9320  1.6934 -0.4906
18775TIP3    H277741   4.837   0.608  12.859 -0.0432 -0.4745  0.3206
18776TIP3   OH277742   5.714   2.021  16.704  0.1885  0.0622 -0.7848
18776TIP3    H177743   5.727   1.928  16.725 -3.2908 -0.3036  0.5388
18776TIP3    H277744   5.660   2.019  16.625 -1.4425  0.8151  0.2606
18777TIP3   OH277745   2.916   2.462   5.376 -0.0176  0.9284  0.4098
18777TIP3    H177746   2.923   2.534   5.313 -2.1056  1.5663  0.8165
18777TIP3    H277747   2.904   2.504   5.461 -2.3248  0.1995  0.5281
18778TIP3   OH277748   5.391   2.794  15.776  0.2495  0.8563  0.0398
18778TIP3    H177749   5.296   2.807  15.775 -0.2132 -1.1776  3.3503
18778TIP3    H277750   5.412   2.777  15.868  3.4917 -0.9000 -0.8838
18779TIP3   OH277751   2.863   5.969  12.284 -0.0957 -0.2043  0.5872
18779TIP3    H177752   2.790   5.928  12.237  0.6335  0.1371 -0.9147
18779TIP3    H277753   2.896   6.035  12.223 -0.8926  2.3062  2.6800
18780TIP3   OH277754   5.826   4.318   3.028 -0.0062  0.1028  0.1199
18780TIP3    H177755   5.785   4.404   3.022  1.7292  0.9419 -0.4878
18780TIP3    H277756   5.821   4.282   2.940  0.9754  0.4470 -0.0945
18781TIP3   OH277757   2.019   5.894   0.461  0.4176 -0.1968 -0.0442
18781TIP3    H177758   1.933   5.851   0.467  0.4223 -0.2864 -0.6399
18781TIP3    H277759   2.038   5.921   0.551 -1.0352  1.3828 -0.1634
18782TIP3   OH277760   6.176   2.573   5.605  0.0855 -0.0495  0.1092
18782TIP3    H177761   6.167   2.487   5.564 -0.6719  0.7780 -1.5642
18782TIP3    H277762   6.269   2.593   5.597 -0.1774  0.5414 -2.2975
18783TIP3   OH277763   5.184   4.090  15.294 -0.6699  0.5284 -0.0026
18783TIP3    H177764   5.142   4.176  15.280  2.4983  2.1972 -0.1559
18783TIP3    H277765   5.277   4.105  15.275  0.3100 -2.5683  1.6258
18784TIP3   OH277766   0.561   6.314   2.789  0.3536 -0.0854  0.6835
18784TIP3    H177767   0.532   6.403   2.768  0.2876 -0.4696 -0.9742
18784TIP3    H277768   0.480   6.266   2.808  0.2537 -0.1732  0.0345
18785TIP3   OH277769   6.354   6.514  14.255  0.2072 -0.2311  0.1302
18785TIP3    H177770   6.307   6.506  14.338  1.3282 -0.7417  0.7502
18785TIP3    H277771   6.322   6.441  14.202  0.2916 -0.5688  0.5393
18786TIP3   OH277772   4.492   4.406  11.616 -0.0365 -0.0945 -0.4580
18786TIP3    H177773   4.579   4.444  11.614  0.0476 -0.3100 -1.0519
18786TIP3    H277774   4.444   4.460  11.679  1.1272 -1.2992  1.5626
18787TIP3   OH277775   4.423   4.727  11.779 -0.6137  0.0523  0.6241
18787TIP3    H177776   4.395   4.652  11.832 -0.0106  0.2839  1.2925
18787TIP3    H277777   4.411   4.803  11.837  0.0189  0.3108  0.4314
18788TIP3   OH277778   0.546   1.793   4.826 -0.2920 -0.0794 -0.3900
18788TIP3    H177779   0.485   1.736   4.872  1.0758 -0.1704  1.3907
18788TIP3    H277780   0.500   1.877   4.820 -0.6425 -0.1573  0.8837
18789TIP3   OH277781   3.265   1.468  15.891  0.0813  0.3813 -0.0255
18789TIP3    H177782   3.265   1.486  15.985 -0.6894 -0.1887  0.0935
18789TIP3    H277783   3.357   1.476  15.866  0.2478  0.9322  0.6922
18790TIP3   OH277784   2.519   6.393   4.903 -0.5416  0.1988 -0.3719
18790TIP3    H177785   2.531   6.370   4.995 -0.2877  1.0041 -0.2018
18790TIP3    H277786   2.448   6.336   4.874 -1.1442  0.4765  0.5189
18791TIP3   OH277787   1.226   2.674  13.607  0.5980  0.5852  0.3053
18791TIP3    H177788   1.204   2.756  13.651  0.5112  1.6537 -1.6165
18791TIP3    H277789   1.321   2.667  13.613  0.5230  0.2624  1.3652
18792TIP3   OH277790   5.350   5.845   5.325 -0.4098 -0.1207 -0.2215
18792TIP3    H177791   5.403   5.786   5.273 -0.6412 -1.9206  1.4462
18792TIP3    H277792   5.378   5.932   5.299  1.8958 -0.9742 -0.8518
18793TIP3   OH277793   2.292   3.896   6.122 -0.1779  0.6247 -0.5874
18793TIP3    H177794   2.244   3.949   6.058 -2.4488 -0.2960  0.2582
18793TIP3    H277795   2.224   3.855   6.175  1.5369 -1.8311 -0.1368
18794TIP3   OH277796   3.295   1.772   0.435  0.4742 -0.3468 -0.4897
18794TIP3    H177797   3.213   1.734   0.465  0.4844 -1.1426 -1.4236
18794TIP3    H277798   3.286   1.778   0.340  2.0664 -1.8823 -0.7898
18795TIP3   OH277799   1.482   2.339  11.610 -0.0395 -0.1461  0.5033
18795TIP3    H177800   1.468   2.274  11.678 -0.1709 -1.4477 -0.7257
18795TIP3    H277801   1.537   2.295  11.545 -2.3355 -0.0274 -1.6766
18796TIP3   OH277802   2.853   3.437  13.793 -0.0462 -0.4757  0.2943
18796TIP3    H177803   2.770   3.473  13.823 -0.0297  0.2765 -0.5402
18796TIP3    H277804   2.909   3.438  13.870 -0.7958 -0.9637  0.8558
18797TIP3   OH277805   4.713   0.483  14.732  0.2011  0.3018  0.0104
18797TIP3    H177806   4.752   0.526  14.808  2.7155 -0.9453 -0.4554
18797TIP3    H277807   4.780   0.421  14.703 -0.7173  0.5840 -3.0936
18798TIP3   OH277808   4.847   2.111  15.448 -0.0815  0.0846  0.1860
18798TIP3    H177809   4.858   2.111  15.543 -1.4942  0.6835  0.3733
18798TIP3    H277810   4.832   2.019  15.425 -0.6515  0.0522  0.6731
18799TIP3   OH277811   0.469   3.632   4.168 -0.1074 -0.4002  0.2334
18799TIP3    H177812   0.388   3.604   4.212  1.0388 -0.5925  2.3657
18799TIP3    H277813   0.491   3.560   4.110 -1.2835 -0.4947 -0.1142
18800TIP3   OH277814   4.379   4.035  16.694 -0.5163  0.3094 -0.2260
18800TIP3    H177815   4.411   3.956  16.738 -0.9594  0.6562  0.7379
18800TIP3    H277816   4.310   4.003  16.636  0.4728 -0.2286 -1.1577
18801TIP3   OH277817   6.220   2.637   0.267  0.1647  0.3814  0.3994
18801TIP3    H177818   6.260   2.610   0.349 -0.0347 -1.3637 -0.0216
18801TIP3    H277819   6.145   2.690   0.293  0.6343  0.6091  1.3085
18802TIP3   OH277820   5.705   2.497   5.872 -0.2204 -0.2113 -0.2809
18802TIP3    H177821   5.626   2.490   5.925  0.7435 -1.1824  1.1114
18802TIP3    H277822   5.686   2.567   5.810 -1.7767  0.2997  0.7011
18803TIP3   OH277823   6.659   3.145  12.566  0.2468 -0.0056 -0.4312
18803TIP3    H177824   6.583   3.166  12.620  1.2856  0.3882  0.9235
18803TIP3    H277825   6.684   3.229  12.527  1.8625  0.5876  1.6676
18804TIP3   OH277826   2.319   5.188   0.294  0.4178  0.2868 -0.3321
18804TIP3    H177827   2.390   5.251   0.279  1.4660 -0.3568  1.5233
18804TIP3    H277828   2.239   5.241   0.291  1.2927  1.8472  1.5857
18805TIP3   OH277829   3.598   4.519   0.362 -0.1483 -0.3286  0.9053
18805TIP3    H177830   3.601   4.614   0.355  0.0913 -0.4551 -1.0405
18805TIP3    H277831   3.586   4.488   0.273  2.3509 -2.2410  1.1267
18806TIP3   OH277832   0.443   2.323   4.874  0.2144 -0.3657  0.1034
18806TIP3    H177833   0.406   2.336   4.962  0.2832  1.0831 -0.0667
18806TIP3    H277834   0.460   2.411   4.842 -0.0750 -0.8632 -1.4899
18807TIP3   OH277835   2.756   2.153   1.192  0.6412 -0.2895  0.1885
18807TIP3    H177836   2.835   2.145   1.246  0.4188  1.0252  0.7504
18807TIP3    H277837   2.683   2.146   1.254  0.2702 -1.8446 -0.3715
18808TIP3   OH277838   5.752   5.398  10.563  0.0188  1.1389  0.0717
18808TIP3    H177839   5.659   5.388  10.545 -0.9750  1.7173  3.9222
18808TIP3    H277840   5.771   5.489  10.540  0.2295  0.5456 -2.4475
18809TIP3   OH277841   5.065   6.440   5.059  0.2413 -0.4140  0.0708
18809TIP3    H177842   5.073   6.484   5.144  0.3128  1.1056 -0.6774
18809TIP3    H277843   5.086   6.509   4.995 -2.3994 -0.7591 -1.3079
18810TIP3   OH277844   0.295   1.611  16.912  0.7889 -0.3060  0.2612
18810TIP3    H177845   0.257   1.547  16.973 -1.5007  0.5457 -0.1968
18810TIP3    H277846   0.325   1.682  16.969  0.9773 -0.6315  0.5754
18811TIP3   OH277847   4.423   4.622  14.001  0.1191 -0.6234  0.2492
18811TIP3    H177848   4.364   4.559  14.043  0.1966 -2.6517 -2.4206
18811TIP3    H277849   4.372   4.656  13.927  1.2008 -0.0230 -0.2352
18812TIP3   OH277850   3.540   2.471  12.338 -1.1941  0.4993 -0.4217
18812TIP3    H177851   3.584   2.427  12.410 -0.4778 -1.4865 -1.9799
18812TIP3    H277852   3.448   2.474  12.364 -1.1141 -1.1400  0.1364
18813TIP3   OH277853   2.819   0.545  12.899 -0.4820 -0.3076  0.2810
18813TIP3    H177854   2.908   0.513  12.908 -0.8663 -1.4073  0.2890
18813TIP3    H277855   2.782   0.496  12.826 -0.6511  1.1725 -0.6870
18814TIP3   OH277856   3.225   6.127  14.707 -0.1359 -0.1268  0.3373
18814TIP3    H177857   3.231   6.219  14.734  1.5848 -0.2095  0.4004
18814TIP3    H277858   3.141   6.120  14.661 -1.2304  0.9827  2.0715
18815TIP3   OH277859   3.841   4.356   0.189  0.1220 -0.2744 -0.4632
18815TIP3    H177860   3.842   4.332   0.281 -0.6856 -0.1776 -0.4273
18815TIP3    H277861   3.882   4.443   0.186 -2.1084  0.8758  0.1552
18816TIP3   OH277862   0.496   3.811   4.513  0.2674  0.0678  0.8905
18816TIP3    H177863   0.531   3.767   4.435  0.1367 -0.7781  1.3065
18816TIP3    H277864   0.476   3.741   4.574 -0.2344  0.6852  1.4531
18817TIP3   OH277865   6.057   6.740   5.259  0.0349  0.6460 -0.5468
18817TIP3    H177866   6.136   6.761   5.309 -0.1261 -1.0065  0.4689
18817TIP3    H277867   6.089   6.722   5.171  0.7450  0.3502 -0.2353
18818TIP3   OH277868   2.774   6.056   3.719 -0.1943 -0.6832  0.9551
18818TIP3    H177869   2.709   6.114   3.680 -0.3900 -0.3633  1.7399
18818TIP3    H277870   2.754   5.969   3.683  0.8910 -0.1064 -1.2343
18819TIP3   OH277871   4.817   3.374  13.703  0.0899 -0.4333 -0.3191
18819TIP3    H177872   4.839   3.436  13.633 -1.4905  0.1872 -0.3220
18819TIP3    H277873   4.890   3.379  13.764  0.7713  0.1768 -1.1598
18820TIP3   OH277874   4.412   0.059  16.510  0.6675  0.2771 -0.0964
18820TIP3    H177875   4.393  -0.008  16.444 -1.2456  0.6631 -0.0162
18820TIP3    H277876   4.435   0.137  16.459 -0.3136  0.4358 -0.3203
18821TIP3   OH277877   0.669   5.161   5.150  0.3018 -0.4789  0.6023
18821TIP3    H177878   0.740   5.218   5.120  0.2942 -0.7474  0.0678
18821TIP3    H277879   0.675   5.165   5.246 -0.3125  1.1888  0.6174
18822TIP3   OH277880   0.460   0.737   3.671 -0.2831 -0.1922  0.2029
18822TIP3    H177881   0.389   0.699   3.619 -0.0349 -2.6456  1.5205
18822TIP3    H277882   0.417   0.773   3.748 -0.2762  0.1744  0.0398
18823TIP3   OH277883   6.007   0.683  11.107 -0.2933  0.2406 -0.5964
18823TIP3    H177884   6.020   0.740  11.182 -0.0996 -0.0964 -0.3711
18823TIP3    H277885   5.988   0.597  11.145 -1.1108  0.2681 -0.9271
18824TIP3   OH277886   2.088   3.585   4.865  0.0286  0.6052  0.5362
18824TIP3    H177887   2.085   3.574   4.770 -0.1856  2.5572  0.2754
18824TIP3    H277888   2.172   3.547   4.890  0.6722  1.1792 -0.6349
18825TIP3   OH277889   2.876   2.858   2.046 -0.0850  0.2914 -0.3910
18825TIP3    H177890   2.876   2.942   2.093  1.0669  0.2453 -0.2914
18825TIP3    H277891   2.937   2.871   1.973  0.9756 -0.7929  0.2663
18826TIP3   OH277892   4.584   1.088   5.165  0.9947 -0.5577 -0.3284
18826TIP3    H177893   4.595   1.153   5.234 -1.4595 -0.9183  0.4754
18826TIP3    H277894   4.591   1.138   5.083  0.2875  0.5138  0.2489
18827TIP3   OH277895   6.202   0.687  12.005 -0.1702 -0.2109  0.1182
18827TIP3    H177896   6.220   0.601  11.966 -1.0256  0.5981 -2.1937
18827TIP3    H277897   6.122   0.674  12.055  1.5665 -1.5534  2.7899
18828TIP3   OH277898   0.489   6.146   0.028 -0.7354 -0.3612  1.1050
18828TIP3    H177899   0.565   6.127  -0.027 -1.6765 -0.0346 -0.3510
18828TIP3    H277900   0.519   6.128   0.117  1.2899  0.4936  0.6564
18829TIP3   OH277901   5.071   2.465  14.923 -0.4460  0.0440  0.3893
18829TIP3    H177902   5.160   2.435  14.944 -1.3012 -2.3439  0.8742
18829TIP3    H277903   5.053   2.429  14.837 -2.0455 -2.3040  1.5941
18830TIP3   OH277904   4.958   1.305   2.955  0.2480  0.2806 -0.2668
18830TIP3    H177905   4.895   1.252   3.004  0.2111  0.9803  0.4505
18830TIP3    H277906   5.026   1.243   2.929  0.4292 -0.0466  0.9454
18831TIP3   OH277907   1.908   3.847  15.224 -0.0011 -0.5213 -0.0965
18831TIP3    H177908   1.872   3.928  15.261  0.8483 -0.5310  0.7894
18831TIP3    H277909   1.970   3.816  15.290 -0.2617 -1.8687 -0.4641
18832TIP3   OH277910   5.833   5.795   0.321  0.3897 -0.2353 -0.1230
18832TIP3    H177911   5.923   5.796   0.288  0.0294  0.1214 -1.1364
18832TIP3    H277912   5.802   5.706   0.303  0.4042 -0.2349 -0.1502
18833TIP3   OH277913   5.929   6.688  12.825  0.3213 -0.3223  0.0495
18833TIP3    H177914   5.946   6.776  12.858  0.0495 -0.3212  0.1896
18833TIP3    H277915   5.905   6.701  12.733  0.9032 -0.3096 -0.1050
18834TIP3   OH277916   5.873   4.986  13.925 -0.1444  0.0565 -0.0741
18834TIP3    H177917   5.924   4.947  13.996  0.1006  0.8949  0.2208
18834TIP3    H277918   5.918   4.957  13.845  0.4904  0.3642  0.1648
18835TIP3   OH277919   5.804   6.612   0.261 -0.2087  0.1244 -0.1355
18835TIP3    H177920   5.899   6.601   0.258 -0.2175  0.1395 -2.6308
18835TIP3    H277921   5.783   6.662   0.182 -2.6005 -3.0391 -1.7628
18836TIP3   OH277922   4.846   3.545  11.693  0.0178  0.0712 -0.0557
18836TIP3    H177923   4.912   3.614  11.686 -1.1136  1.0462 -1.8818
18836TIP3    H277924   4.849   3.500  11.609 -0.3203 -1.1386  0.5565
18837TIP3   OH277925   6.476   3.046  11.616  0.3936  0.0355 -0.2088
18837TIP3    H177926   6.434   3.079  11.536 -0.3110  0.2126  0.2332
18837TIP3    H277927   6.532   2.974  11.585 -0.4040 -0.3555 -0.7813
18838TIP3   OH277928   2.021   0.700  14.783 -0.0718  0.1082 -0.3543
18838TIP3    H177929   2.103   0.718  14.830 -0.6911  1.4830  0.2496
18838TIP3    H277930   1.991   0.617  14.820 -0.2425  0.8665  1.3292
18839TIP3   OH277931   6.332   4.585  10.501  0.4454 -0.5264 -0.4373
18839TIP3    H177932   6.254   4.591  10.555 -0.1382  0.7207 -1.3842
18839TIP3    H277933   6.404   4.580  10.563 -0.2864 -0.3275  0.4421
18840TIP3   OH277934   5.094   5.093   5.917  0.3161 -0.9532 -0.3863
18840TIP3    H177935   5.100   5.027   5.849 -0.0491 -0.3480 -1.0181
18840TIP3    H277936   5.006   5.084   5.952  0.3431 -0.9532 -0.3169
18841TIP3   OH277937   3.599   0.366   0.622  0.0023  0.4554  0.0294
18841TIP3    H177938   3.529   0.379   0.686  0.4074  0.4145  0.4841
18841TIP3    H277939   3.666   0.431   0.646  1.5112 -1.5497  1.5480
18842TIP3   OH277940   1.992   5.613  11.184  0.2883  0.2659  0.0892
18842TIP3    H177941   2.073   5.587  11.227 -0.1622  0.7381  1.2876
18842TIP3    H277942   1.974   5.544  11.121  0.6010 -0.8486  1.1883
18843TIP3   OH277943   0.602   5.896   5.836 -0.3107  0.2021  0.2881
18843TIP3    H177944   0.638   5.957   5.900  2.0803  1.0972 -1.7795
18843TIP3    H277945   0.653   5.910   5.757 -3.5252 -0.3789 -2.1200
18844TIP3   OH277946   2.195   4.405   1.527 -0.0850  0.0340 -0.3928
18844TIP3    H177947   2.270   4.461   1.510  0.6270 -0.4625  0.9922
18844TIP3    H277948   2.125   4.464   1.555  0.6548  0.2457  1.0530
18845TIP3   OH277949   2.183   5.872  16.586  0.3607 -0.0190 -0.4949
18845TIP3    H177950   2.253   5.897  16.646  0.2701 -1.3579  0.2088
18845TIP3    H277951   2.190   5.934  16.514  1.2529  0.8557  0.3237
18846TIP3   OH277952   3.239   5.266   6.250  0.2530  0.4163  0.7693
18846TIP3    H177953   3.247   5.176   6.219 -0.1445 -0.3391  2.6848
18846TIP3    H277954   3.329   5.299   6.254  0.2872  0.7006 -1.4703
18847TIP3   OH277955   3.080   6.496  11.202  0.2533  0.1081 -0.1403
18847TIP3    H177956   3.040   6.550  11.271  1.3162 -1.4197  1.7570
18847TIP3    H277957   3.160   6.543  11.179  1.1537 -0.5359  1.4717
18848TIP3   OH277958   4.834   6.763   2.624 -0.6425  0.2671 -0.0414
18848TIP3    H177959   4.768   6.720   2.679  0.8777 -0.2362  1.4601
18848TIP3    H277960   4.837   6.710   2.545 -2.0416  0.3267 -0.1652
18849TIP3   OH277961   2.316   5.230  15.328  0.2004  0.4770 -0.0049
18849TIP3    H177962   2.362   5.225  15.245  2.0654  0.7055  0.9758
18849TIP3    H277963   2.350   5.157  15.379 -2.0743 -0.6333  0.0557
18850TIP3   OH277964   6.651   0.112   1.089 -0.0535  0.1736  0.0596
18850TIP3    H177965   6.701   0.173   1.035 -2.3285  0.9966 -1.3091
18850TIP3    H277966   6.679   0.025   1.060 -1.7145  0.5573 -3.2384
18851TIP3   OH277967   6.516   3.866   5.842  0.2003 -0.4954  0.0265
18851TIP3    H177968   6.580   3.933   5.818  1.5531 -1.7555 -0.0927
18851TIP3    H277969   6.497   3.882   5.934  1.5448 -0.7202  0.3721
18852TIP3   OH277970   3.308   4.379   0.367  0.1976 -0.1055 -0.1253
18852TIP3    H177971   3.323   4.472   0.352  0.9011 -0.2438 -0.2938
18852TIP3    H277972   3.387   4.336   0.336 -0.1644 -0.7741 -0.1538
18853TIP3   OH277973   2.403   5.251   4.613  0.1970 -0.5730  0.1741
18853TIP3    H177974   2.340   5.313   4.577 -0.2412 -1.4459 -0.6046
18853TIP3    H277975   2.435   5.293   4.693 -1.3477 -0.0944  0.5793
18854TIP3   OH277976   6.719   3.325  16.470 -0.5457  0.3633  0.2045
18854TIP3    H177977   6.755   3.243  16.502 -1.9115 -0.2402  0.2608
18854TIP3    H277978   6.784   3.357  16.408 -0.4777 -1.3202 -0.6521
18855TIP3   OH277979   5.622   1.570  15.931  0.1042 -0.1344  0.5868
18855TIP3    H177980   5.583   1.652  15.961 -0.2523 -0.0839 -0.0008
18855TIP3    H277981   5.716   1.581  15.947 -0.1470 -0.4790  2.5460
18856TIP3   OH277982   5.534   2.695  13.059 -0.1481  0.0736 -0.2899
18856TIP3    H177983   5.550   2.772  13.114 -0.3313 -0.1683  0.1084
18856TIP3    H277984   5.454   2.657  13.095 -0.5948  0.2326 -1.0854
18857TIP3   OH277985   5.896   1.988   3.716 -0.5082  0.1772  0.1286
18857TIP3    H177986   5.867   2.031   3.796  0.5191  1.1279  0.0034
18857TIP3    H277987   5.941   2.056   3.666  1.5720 -1.0974  0.1276
18858TIP3   OH277988   0.833   2.725  16.395 -0.4118  0.2903  0.4828
18858TIP3    H177989   0.843   2.711  16.301  2.8864 -0.8324  0.8786
18858TIP3    H277990   0.781   2.650  16.425  0.3958 -0.5479 -0.1643
18859TIP3   OH277991   2.581   5.574  16.205 -0.1032 -0.3137 -0.5672
18859TIP3    H177992   2.658   5.534  16.246  0.9426  1.6510 -0.5093
18859TIP3    H277993   2.544   5.630  16.272 -1.7888 -1.4043 -0.5204
18860TIP3   OH277994   5.039   5.032  10.511 -0.9052 -0.1096  0.1907
18860TIP3    H177995   5.066   4.948  10.475 -0.4621 -0.3979  1.1534
18860TIP3    H277996   5.090   5.041  10.592 -0.0253  1.6361 -0.5010
18861TIP3   OH277997   3.183   1.378  10.396  0.2486  0.0751  0.1642
18861TIP3    H177998   3.097   1.419  10.390  0.8922  2.0330  2.5680
18861TIP3    H277999   3.167   1.298  10.447 -0.0103  1.2328  2.0060
18862TIP3   OH278000   5.072   2.686   0.039 -0.3159  0.3853  0.4872
18862TIP3    H178001   5.145   2.681  -0.023 -0.9990 -1.3792 -0.2234
18862TIP3    H278002   5.064   2.780   0.058 -1.0379  1.2676 -3.2963
18863TIP3   OH278003   2.733   5.876   4.854  0.0537  0.1159  0.2049
18863TIP3    H178004   2.694   5.848   4.937  0.1698  2.3383  1.0778
18863TIP3    H278005   2.661   5.917   4.807  0.5250  1.1357  0.3362
18864TIP3   OH278006   0.772   4.367   1.010  0.7309 -0.8026 -0.2939
18864TIP3    H178007   0.819   4.304   1.065  0.4252 -1.5162 -0.8358
18864TIP3    H278008   0.681   4.338   1.013 -0.4417  2.3213  3.3148
18865TIP3   OH278009   6.194   6.355  10.186  0.2356 -0.4170  0.3094
18865TIP3    H178010   6.246   6.435  10.195  1.0304 -1.0632  1.8908
18865TIP3    H278011   6.190   6.319  10.275 -2.5254 -0.6770  0.1479
18866TIP3   OH278012   6.710   0.789  16.915  0.4248  0.2827  0.2959
18866TIP3    H178013   6.789   0.843  16.915  0.1738  0.7176 -1.3692
18866TIP3    H278014   6.638   0.851  16.920  0.1597 -0.0634  0.9182
18867TIP3   OH278015   0.044   3.650   5.667 -0.1715  0.0070  0.0251
18867TIP3    H178016   0.079   3.572   5.708  0.3896  0.0197 -0.4188
18867TIP3    H278017   0.080   3.723   5.718 -0.2713 -0.0055  0.1143
18868TIP3   OH278018   3.817   6.177   0.018 -0.2164 -0.4265  0.0950
18868TIP3    H178019   3.906   6.171   0.052  0.3148 -0.1300 -1.1895
18868TIP3    H278020   3.814   6.262  -0.026  0.1916 -2.0958 -3.4225
18869TIP3   OH278021   6.230   3.433  13.335 -0.0402  0.1746 -0.6055
18869TIP3    H178022   6.226   3.404  13.426  0.4272 -0.0696 -0.6630
18869TIP3    H278023   6.242   3.527  13.340  0.5381  0.0897 -0.4148
18870TIP3   OH278024   5.153   1.025   5.519  0.8062  0.2342 -0.4974
18870TIP3    H178025   5.142   0.967   5.595  0.6672  0.7007 -0.1534
18870TIP3    H278026   5.213   1.093   5.550 -1.0662  1.7572 -0.0077
18871TIP3   OH278027   2.865   0.017   3.438  0.2763 -0.0328 -0.1312
18871TIP3    H178028   2.809   0.072   3.383  0.4438  1.6376  1.2872
18871TIP3    H278029   2.862  -0.069   3.396 -2.1429  0.3640 -0.9364
18872TIP3   OH278030   3.837   4.941   5.205  0.1759 -0.7833  0.4048
18872TIP3    H178031   3.762   4.993   5.175  0.4443  0.4181  1.6971
18872TIP3    H278032   3.846   4.963   5.298  0.7465 -2.6447  0.8391
18873TIP3   OH278033   3.159   2.348   0.763  0.1727 -0.1199 -0.5260
18873TIP3    H178034   3.178   2.387   0.678  0.7814  1.5623  0.3315
18873TIP3    H278035   3.164   2.253   0.748  1.6433  0.1525 -2.0383
18874TIP3   OH278036   5.317   4.145   5.354  0.7061  0.2807 -0.4594
18874TIP3    H178037   5.323   4.080   5.284 -0.8816 -2.2730  1.5889
18874TIP3    H278038   5.268   4.217   5.315  0.9208 -0.5028 -2.3041
18875TIP3   OH278039   0.398   5.071  15.513  0.7550  0.0738 -0.1335
18875TIP3    H178040   0.350   5.154  15.511 -0.4608 -0.6089 -0.7558
18875TIP3    H278041   0.485   5.093  15.481  0.3895  1.0650 -0.5038
18876TIP3   OH278042   3.477   4.145  14.950  0.1804  0.2946 -0.6983
18876TIP3    H178043   3.445   4.096  14.874  3.9282 -2.2130 -0.9290
18876TIP3    H278044   3.461   4.087  15.025 -1.4660  1.8050  0.2233
18877TIP3   OH278045   4.263   3.468   5.098 -0.0796 -0.4824  0.9670
18877TIP3    H178046   4.293   3.524   5.169 -1.0876 -1.1108  1.9131
18877TIP3    H278047   4.332   3.402   5.087  1.1823  0.9472 -0.2431
18878TIP3   OH278048   4.896   2.338  16.890 -0.1168  0.2392  0.1655
18878TIP3    H178049   4.935   2.280  16.956  1.2779  2.3090  1.2704
18878TIP3    H278050   4.970   2.362  16.834  0.4847  4.1920  2.2634
18879TIP3   OH278051   5.735   0.150  16.335  0.1004  0.2184 -0.3184
18879TIP3    H178052   5.714   0.192  16.419  0.1348 -0.6244  0.1196
18879TIP3    H278053   5.831   0.145  16.335  0.1249  0.6242 -0.6189
18880TIP3   OH278054   3.265   1.568  14.964 -0.2978 -0.0052  0.4060
18880TIP3    H178055   3.263   1.511  14.887  0.5293 -0.6637  0.8519
18880TIP3    H278056   3.356   1.597  14.970 -0.7235  1.4957  0.1187
18881TIP3   OH278057   6.086   1.554  10.366  0.2377  0.0961  0.4777
18881TIP3    H178058   6.075   1.648  10.375  1.1202  0.0641  2.3021
18881TIP3    H278059   6.162   1.533  10.420  0.3047 -1.6171 -0.2137
18882TIP3   OH278060   3.546   3.220  13.205 -0.0764  0.1762  0.3283
18882TIP3    H178061   3.495   3.271  13.143 -0.7746 -1.3725 -0.4219
18882TIP3    H278062   3.637   3.241  13.184 -0.3420  0.9912 -0.0460
18883TIP3   OH278063   6.514   6.757  14.476  0.0215 -0.0010 -0.0613
18883TIP3    H178064   6.436   6.755  14.531  0.7627  0.2674  1.0399
18883TIP3    H278065   6.488   6.713  14.395 -0.5930 -2.0356  1.1922
18884TIP3   OH278066   2.563   4.037  14.179 -0.0953 -0.1819 -0.2184
18884TIP3    H178067   2.561   3.941  14.182 -1.1890 -0.1416  1.9865
18884TIP3    H278068   2.641   4.058  14.127 -0.4564 -2.2376 -1.7152
18885TIP3   OH278069   1.913   4.331  16.535 -0.1529 -0.1320 -0.6984
18885TIP3    H178070   2.007   4.326  16.549  0.1885  2.7399 -1.3563
18885TIP3    H278071   1.896   4.271  16.461  0.9207 -1.4642  0.0920
18886TIP3   OH278072   1.473   4.684   3.998  0.2671 -0.5727  0.3214
18886TIP3    H178073   1.411   4.751   3.971 -0.6313 -1.1701  0.8226
18886TIP3    H278074   1.535   4.677   3.926 -0.7345 -0.5406 -0.5620
18887TIP3   OH278075   4.417   1.144   0.536  0.2729 -0.3037  0.3946
18887TIP3    H178076   4.353   1.205   0.573 -0.7354 -1.3317  0.4134
18887TIP3    H278077   4.449   1.094   0.611  0.8148 -0.0601  0.3303
18888TIP3   OH278078   6.093   5.609   1.903 -0.7289  0.6013 -0.5420
18888TIP3    H178079   6.007   5.568   1.911 -0.7402  0.7618  0.2374
18888TIP3    H278080   6.142   5.552   1.844 -0.2829 -1.3251  1.5332
18889TIP3   OH278081   6.083   6.065   1.848 -0.2412  0.4861 -0.3033
18889TIP3    H178082   6.136   6.144   1.856  1.0647 -0.2507 -1.3483
18889TIP3    H278083   6.145   5.995   1.829 -1.5299 -0.5135 -1.0519
18890TIP3   OH278084   1.600   1.338   1.944 -0.0213  0.6327 -0.0399
18890TIP3    H178085   1.649   1.419   1.931 -0.7184  1.1849  0.7154
18890TIP3    H278086   1.644   1.295   2.017  0.8332 -0.0756 -0.9351
18891TIP3   OH278087   2.890   5.392  12.508  0.3775  0.5018  0.4516
18891TIP3    H178088   2.937   5.465  12.468 -0.7228  1.4934  0.9276
18891TIP3    H278089   2.912   5.316  12.454 -0.1741  1.5918 -1.3515
18892TIP3   OH278090   2.840   3.953  10.538 -0.0688 -0.2032  0.6440
18892TIP3    H178091   2.862   3.904  10.617 -3.1569  0.7263  2.2295
18892TIP3    H278092   2.799   4.033  10.570 -0.1953  0.8598 -1.9159
18893TIP3   OH278093   2.798   3.393  14.536  0.0794  0.1161 -0.2302
18893TIP3    H178094   2.855   3.317  14.541 -0.1084  0.0414  1.6248
18893TIP3    H278095   2.711   3.360  14.557 -0.2200  0.6343 -0.6194
18894TIP3   OH278096   2.126   1.039   4.367  0.1363  0.1123  0.0987
18894TIP3    H178097   2.220   1.036   4.389 -0.3431 -0.4453  2.2638
18894TIP3    H278098   2.107   1.132   4.356  0.5859  0.3995  1.5058
18895TIP3   OH278099   1.150   3.990  13.953  0.1722  0.4322  0.2930
18895TIP3    H178100   1.125   3.960  14.040  0.5526 -2.0237 -0.3671
18895TIP3    H278101   1.072   3.976  13.899 -0.0091  1.7797  0.1614
18896TIP3   OH278102   1.628   2.892   2.556 -0.4529  0.3847  0.2885
18896TIP3    H178103   1.609   2.886   2.649  0.2564  0.8887  0.4745
18896TIP3    H278104   1.550   2.933   2.518 -0.4066  0.9403  0.7895
18897TIP3   OH278105   4.075   1.954  11.034  0.0280  0.0526 -0.5325
18897TIP3    H178106   3.979   1.960  11.028 -0.0862  1.5235  1.7072
18897TIP3    H278107   4.103   1.929  10.946 -2.4337 -0.8510 -1.1378
18898TIP3   OH278108   2.170   5.898  12.666  0.6657  0.6045 -0.3943
18898TIP3    H178109   2.213   5.840  12.729  0.1631  1.7620  1.0803
18898TIP3    H278110   2.187   5.986  12.699 -2.5816  1.1625  0.1686
18899TIP3   OH278111   5.644   2.649   0.289  0.2695 -0.0591  0.3388
18899TIP3    H178112   5.672   2.638   0.380 -1.5817 -1.4506  0.8023
18899TIP3    H278113   5.687   2.578   0.241  2.8228  1.8106 -0.3550
18900TIP3   OH278114   4.657   0.040   3.568  0.2455 -0.2618 -0.1435
18900TIP3    H178115   4.737   0.004   3.606  1.2820  1.2226 -0.8011
18900TIP3    H278116   4.680   0.131   3.546 -1.8426  0.4367  0.3132
18901TIP3   OH278117   6.245   2.604   6.323 -0.5697 -0.5382 -0.4766
18901TIP3    H178118   6.281   2.555   6.396  0.6714  1.8291  0.6203
18901TIP3    H278119   6.218   2.688   6.360 -0.0907  0.6790 -2.6646
18902TIP3   OH278120   4.556   5.855   0.258 -0.1704 -0.1935 -0.1076
18902TIP3    H178121   4.540   5.768   0.294  0.1569 -0.4782 -0.6292
18902TIP3    H278122   4.621   5.894   0.317 -1.3619  0.2598  0.9463
18903TIP3   OH278123   2.705   5.062  14.426 -0.3538  0.3642 -0.1161
18903TIP3    H178124   2.714   5.153  14.397 -3.3715  0.4254 -1.2571
18903TIP3    H278125   2.644   5.066  14.500 -1.2460 -0.7720 -0.7491
18904TIP3   OH278126   1.605   0.479   0.337  0.0487 -0.4048 -0.6591
18904TIP3    H178127   1.593   0.440   0.423 -0.2370 -0.1952 -0.6033
18904TIP3    H278128   1.690   0.522   0.342 -1.3195  2.3973  0.6120
18905TIP3   OH278129   1.557   5.996  13.433  0.0051  0.0704  0.0895
18905TIP3    H178130   1.580   6.078  13.476 -3.2570 -0.0047  2.3572
18905TIP3    H278131   1.481   6.017  13.379 -0.1277 -1.2278 -0.2618
18906TIP3   OH278132   3.295   4.469  14.160 -0.2772  0.2029  0.2816
18906TIP3    H178133   3.314   4.549  14.209 -0.9172  0.8580 -0.5116
18906TIP3    H278134   3.381   4.438  14.131 -0.1311  1.5731 -0.8738
18907TIP3   OH278135   1.451   6.500  13.687  0.2643  0.0705  0.0522
18907TIP3    H178136   1.454   6.410  13.717  2.8700  0.5372  1.4383
18907TIP3    H278137   1.432   6.551  13.766  0.4207  0.8522 -0.4038
18908TIP3   OH278138   3.742   2.671  13.667  0.6312  0.1459  0.1745
18908TIP3    H178139   3.761   2.761  13.692  2.1299 -0.3817  1.0461
18908TIP3    H278140   3.648   2.662  13.682  0.4552  1.5427  0.0988
18909TIP3   OH278141   1.052   1.076   2.372  0.5148 -0.4001 -0.0092
18909TIP3    H178142   1.042   1.163   2.335  0.1647  0.0999  1.1997
18909TIP3    H278143   1.011   1.082   2.458  0.0758 -1.8849 -0.0823
18910TIP3   OH278144   3.556   3.406   7.281 -0.3025  0.7702 -0.0707
18910TIP3    H178145   3.537   3.320   7.245 -0.6706  0.9746 -0.3686
18910TIP3    H278146   3.511   3.467   7.223 -2.5770  1.0303  1.8120
18911TIP3   OH278147   4.496   3.299   5.726 -0.3239 -0.2304 -0.5742
18911TIP3    H178148   4.462   3.293   5.815 -0.9537  0.8736 -0.7203
18911TIP3    H278149   4.586   3.267   5.731 -0.5648 -0.7820  0.3278
18912TIP3   OH278150   1.950   0.074  12.902  0.7195 -0.2809 -0.0798
18912TIP3    H178151   1.879   0.137  12.892 -1.0851 -2.3743 -1.3166
18912TIP3    H278152   2.009   0.093  12.829  0.5625  0.3973 -0.0400
18913TIP3   OH278153   4.013   3.497   4.281 -0.2055 -0.1493  0.1517
18913TIP3    H178154   3.974   3.416   4.315  0.3618 -0.1370  0.8757
18913TIP3    H278155   3.958   3.567   4.317  0.1814 -0.1543  0.7730
18914TIP3   OH278156   0.299   3.019  14.807 -0.0766 -0.3339  0.1235
18914TIP3    H178157   0.322   2.956  14.875 -1.8878  0.4250  1.5389
18914TIP3    H278158   0.379   3.031  14.756  1.5566 -0.4490  2.5254
18915TIP3   OH278159   2.107   4.719  16.901 -0.7166  0.7749  0.0275
18915TIP3    H178160   2.179   4.745  16.958 -0.0098  0.3986 -0.6716
18915TIP3    H278161   2.029   4.753  16.944 -0.0853  1.5721  0.5781
18916TIP3   OH278162   3.358   3.044   3.854 -0.4936  0.0521 -0.0675
18916TIP3    H178163   3.360   2.983   3.928  1.1373 -1.0847 -0.9939
18916TIP3    H278164   3.336   2.989   3.779  2.7240  0.1897 -1.2219
18917TIP3   OH278165   3.732   1.968  12.748  0.0713  0.2523 -0.5121
18917TIP3    H178166   3.683   1.958  12.667  2.5177 -1.0056 -1.9421
18917TIP3    H278167   3.778   2.051  12.739 -2.1505  1.7923  1.1399
18918TIP3   OH278168   1.736   6.320  15.566 -0.5156  0.5097  0.3711
18918TIP3    H178169   1.799   6.348  15.501 -1.0836  0.0451 -0.4084
18918TIP3    H278170   1.788   6.277  15.634 -0.1724 -4.0906 -2.4022
18919TIP3   OH278171   0.669   3.246   1.580  0.4190  0.0446  0.2241
18919TIP3    H178172   0.618   3.228   1.500  0.4311 -0.6432  0.3694
18919TIP3    H278173   0.712   3.330   1.562 -0.4415  0.4453 -0.0639
18920TIP3   OH278174   1.464   2.412  16.075  0.1984  0.0324  0.1787
18920TIP3    H178175   1.476   2.319  16.052  0.4644 -0.1211  0.8981
18920TIP3    H278176   1.503   2.460  16.003  0.4705 -0.4282  0.0152
18921TIP3   OH278177   3.885   4.675   5.032  0.0962  0.0447 -0.1661
18921TIP3    H178178   3.795   4.688   5.060 -0.3741 -1.7419 -0.7224
18921TIP3    H278179   3.938   4.703   5.106 -0.8102  2.7289 -0.4386
18922TIP3   OH278180   5.352   6.722  16.136 -0.3695 -0.7250  0.5065
18922TIP3    H178181   5.437   6.736  16.178 -1.1741 -0.4562  2.1083
18922TIP3    H278182   5.334   6.804  16.090  0.8349 -1.2684 -1.0254
18923TIP3   OH278183   1.415   5.472   4.716 -0.2080 -0.2339  0.8658
18923TIP3    H178184   1.406   5.544   4.778  0.1037  0.0860  0.5447
18923TIP3    H278185   1.506   5.476   4.687 -0.4120 -0.2200  0.1976
18924TIP3   OH278186   0.548   1.167  11.231 -0.5839  0.9020 -0.1999
18924TIP3    H178187   0.642   1.156  11.220 -0.3003  0.7109  1.9857
18924TIP3    H278188   0.511   1.081  11.212  0.0759  0.0333  2.0768
18925TIP3   OH278189   3.978   6.269   1.694 -0.4407  0.5371 -1.2977
18925TIP3    H178190   3.992   6.174   1.698  0.3758  0.6099 -2.1667
18925TIP3    H278191   3.920   6.288   1.768 -0.6153 -0.6395 -1.1205
18926TIP3   OH278192   2.148   5.219  16.839  0.5741 -0.0570 -0.3188
18926TIP3    H178193   2.094   5.265  16.775  0.2661 -1.2338 -0.9335
18926TIP3    H278194   2.231   5.205  16.794  0.7183  0.0392 -0.0808
18927TIP3   OH278195   0.868   1.852   4.509 -0.0076  0.3036 -0.2712
18927TIP3    H178196   0.869   1.917   4.439  1.0379  1.4633  0.7677
18927TIP3    H278197   0.807   1.785   4.478  0.2727  0.8552 -2.1934
18928TIP3   OH278198   5.885   5.484  13.927  0.1269 -0.2390 -0.3597
18928TIP3    H178199   5.936   5.443  13.856 -0.4141 -0.5717 -0.5616
18928TIP3    H278200   5.810   5.426  13.939 -0.0550  0.0941  0.1398
18929TIP3   OH278201   1.258   2.124  12.766  0.0487 -0.3027  0.2992
18929TIP3    H178202   1.318   2.083  12.828  0.1625 -1.7053 -0.6864
18929TIP3    H278203   1.176   2.076  12.776 -0.8969  1.4436  1.4659
18930TIP3   OH278204   6.525   2.533  13.467 -0.5101 -0.0902 -0.1467
18930TIP3    H178205   6.539   2.627  13.462  0.0380 -0.0509  1.6062
18930TIP3    H278206   6.463   2.521  13.539  0.5905 -1.1447  0.6700
18931TIP3   OH278207   2.556   2.635  15.543  0.3435  0.1474  0.0051
18931TIP3    H178208   2.524   2.545  15.547 -0.3328  0.3628 -0.4515
18931TIP3    H278209   2.542   2.669  15.631  2.1202 -0.6874  0.6625
18932TIP3   OH278210   2.014   5.511   0.940 -0.3151  0.1459 -0.1447
18932TIP3    H178211   2.056   5.593   0.967  0.9541  0.0077 -1.6216
18932TIP3    H278212   2.046   5.446   1.003 -0.6676  0.5894  0.5150
18933TIP3   OH278213   0.105   0.439   5.573 -0.5186  0.0737 -0.0131
18933TIP3    H178214   0.043   0.371   5.545  0.1278 -0.8982  0.8331
18933TIP3    H278215   0.181   0.426   5.516  0.0418 -0.6674  0.8617
18934TIP3   OH278216   4.069   6.638  13.842  0.5598 -0.2417  0.1698
18934TIP3    H178217   4.031   6.715  13.800  0.1863 -1.0589 -1.0534
18934TIP3    H278218   3.994   6.582  13.862  1.0371 -1.8277 -2.1784
18935TIP3   OH278219   3.031   5.075   3.361 -0.1507  0.5326  0.4867
18935TIP3    H178220   3.020   5.023   3.282  2.2665  1.7929 -0.7859
18935TIP3    H278221   3.099   5.028   3.411  0.1787  1.0892  0.5662
18936TIP3   OH278222   2.509   0.162   0.229  0.3097 -0.3530  0.3534
18936TIP3    H178223   2.516   0.255   0.251  4.6097 -0.4592  0.2404
18936TIP3    H278224   2.600   0.132   0.222 -0.8637 -4.0451 -1.9234
18937TIP3   OH278225   2.649   6.768   5.143 -0.3895 -0.5989 -0.0709
18937TIP3    H178226   2.561   6.800   5.159  0.4463  0.9688  1.7846
18937TIP3    H278227   2.706   6.842   5.163  1.4650 -2.1663  0.8890
18938TIP3   OH278228   4.269   4.912   4.942 -0.0704 -0.2069 -0.2829
18938TIP3    H178229   4.196   4.927   5.002 -0.3974 -0.3178 -0.6495
18938TIP3    H278230   4.346   4.910   4.999 -0.3944 -0.5121  0.1551
18939TIP3   OH278231   2.195   1.247   5.096 -0.1219  0.0307  0.0725
18939TIP3    H178232   2.260   1.189   5.135 -0.0665 -0.0224 -0.0963
18939TIP3    H278233   2.245   1.320   5.061 -0.1983  0.2126  0.3426
18940TIP3   OH278234   4.115   6.108  14.714  0.0030 -0.1014  1.1405
18940TIP3    H178235   4.174   6.174  14.751  0.2776  0.6107 -0.4943
18940TIP3    H278236   4.104   6.044  14.784  1.0383  0.8383  2.2040
18941TIP3   OH278237   6.208   5.007  10.525 -0.0486  0.2584 -0.8172
18941TIP3    H178238   6.212   4.937  10.460  0.2973 -1.3166  0.8088
18941TIP3    H278239   6.299   5.021  10.552 -0.3459 -0.7610  0.9132
18942TIP3   OH278240   0.629   4.546   3.209  0.0329 -0.1581 -0.1772
18942TIP3    H178241   0.558   4.591   3.163  0.6109  0.5501 -0.3966
18942TIP3    H278242   0.652   4.472   3.152  0.0957  0.1555 -0.5625
18943TIP3   OH278243   5.456   3.277  14.947  0.2822  0.1972 -0.2154
18943TIP3    H178244   5.528   3.214  14.956  0.8325  0.6936 -1.0458
18943TIP3    H278245   5.383   3.225  14.914  0.5541 -0.1222 -0.3210
18944TIP3   OH278246   4.339   3.739   1.683  0.2675 -0.6968 -0.0618
18944TIP3    H178247   4.294   3.781   1.756  2.2842  0.4626  0.5830
18944TIP3    H278248   4.354   3.809   1.620  1.7638 -0.8816  0.0600
18945TIP3   OH278249   6.265   1.891   1.746 -0.2259  0.2706 -0.0003
18945TIP3    H178250   6.176   1.856   1.754 -0.6686  1.1659 -0.8380
18945TIP3    H278251   6.278   1.905   1.653  0.2713  1.4412  0.2200
18946TIP3   OH278252   0.947   4.390   4.928 -0.2825 -0.5832  0.0422
18946TIP3    H178253   0.922   4.374   4.837  1.0505 -0.9584 -0.2907
18946TIP3    H278254   1.004   4.467   4.924 -0.2242 -0.5959  0.5538
18947TIP3   OH278255   0.925   2.896   2.808  0.1770 -0.5022  0.4632
18947TIP3    H178256   1.021   2.894   2.804  0.3984  0.9085  2.9818
18947TIP3    H278257   0.900   2.809   2.838  0.4130 -1.6558 -2.3793
18948TIP3   OH278258   0.894   5.976   4.937 -0.3494 -0.4279  0.0256
18948TIP3    H178259   0.859   5.894   4.973 -0.8271 -0.8517 -1.3334
18948TIP3    H278260   0.977   5.952   4.897 -0.3786 -0.2166 -0.1700
18949TIP3   OH278261   2.799   1.660  11.075  0.1800  0.3378 -0.2104
18949TIP3    H178262   2.801   1.701  10.988 -2.5691 -1.6836 -1.3735
18949TIP3    H278263   2.742   1.716  11.127  0.0324  0.3972 -0.4319
18950TIP3   OH278264   4.481   1.719  12.673  0.2783  0.0285 -0.0576
18950TIP3    H178265   4.465   1.811  12.649  0.0418  0.5241  1.8730
18950TIP3    H278266   4.570   1.719  12.706  0.3919 -0.5218 -0.3596
18951TIP3   OH278267   3.867   2.834  11.869  0.1977 -0.7388  0.1684
18951TIP3    H178268   3.870   2.747  11.907  1.0759  0.1187  2.1768
18951TIP3    H278269   3.826   2.889  11.936 -0.0838  0.4543 -0.9303
18952TIP3   OH278270   5.421   3.772   0.624  0.0175 -0.1086 -0.0967
18952TIP3    H178271   5.478   3.845   0.597 -0.1084  0.9746  2.2879
18952TIP3    H278272   5.341   3.784   0.571 -0.0751  1.6292  0.3557
18953TIP3   OH278273   3.483   4.031   5.244  0.0701 -0.1096  0.1756
18953TIP3    H178274   3.399   3.999   5.211  0.6350 -0.5280 -0.9165
18953TIP3    H278275   3.478   4.126   5.231 -0.3138 -0.1070  0.3152
18954TIP3   OH278276   0.594   3.361   1.987 -0.7133  0.2392 -0.2722
18954TIP3    H178277   0.526   3.374   1.921 -1.6035 -0.7485  0.4137
18954TIP3    H278278   0.548   3.324   2.062  0.5821 -0.4346  0.2292
18955TIP3   OH278279   4.629   0.301   5.244 -0.2295 -0.5302  0.5897
18955TIP3    H178280   4.558   0.237   5.241  0.5974 -1.4554 -1.1541
18955TIP3    H278281   4.653   0.307   5.336 -2.6830 -0.0250  1.2455
18956TIP3   OH278282   5.424   5.059   1.208  0.3884  0.5851 -0.1558
18956TIP3    H178283   5.463   5.092   1.127  1.4577  1.3155  0.6333
18956TIP3    H278284   5.338   5.026   1.181  0.2647  1.8155 -1.3894
18957TIP3   OH278285   0.924   6.802   0.230 -0.0023 -1.0872 -0.3343
18957TIP3    H178286   0.837   6.792   0.268 -0.1130  0.0334 -0.2543
18957TIP3    H278287   0.946   6.894   0.244  0.5713 -0.9869 -1.6656
18958TIP3   OH278288   0.514   1.076  15.024  0.3800 -0.2795  0.4893
18958TIP3    H178289   0.449   1.107  15.086  0.0434  0.4817 -0.2267
18958TIP3    H278290   0.552   0.998  15.066 -0.2487 -0.1285  1.3701
18959TIP3   OH278291   4.224   4.367   4.435  0.1482 -0.0034 -0.5981
18959TIP3    H178292   4.245   4.312   4.358  1.0483  1.4534 -1.4388
18959TIP3    H278293   4.240   4.309   4.510 -0.3615 -1.3477 -1.4810
18960TIP3   OH278294   3.160   1.062  13.181  0.2062  0.0649 -0.5606
18960TIP3    H178295   3.103   0.995  13.218 -0.5199  0.5551 -0.7682
18960TIP3    H278296   3.127   1.076  13.092 -1.9856  3.1941  0.5715
18961TIP3   OH278297   1.489   4.463  12.401 -0.3158  0.3359 -0.4160
18961TIP3    H178298   1.486   4.376  12.442 -1.5094  0.3374 -0.4682
18961TIP3    H278299   1.429   4.516  12.452 -1.1604  0.5717 -1.5988
18962TIP3   OH278300   0.608   0.211   2.345  0.3924  0.5169  0.5260
18962TIP3    H178301   0.548   0.218   2.420  1.5137 -0.7998  1.6025
18962TIP3    H278302   0.562   0.157   2.282  0.0286  0.3842  0.8991
18963TIP3   OH278303   4.311   5.412  16.736  0.1705  0.5289 -0.3343
18963TIP3    H178304   4.229   5.375  16.768 -0.7009  2.0026 -0.7573
18963TIP3    H278305   4.343   5.467  16.808  0.5039  0.3911 -0.3745
18964TIP3   OH278306   3.330   3.358   2.838  0.6729 -0.0175 -0.3825
18964TIP3    H178307   3.419   3.394   2.828  0.3397  0.5967 -1.2736
18964TIP3    H278308   3.325   3.290   2.770  0.9041 -0.9782  0.5385
18965TIP3   OH278309   5.831   5.275  11.212 -0.5693 -0.1033 -0.5466
18965TIP3    H178310   5.877   5.263  11.295 -2.5729  0.6063  0.7365
18965TIP3    H278311   5.901   5.286  11.147  1.0633  0.9257  1.2864
18966TIP3   OH278312   2.364   4.539   2.729 -0.0777  0.2247  0.3285
18966TIP3    H178313   2.274   4.509   2.724 -0.2645  0.6711  0.8861
18966TIP3    H278314   2.379   4.586   2.647  0.1107 -1.0640 -0.4072
18967TIP3   OH278315   6.397   2.663   0.054  0.2364 -0.7580  0.7964
18967TIP3    H178316   6.430   2.589   0.003 -1.6517  0.0826 -1.8446
18967TIP3    H278317   6.321   2.627   0.101 -0.7145 -0.5497 -0.5294
18968TIP3   OH278318   2.441   1.922   5.941  0.2936  0.6360  0.2646
18968TIP3    H178319   2.449   1.828   5.957  1.2496  0.4017 -1.3615
18968TIP3    H278320   2.404   1.957   6.022 -0.9045 -1.2535  0.6000
18969TIP3   OH278321   0.840   6.141  12.275  0.1719 -0.6370 -0.0143
18969TIP3    H178322   0.848   6.073  12.209 -0.0245 -0.2577 -0.4308
18969TIP3    H278323   0.852   6.223  12.228  1.9174 -0.4192  0.7250
18970TIP3   OH278324   4.703   2.847  14.973  0.4212 -0.5358 -0.0209
18970TIP3    H178325   4.708   2.760  15.012  1.5189  0.4876  2.3272
18970TIP3    H278326   4.615   2.877  14.994  1.2878  0.3777  2.7912
18971TIP3   OH278327   0.563   2.967  13.781 -0.3637 -0.0161  0.0431
18971TIP3    H178328   0.601   3.047  13.818  0.2667 -0.5481  0.5660
18971TIP3    H278329   0.612   2.896  13.822 -0.9392 -0.6769 -0.3959
18972TIP3   OH278330   3.064   6.579   0.360  0.0231 -0.2740 -0.3550
18972TIP3    H178331   3.124   6.592   0.287  2.7665 -0.9597  1.6111
18972TIP3    H278332   3.114   6.607   0.437 -2.5038 -0.1744  1.3566
18973TIP3   OH278333   4.934   2.926  13.959  0.4526 -0.5912  0.6135
18973TIP3    H178334   5.027   2.950  13.957  0.7986 -1.9185 -0.6486
18973TIP3    H278335   4.889   3.003  13.923  1.2543 -0.6297 -0.5158
18974TIP3   OH278336   2.306   2.384  14.220 -0.0824 -0.5891  0.1995
18974TIP3    H178337   2.237   2.327  14.254 -0.7417  0.2670  0.3067
18974TIP3    H278338   2.263   2.440  14.156  0.3635  0.4205  0.7648
18975TIP3   OH278339   1.403   0.193  16.018 -0.9022 -0.0442  0.0354
18975TIP3    H178340   1.457   0.120  15.987 -1.4389 -0.4496  0.0528
18975TIP3    H278341   1.386   0.172  16.110  1.5533  1.6552  1.0051
18976TIP3   OH278342   4.601   2.125   0.655 -0.4601 -0.4687 -0.0991
18976TIP3    H178343   4.591   2.169   0.739  0.1528  0.1845 -0.3644
18976TIP3    H278344   4.632   2.037   0.678  0.4305 -0.0604  0.3426
18977TIP3   OH278345   5.473   4.069   4.867  0.5305 -0.1959  0.5395
18977TIP3    H178346   5.484   4.158   4.832  0.4035 -0.2669  0.3160
18977TIP3    H278347   5.452   4.083   4.960 -1.6454  0.1271  0.0770
18978TIP3   OH278348   2.687   3.156  11.734 -0.0789 -0.2754 -0.0491
18978TIP3    H178349   2.725   3.072  11.761  0.4673  0.0581  0.2419
18978TIP3    H278350   2.760   3.204  11.695 -1.1224 -1.3022 -3.6629
18979TIP3   OH278351   3.860   2.233   4.419  0.3349 -0.0643 -0.7927
18979TIP3    H178352   3.802   2.308   4.430 -0.8396 -0.9611 -0.6422
18979TIP3    H278353   3.907   2.227   4.501 -1.0273 -0.6643 -0.0167
18980TIP3   OH278354   2.197   2.976   0.909 -0.5662 -0.3998  0.4034
18980TIP3    H178355   2.114   2.966   0.955 -0.6900 -1.5266 -0.0282
18980TIP3    H278356   2.238   2.890   0.915 -0.3438 -0.4239 -1.1015
18981TIP3   OH278357   0.360   0.031  12.891 -0.2564 -0.5739  0.0288
18981TIP3    H178358   0.314   0.004  12.970  0.3049 -0.4683  0.4012
18981TIP3    H278359   0.396  -0.050  12.855  1.1438 -0.4012  0.9635
18982TIP3   OH278360   2.525   6.140   1.606 -0.2487  0.5111  0.0096
18982TIP3    H178361   2.472   6.067   1.638  0.2298  0.0017 -0.3359
18982TIP3    H278362   2.613   6.121   1.637  0.4974 -0.6447 -2.5299
18983TIP3   OH278363   2.855   1.577   0.329  0.2530  0.1967 -0.0348
18983TIP3    H178364   2.832   1.592   0.237  0.4728 -1.0731 -0.3260
18983TIP3    H278365   2.928   1.636   0.346  0.2945  0.3495 -0.7230
18984TIP3   OH278366   6.300   2.869   5.316  0.0865  0.8251  0.0612
18984TIP3    H178367   6.221   2.858   5.264  0.3455  1.2830 -0.4397
18984TIP3    H278368   6.343   2.783   5.313  1.3099  1.4310 -2.5125
18985TIP3   OH278369   5.847   0.056  14.764 -0.1966  0.0941  0.1952
18985TIP3    H178370   5.854  -0.032  14.802 -0.5432  0.4961  1.2244
18985TIP3    H278371   5.777   0.098  14.814 -0.7317  0.6234 -0.9626
18986TIP3   OH278372   2.692   0.429   5.661  0.1886 -0.2662  0.0673
18986TIP3    H178373   2.684   0.404   5.753  0.1559  1.2355  0.5137
18986TIP3    H278374   2.658   0.354   5.612 -2.1807 -0.1653  1.3752
18987TIP3   OH278375   0.205   1.334  14.412  0.4087 -0.5074 -0.0053
18987TIP3    H178376   0.170   1.401  14.471  0.0901  0.3759 -1.1553
18987TIP3    H278377   0.299   1.352  14.408  0.3586 -0.2740 -0.1322
18988TIP3   OH278378   2.773   5.289  10.684 -0.1560 -0.1237 -0.0035
18988TIP3    H178379   2.803   5.198  10.686  0.4743 -0.0906 -3.0309
18988TIP3    H278380   2.849   5.339  10.655 -1.3355  0.8833 -1.5225
18989TIP3   OH278381   3.682   5.179  11.773  0.0932  0.0980 -0.2824
18989TIP3    H178382   3.652   5.215  11.857  0.3632  3.4777 -1.4779
18989TIP3    H278383   3.603   5.149  11.730 -0.3837  0.6247  0.2125
18990TIP3   OH278384   6.775   0.015  13.250  0.0264  0.0898  0.3212
18990TIP3    H178385   6.777   0.098  13.203  3.5426  0.0782  0.2010
18990TIP3    H278386   6.723  -0.043  13.195  1.1632  1.0372 -1.8725
18991TIP3   OH278387   6.695   1.302   0.584  0.1896  0.1142  0.0190
18991TIP3    H178388   6.697   1.216   0.542 -0.2441 -0.2370  0.6898
18991TIP3    H278389   6.741   1.289   0.667  0.8697  0.7509 -0.2379
18992TIP3   OH278390   5.278   4.801   0.884 -0.1736  0.0792 -0.4344
18992TIP3    H178391   5.203   4.777   0.939 -1.2075  0.1642 -1.7424
18992TIP3    H278392   5.238   4.843   0.808  0.9816 -2.2619 -2.4673
18993TIP3   OH278393   4.720   2.465   3.336  0.0848  0.1641  0.7046
18993TIP3    H178394   4.756   2.384   3.374  1.2327  0.4421  0.2553
18993TIP3    H278395   4.743   2.533   3.399  1.2071  0.4854 -0.0121
18994TIP3   OH278396   1.008   2.956   4.035  0.0189  0.1619 -0.2688
18994TIP3    H178397   0.970   2.954   4.123 -0.0470 -0.0733 -0.3010
18994TIP3    H278398   1.078   2.890   4.038  0.2832  0.4390 -0.2732
18995TIP3   OH278399   1.051   6.032   2.145 -0.1319 -0.0809  0.1059
18995TIP3    H178400   1.085   5.977   2.075 -1.0808 -2.0024  1.0924
18995TIP3    H278401   1.129   6.078   2.178  0.7077 -0.8849 -0.6925
18996TIP3   OH278402   1.587   6.541  15.314  0.1350 -0.2633  0.4265
18996TIP3    H178403   1.584   6.636  15.306  1.0171 -0.0154  2.4812
18996TIP3    H278404   1.524   6.521  15.382  0.4309 -1.0965  0.4670
18997TIP3   OH278405   4.119   6.445   3.878  0.2582  0.0106 -0.1979
18997TIP3    H178406   4.144   6.472   3.790 -0.3206 -0.3275 -0.4750
18997TIP3    H278407   4.181   6.375   3.899 -0.3695 -0.7691 -0.8475
18998TIP3   OH278408   1.304   6.541   1.080  0.8752 -0.3098 -0.1001
18998TIP3    H178409   1.328   6.464   1.131  0.5182 -1.2693 -1.3381
18998TIP3    H278410   1.294   6.611   1.145 -1.2269 -1.8503  1.3787
18999TIP3   OH278411   3.245   4.701   4.771  0.2335  0.1632 -0.3649
18999TIP3    H178412   3.193   4.686   4.850 -1.3999  1.5709 -1.1259
18999TIP3    H278413   3.301   4.624   4.765  0.3373 -0.0396  2.0968
19000TIP3   OH278414   4.718   0.304   2.773 -0.7978  0.2037  0.2508
19000TIP3    H178415   4.702   0.212   2.795 -1.0348  0.4338  1.0826
19000TIP3    H278416   4.659   0.353   2.830 -1.4057  0.8479 -0.8882
19001TIP3   OH278417   1.793   2.594   3.645  0.1047 -0.5171  0.2077
19001TIP3    H178418   1.837   2.546   3.715  1.2297  0.8519  0.4849
19001TIP3    H278419   1.819   2.685   3.658 -0.3912 -0.1027 -1.4466
19002TIP3   OH278420   2.521   3.695  15.232 -0.2289  0.2375 -0.4013
19002TIP3    H178421   2.563   3.762  15.177 -0.2695  0.7504  0.1841
19002TIP3    H278422   2.593   3.639  15.260 -0.0013  0.8047  0.1670
19003TIP3   OH278423   5.253   1.195  13.939  0.0295  0.2557 -0.0025
19003TIP3    H178424   5.289   1.108  13.923 -0.2150 -0.0022  0.8002
19003TIP3    H278425   5.313   1.235  14.002 -1.3155 -0.3767  1.7666
19004TIP3   OH278426   6.434   1.733   5.508 -0.0254  0.4864 -0.0751
19004TIP3    H178427   6.403   1.644   5.490  0.0613  0.7632 -1.7516
19004TIP3    H278428   6.475   1.727   5.594 -3.3695 -0.2314  1.6361
19005TIP3   OH278429   0.045   1.242   2.283 -0.1276  0.0949  0.4957
19005TIP3    H178430   0.100   1.262   2.207 -0.3280 -0.0793  0.3027
19005TIP3    H278431  -0.034   1.293   2.270 -0.6110 -0.7464  0.0363
19006TIP3   OH278432   3.374   5.541   5.914  0.8439  0.1468  0.4791
19006TIP3    H178433   3.315   5.616   5.904  1.6946  0.7505 -0.2144
19006TIP3    H278434   3.404   5.546   6.005 -0.9141 -0.7694  1.1692
19007TIP3   OH278435   3.201   3.383   0.331  0.1785  0.2307 -0.1089
19007TIP3    H178436   3.137   3.357   0.265 -0.7431 -0.8993  1.1525
19007TIP3    H278437   3.176   3.472   0.355 -0.3500  0.1406 -0.3049
19008TIP3   OH278438   4.807   4.050   1.936  0.6146  0.1940 -0.1938
19008TIP3    H178439   4.713   4.040   1.947  0.8520 -0.3666  1.7792
19008TIP3    H278440   4.826   4.013   1.850 -1.1264  1.6075 -1.2228
19009TIP3   OH278441   5.752   6.090  14.266  0.8386 -0.2912 -0.0958
19009TIP3    H178442   5.830   6.087  14.211  0.4629 -1.6808 -0.5774
19009TIP3    H278443   5.753   6.008  14.315  1.3912  1.0598  2.3521
19010TIP3   OH278444   5.042   1.361  12.258 -0.1308  0.2110 -0.0096
19010TIP3    H178445   5.000   1.279  12.284 -0.2870 -0.2059 -1.5043
19010TIP3    H278446   5.085   1.392  12.337 -0.4773 -1.0601  0.7004
19011TIP3   OH278447   0.878   4.086  16.678  0.3177  0.3382  0.3283
19011TIP3    H178448   0.847   3.998  16.658  0.1603  0.6087 -0.6523
19011TIP3    H278449   0.799   4.134  16.703  0.4114  0.1916  0.9183
19012TIP3   OH278450   1.497   2.862   2.839 -0.1462  0.0262  0.2020
19012TIP3    H178451   1.502   2.938   2.897 -0.6901 -1.8372  2.9024
19012TIP3    H278452   1.576   2.811   2.860  0.1112 -0.2727 -1.4034
19013TIP3   OH278453   6.742   5.679   2.331 -0.2182 -0.6075  0.2211
19013TIP3    H178454   6.832   5.709   2.349 -0.1303 -1.6434  1.7183
19013TIP3    H278455   6.695   5.759   2.307  0.7425  0.2130  0.9567
19014TIP3   OH278456   3.374   6.094  15.566 -0.3319  0.0475  0.1610
19014TIP3    H178457   3.374   6.103  15.662 -0.9821 -1.0598  0.2879
19014TIP3    H278458   3.336   6.008  15.551  1.4108 -0.5432 -1.0545
19015TIP3   OH278459   5.620   2.861   5.042 -0.3994 -0.0322 -0.4628
19015TIP3    H178460   5.527   2.880   5.030 -0.3172  0.8953  0.3057
19015TIP3    H278461   5.661   2.946   5.054  0.4399 -0.4840 -0.0170
19016TIP3   OH278462   1.761   6.022  16.969  0.1257  0.6207 -0.6816
19016TIP3    H178463   1.762   5.927  16.978  3.3180  0.5547 -0.8490
19016TIP3    H278464   1.762   6.055  17.059  0.3878  0.4714 -0.6304
19017TIP3   OH278465   3.118   4.943  15.901 -0.3605  0.1894 -0.2717
19017TIP3    H178466   3.187   5.007  15.885  0.3050 -0.6327 -0.8039
19017TIP3    H278467   3.164   4.860  15.914 -1.2507 -0.4888 -1.1838
19018TIP3   OH278468   3.835   2.760   0.388  0.3443  0.5480  0.3893
19018TIP3    H178469   3.929   2.753   0.407  0.7077  0.1040 -1.3677
19018TIP3    H278470   3.808   2.670   0.368 -0.4021  0.7071  0.6724
19019TIP3   OH278471   5.659   4.316  15.884 -0.1203  0.4199  0.1521
19019TIP3    H178472   5.674   4.224  15.860  0.9303  0.7171 -0.4113
19019TIP3    H278473   5.747   4.355  15.884 -0.4089  1.1521  1.5848
19020TIP3   OH278474   4.422   5.861  16.316  0.2196 -0.3532  0.4175
19020TIP3    H178475   4.475   5.840  16.240  0.3976 -1.7659  0.9094
19020TIP3    H278476   4.333   5.839  16.291 -0.0564  1.2746 -0.1326
19021TIP3   OH278477   1.107   1.370   0.519 -0.1057  0.0879  0.2893
19021TIP3    H178478   1.018   1.375   0.553 -0.9536 -2.3250 -1.3022
19021TIP3    H278479   1.117   1.280   0.490  2.0212  0.8666 -1.7964
19022TIP3   OH278480   4.964   4.755   5.058  0.6196 -0.1277  0.7517
19022TIP3    H178481   4.899   4.794   5.000  0.6159  0.2343  0.9942
19022TIP3    H278482   5.028   4.825   5.072  0.0130  0.1967  2.1150
19023TIP3   OH278483   1.182   1.406  12.152  0.2132  0.5042 -0.6646
19023TIP3    H178484   1.251   1.421  12.217  1.6147 -1.0801 -1.6799
19023TIP3    H278485   1.189   1.313  12.132 -0.7906  0.7619 -2.3996
19024TIP3   OH278486   2.715   4.053  12.961  0.3390  0.0738  0.3926
19024TIP3    H178487   2.666   4.046  13.043 -0.4972 -1.3047 -0.1908
19024TIP3    H278488   2.799   4.011  12.980  0.8070  1.2172  0.9899
19025TIP3   OH278489   3.765   0.355   1.595 -0.0487  0.4550 -1.0890
19025TIP3    H178490   3.725   0.292   1.535  2.1826 -1.8085 -0.3940
19025TIP3    H278491   3.809   0.418   1.538 -2.5693  1.6751 -1.8071
19026TIP3   OH278492   6.649   4.330  13.635 -0.2517 -0.2655 -0.5502
19026TIP3    H178493   6.563   4.363  13.658 -0.5402 -1.2781 -0.1119
19026TIP3    H278494   6.635   4.236  13.618  1.0015 -0.7880  1.0068
19027TIP3   OH278495   0.114   0.780   0.400  0.3516 -0.0003 -0.4137
19027TIP3    H178496   0.207   0.767   0.420  0.0929 -0.9832  0.2271
19027TIP3    H278497   0.112   0.797   0.306  1.0933 -1.0688 -0.6439
19028TIP3   OH278498   0.302   2.297  16.232  0.6216  0.4749 -0.4328
19028TIP3    H178499   0.284   2.252  16.149  2.7774  1.0778 -1.3101
19028TIP3    H278500   0.345   2.379  16.205 -0.6343  1.7431  1.2325
19029TIP3   OH278501   4.775   4.593  14.580 -0.4567 -0.1801 -0.1078
19029TIP3    H178502   4.852   4.574  14.633 -0.2074 -0.2782 -0.5038
19029TIP3    H278503   4.721   4.514  14.587 -1.1680  0.3894  1.2673
19030TIP3   OH278504   1.343   5.245   1.425  0.1471  0.4687 -0.8752
19030TIP3    H178505   1.382   5.295   1.353  2.0744 -1.3655 -1.2163
19030TIP3    H278506   1.406   5.254   1.497 -0.8785  0.8273  0.0023
19031TIP3   OH278507   3.018   5.813  15.895  0.3141 -0.1274  0.1830
19031TIP3    H178508   3.004   5.837  15.987 -0.3697  0.5554 -0.0905
19031TIP3    H278509   3.113   5.812  15.885  0.3892  1.3766  0.5031
19032TIP3   OH278510   5.361   0.302  12.256  0.7647 -0.0365 -0.1136
19032TIP3    H178511   5.382   0.242  12.185  1.0309 -0.2520  0.1458
19032TIP3    H278512   5.416   0.273  12.329  2.9488  2.1643 -0.7534
19033TIP3   OH278513   2.672   5.438  14.196 -0.7553  0.0903 -0.2174
19033TIP3    H178514   2.656   5.378  14.123  0.4236 -0.9503  0.3415
19033TIP3    H278515   2.594   5.428  14.251 -0.5607 -0.9856 -0.1111
19034TIP3   OH278516   2.836   0.154   5.270 -0.0824  0.0988  0.5151
19034TIP3    H178517   2.904   0.216   5.243 -0.8354  0.3854 -0.8251
19034TIP3    H278518   2.881   0.090   5.325  0.9576  1.1366  0.9047
19035TIP3   OH278519   5.952   1.670   4.005 -0.6082  0.0400  0.3009
19035TIP3    H178520   6.035   1.630   3.980 -0.9998 -1.1455  0.8292
19035TIP3    H278521   5.897   1.663   3.926 -0.6933 -0.5207  0.4095
19036TIP3   OH278522   3.864   5.044  12.727  0.7171  0.4614 -0.2063
19036TIP3    H178523   3.770   5.052  12.744  0.8212  0.2149  0.5067
19036TIP3    H278524   3.903   5.029  12.813  1.0670 -2.7901 -0.8224
19037TIP3   OH278525   4.908   0.052   4.417 -0.0645 -0.7310  0.1927
19037TIP3    H178526   4.991   0.037   4.464 -0.5242 -1.0206  0.9435
19037TIP3    H278527   4.907   0.145   4.398  1.1350 -0.9698 -1.1947
19038TIP3   OH278528   0.351   6.072   4.699 -0.0390  0.6578 -0.4146
19038TIP3    H178529   0.343   6.146   4.759 -0.6397 -0.7854  1.4149
19038TIP3    H278530   0.318   5.997   4.750 -1.1939 -0.5585 -2.8055
19039TIP3   OH278531   3.252   3.219   5.108 -0.1033  0.2212 -0.2530
19039TIP3    H178532   3.208   3.295   5.145 -1.5956  0.9147 -3.1562
19039TIP3    H278533   3.186   3.150   5.109 -0.6220  0.6040 -2.5348
19040TIP3   OH278534   6.610   5.265   4.995 -0.1687  0.3539 -0.2355
19040TIP3    H178535   6.522   5.293   5.021  0.4593  1.1395  1.0995
19040TIP3    H278536   6.605   5.169   4.994 -0.9336  0.3814  0.1990
19041TIP3   OH278537   5.496   0.707  14.985  0.0365 -0.3699  0.3365
19041TIP3    H178538   5.409   0.666  14.982 -0.4651  0.4444  2.1609
19041TIP3    H278539   5.541   0.673  14.908 -2.5070  0.6082 -1.7266
19042TIP3   OH278540   2.907   5.402   2.452 -0.0179  0.6609 -0.2738
19042TIP3    H178541   2.846   5.379   2.522  1.1946  0.2307  0.6575
19042TIP3    H278542   2.850   5.424   2.378 -1.3058  0.2230  0.5514
19043TIP3   OH278543   5.880   5.947  12.845  0.3508  0.0869  0.2694
19043TIP3    H178544   5.937   6.006  12.796  1.0577 -1.2470 -0.5807
19043TIP3    H278545   5.831   5.900  12.778 -0.2463 -0.2469  0.9256
19044TIP3   OH278546   2.864   4.204   0.440  0.7467 -0.5168 -0.5177
19044TIP3    H178547   2.950   4.246   0.444  0.4996  0.0467 -1.0757
19044TIP3    H278548   2.819   4.247   0.368  0.0091 -0.8447 -0.2646
19045TIP3   OH278549   2.029   6.432   0.686 -0.2323 -0.0315  0.4644
19045TIP3    H178550   1.934   6.436   0.683 -0.2502 -0.9210 -0.7823
19045TIP3    H278551   2.059   6.520   0.662 -0.7314 -0.5797 -2.4503
19046TIP3   OH278552   1.252   4.634   0.308  0.1885 -0.3207  0.3975
19046TIP3    H178553   1.177   4.611   0.253 -0.2406 -1.9687  1.6083
19046TIP3    H278554   1.216   4.639   0.397  1.0747  1.2499  0.7122
19047TIP3   OH278555   1.514   4.961  11.774 -0.5405  0.0018  0.1924
19047TIP3    H178556   1.485   4.926  11.858 -1.6621 -0.0285 -0.1983
19047TIP3    H278557   1.610   4.959  11.780 -0.5914 -1.1144  1.0048
19048TIP3   OH278558   2.224   4.257  12.758 -0.2259  0.6079 -0.0235
19048TIP3    H178559   2.222   4.213  12.843  2.9826  1.4438  0.6594
19048TIP3    H278560   2.167   4.205  12.702  2.4606 -3.9284  0.9520
19049TIP3   OH278561   6.222   5.681  12.201  0.3867  0.5339 -0.6437
19049TIP3    H178562   6.276   5.616  12.246 -0.5939  0.1347 -0.0146
19049TIP3    H278563   6.190   5.636  12.123  0.7224  0.6768 -0.8660
19050TIP3   OH278564   3.186   6.758  10.796  0.7389  0.6056 -0.5619
19050TIP3    H178565   3.199   6.763  10.702 -1.5803  1.4133 -0.9037
19050TIP3    H278566   3.091   6.749  10.807  0.9030  0.9587  1.6992
19051TIP3   OH278567   5.628   2.740  14.650 -0.2151  0.0157  0.4839
19051TIP3    H178568   5.579   2.789  14.715 -0.6278 -0.0537  0.2281
19051TIP3    H278569   5.646   2.803  14.581  0.2580  0.0993  0.6792
19052TIP3   OH278570   0.120   0.591   3.290  0.4799  0.0111  0.4958
19052TIP3    H178571   0.067   0.511   3.289  0.7544 -0.1904  1.4451
19052TIP3    H278572   0.181   0.581   3.217 -0.4862  0.0554 -0.3481
19053TIP3   OH278573   1.153   2.494   1.286 -0.0578 -1.0192  0.2056
19053TIP3    H178574   1.122   2.585   1.278  1.8680 -0.4493 -1.9133
19053TIP3    H278575   1.074   2.443   1.300 -1.8106  0.5269 -2.9240
19054TIP3   OH278576   5.130   1.528   0.879  0.2641 -0.2826 -0.4251
19054TIP3    H178577   5.164   1.612   0.848  0.7575 -1.1450 -2.3878
19054TIP3    H278578   5.206   1.483   0.917  0.4488 -0.5822 -1.1244
19055TIP3   OH278579   2.404   6.800  15.657 -0.7392 -0.0175 -0.2550
19055TIP3    H178580   2.498   6.818  15.663 -0.3288 -1.2854 -2.0261
19055TIP3    H278581   2.371   6.864  15.594 -0.8334 -0.2700 -0.4649
19056TIP3   OH278582   6.002   6.706  15.420  0.4533 -0.5320  0.2705
19056TIP3    H178583   5.998   6.789  15.468  1.8220  0.5198 -1.3135
19056TIP3    H278584   5.954   6.722  15.339  0.4510 -1.4002  0.0898
19057TIP3   OH278585   6.415   6.081   2.395 -0.2376 -0.2801  0.1425
19057TIP3    H178586   6.407   6.155   2.335  0.1614  0.7119  1.2580
19057TIP3    H278587   6.374   6.112   2.476  2.7054 -0.0668  1.6669
19058TIP3   OH278588   6.699   2.553   4.040 -0.0436  0.3216  0.2234
19058TIP3    H178589   6.641   2.553   4.116  0.3805  1.0068  0.5592
19058TIP3    H278590   6.766   2.489   4.060 -0.3369 -0.0267  0.1035
19059TIP3   OH278591   4.391   1.846  13.574 -0.3873 -1.1985  0.0724
19059TIP3    H178592   4.311   1.896  13.557  0.4715  0.6281  1.1012
19059TIP3    H278593   4.396   1.841  13.670  2.0955  1.2376  0.2129
19060TIP3   OH278594   6.726   3.291  14.515 -0.6793  0.4187  0.0663
19060TIP3    H178595   6.708   3.217  14.458 -0.3341  0.3857 -0.0002
19060TIP3    H278596   6.807   3.268  14.560 -0.5356  0.7817 -0.0002
19061TIP3   OH278597   2.389   6.126   5.269 -0.2739 -0.2410 -0.0956
19061TIP3    H178598   2.392   6.112   5.364 -0.8019 -0.8580 -0.1608
19061TIP3    H278599   2.295   6.123   5.247 -0.0696 -3.1325 -1.0392
19062TIP3   OH278600   6.454   3.903   3.696  0.2046  0.4171 -0.8180
19062TIP3    H178601   6.423   3.889   3.786  2.5546  0.9236  0.1460
19062TIP3    H278602   6.449   3.817   3.655 -2.4318  0.4716 -0.7989
19063TIP3   OH278603   4.403   0.252   3.307  0.0557 -0.2906 -0.3244
19063TIP3    H178604   4.396   0.187   3.237  0.0900 -1.3622  0.6429
19063TIP3    H278605   4.483   0.229   3.353  0.6911  1.1644 -0.6662
19064TIP3   OH278606   0.217   0.920   2.727  0.1522 -0.1286  0.2552
19064TIP3    H178607   0.243   0.930   2.818  2.6300 -1.3171 -0.2399
19064TIP3    H278608   0.272   0.981   2.679 -0.4382 -0.2054 -0.5415
19065TIP3   OH278609   4.865   0.045  16.401 -0.0037 -0.3177  0.4742
19065TIP3    H178610   4.817  -0.029  16.365  0.3744  1.3668 -4.0674
19065TIP3    H278611   4.798   0.100  16.442 -1.1815 -0.5413 -1.0841
19066TIP3   OH278612   0.985   3.945   3.979 -0.2198 -0.0140 -0.4258
19066TIP3    H178613   0.996   3.873   3.917 -1.1556  0.9260 -1.7365
19066TIP3    H278614   0.941   4.014   3.928 -0.1827  1.1345  1.0385
19067TIP3   OH278615   3.287   5.144   5.920  0.0042 -0.5057  0.0250
19067TIP3    H178616   3.269   5.063   5.968 -1.0649  0.9277  2.2198
19067TIP3    H278617   3.235   5.210   5.965  1.4901  1.5817 -1.1638
19068TIP3   OH278618   4.702   3.743  13.593  0.1072 -0.1624  0.1920
19068TIP3    H178619   4.748   3.772  13.671 -0.5890 -2.4643  1.5851
19068TIP3    H278620   4.771   3.724  13.529  0.7644  0.6940  0.6368
19069TIP3   OH278621   4.987   4.077  10.688  0.0168  0.3501 -0.1674
19069TIP3    H178622   4.951   4.160  10.718  1.7474  0.9737  0.3099
19069TIP3    H278623   5.081   4.092  10.681  0.1439 -0.9256 -2.2097
19070TIP3   OH278624   0.532   1.096  12.957 -0.4554 -0.0636  0.1695
19070TIP3    H178625   0.460   1.054  13.004 -0.4489 -1.5348 -1.0783
19070TIP3    H278626   0.520   1.189  12.975 -0.2273 -0.5328  3.3810
19071TIP3   OH278627   6.206   1.374  14.113  0.0500 -0.3762 -0.4016
19071TIP3    H178628   6.119   1.364  14.073 -0.9754 -1.9791  2.0367
19071TIP3    H278629   6.194   1.442  14.179  0.2236 -1.5513  0.8921
19072TIP3   OH278630   1.006   2.698  15.746 -0.2258  0.7117  0.3188
19072TIP3    H178631   1.067   2.663  15.811 -0.6304  2.7701  1.9089
19072TIP3    H278632   1.017   2.793  15.752 -3.9773  1.2485  1.1676
19073TIP3   OH278633   2.425   5.145  12.396  0.4341 -0.1729  0.2092
19073TIP3    H178634   2.334   5.173  12.397  0.3447 -0.3270 -1.2483
19073TIP3    H278635   2.469   5.204  12.458 -0.9611 -1.3657  2.4459
19074TIP3   OH278636   5.357   1.514   4.422  0.2958  0.4132 -0.2560
19074TIP3    H178637   5.323   1.586   4.475 -1.2887 -0.6052  0.1996
19074TIP3    H278638   5.316   1.526   4.337 -1.0131 -0.6118  0.1881
19075TIP3   OH278639   1.708   2.588   1.781  0.1600 -0.0497 -0.7018
19075TIP3    H178640   1.719   2.541   1.699  0.7542 -0.8318 -0.1889
19075TIP3    H278641   1.709   2.520   1.848  2.0207  0.7546  0.1524
19076TIP3   OH278642   2.683   4.998  15.346 -0.6242  0.5092 -0.4255
19076TIP3    H178643   2.739   5.042  15.282  1.9865 -1.0679  0.5814
19076TIP3    H278644   2.666   4.912  15.307 -0.6958  0.2742  0.1213
19077TIP3   OH278645   1.485   3.032  13.358  0.1290  0.5072 -0.0508
19077TIP3    H178646   1.432   3.011  13.281  1.1351  0.9836 -0.8897
19077TIP3    H278647   1.556   2.968  13.357  1.1557  1.6222 -0.5604
19078TIP3   OH278648   3.434   6.233   2.969  0.4285 -0.2438 -0.1292
19078TIP3    H178649   3.465   6.149   3.004 -0.5765  0.7507  3.5567
19078TIP3    H278650   3.509   6.292   2.979  0.3716 -0.1110 -0.4573
19079TIP3   OH278651   5.597   1.985   5.583 -0.5127  0.0208 -0.3463
19079TIP3    H178652   5.620   1.945   5.667 -1.0391  0.4898  0.0237
19079TIP3    H278653   5.502   1.992   5.584 -0.5563 -0.3816 -1.1764
19080TIP3   OH278654   5.609   5.220   5.044  0.3436 -0.0358 -0.4230
19080TIP3    H178655   5.584   5.302   5.087 -1.0158 -1.4233  1.6485
19080TIP3    H278656   5.705   5.222   5.044  0.3680  0.9036  0.9980
19081TIP3   OH278657   2.184   5.153   1.656  0.2937 -0.4399 -0.2673
19081TIP3    H178658   2.180   5.064   1.691  0.6877 -0.6684 -0.7681
19081TIP3    H278659   2.167   5.210   1.730  2.8455 -0.8310  0.7063
19082TIP3   OH278660   4.606   4.284   1.005 -0.0812  0.2028 -0.0872
19082TIP3    H178661   4.627   4.233   1.083 -1.7209  0.3275  0.4924
19082TIP3    H278662   4.543   4.230   0.957  0.4444  0.3940 -1.0169
19083TIP3   OH278663   1.480   6.582  15.688 -0.7831  0.2683 -0.2463
19083TIP3    H178664   1.506   6.537  15.768 -2.0070  1.4450  0.8481
19083TIP3    H278665   1.413   6.526  15.649 -1.6468  0.6679  0.6312
19084TIP3   OH278666   5.817   2.069   3.342 -0.2639  0.5522  0.5594
19084TIP3    H178667   5.864   2.153   3.346 -0.4747  0.6896  0.1425
19084TIP3    H278668   5.868   2.016   3.282 -0.2807  0.4751  0.6136
19085TIP3   OH278669   5.318   6.226  10.717  0.5719 -0.1178  0.6573
19085TIP3    H178670   5.393   6.175  10.686  1.5984  1.8726 -0.3490
19085TIP3    H278671   5.357   6.301  10.761 -0.8589  0.3043  1.2327
19086TIP3   OH278672   1.548   5.592  14.547  0.1442  0.2245 -0.1610
19086TIP3    H178673   1.627   5.538  14.552  0.2914  0.4582  0.0649
19086TIP3    H278674   1.486   5.539  14.496 -0.3164 -0.9134  1.4869
19087TIP3   OH278675   5.471   3.981  13.519 -0.5453 -0.3999 -0.7064
19087TIP3    H178676   5.457   4.060  13.466 -0.4600 -0.1247 -0.3202
19087TIP3    H278677   5.383   3.955  13.545 -0.8479 -1.9236 -2.9519
19088TIP3   OH278678   0.392   1.212  16.764 -0.2370 -0.0791  0.4665
19088TIP3    H178679   0.377   1.130  16.812  0.0992 -0.1804  0.4037
19088TIP3    H278680   0.334   1.206  16.689  0.1816 -0.5114  0.1690
19089TIP3   OH278681   6.134   1.208  16.609  0.3010 -0.8909  0.7138
19089TIP3    H178682   6.205   1.267  16.635 -0.8274 -0.1867  2.3321
19089TIP3    H278683   6.055   1.263  16.612 -0.3463 -1.6624 -1.0208
19090TIP3   OH278684   6.654   4.686  13.605 -0.1046 -0.3451  0.1741
19090TIP3    H178685   6.665   4.764  13.660 -0.0969 -0.8165  0.8558
19090TIP3    H278686   6.586   4.635  13.650  0.3207 -1.0136  0.0596
19091TIP3   OH278687   0.408   5.610   1.306  0.1678 -0.0992  0.0459
19091TIP3    H178688   0.423   5.605   1.211  1.4180 -1.6028  0.2842
19091TIP3    H278689   0.313   5.603   1.315  0.2065 -3.8447 -0.9808
19092TIP3   OH278690   4.096   5.130  15.070  0.0601 -0.3880 -0.3112
19092TIP3    H178691   4.162   5.065  15.093 -0.1554 -0.3048  0.5689
19092TIP3    H278692   4.041   5.138  15.148 -0.6832 -0.0802 -0.8496
19093TIP3   OH278693   3.793   2.413  14.629  0.0942 -0.3021  0.6946
19093TIP3    H178694   3.826   2.496  14.595 -2.0497  0.5909  0.6676
19093TIP3    H278695   3.852   2.392  14.702  0.3877  1.4753  1.0166
19094TIP3   OH278696   3.254   1.184   3.402 -0.1281  0.4025 -0.1344
19094TIP3    H178697   3.173   1.135   3.417  1.3630 -2.3113 -0.4146
19094TIP3    H278698   3.225   1.274   3.386 -3.0027 -0.3158  0.5503
19095TIP3   OH278699   2.818   6.631   2.596  0.7433 -0.3550  0.8861
19095TIP3    H178700   2.745   6.643   2.657 -1.1840  0.2791 -1.3850
19095TIP3    H278701   2.853   6.545   2.617 -0.1059 -0.3344  2.5844
19096TIP3   OH278702   0.665   4.485  15.145 -0.1968  0.1689 -0.2052
19096TIP3    H178703   0.651   4.407  15.198 -0.1106  0.7228  0.6608
19096TIP3    H278704   0.757   4.479  15.117 -0.0744  0.1551  0.1921
19097TIP3   OH278705   2.522   3.362  15.923  0.2673 -0.0851  0.5932
19097TIP3    H178706   2.441   3.412  15.924  1.7119  2.5281 -0.8784
19097TIP3    H278707   2.515   3.302  15.998 -2.6853  0.4576  0.8727
19098TIP3   OH278708   3.087   5.286   2.636  0.7892 -0.2896  0.2781
19098TIP3    H178709   3.159   5.346   2.616  0.4204 -0.1361 -0.6919
19098TIP3    H278710   3.018   5.311   2.573 -0.4461  0.1693  1.7579
19099TIP3   OH278711   4.002   0.251   5.398 -1.3110  0.1833 -0.4454
19099TIP3    H178712   4.024   0.279   5.309 -1.8201 -0.2977 -0.7338
19099TIP3    H278713   3.926   0.304   5.422 -1.9940 -0.5966 -0.8171
19100TIP3   OH278714   4.214   0.442  13.059  0.1595 -0.0915 -0.0636
19100TIP3    H178715   4.300   0.408  13.085 -0.3873 -1.7453 -0.3192
19100TIP3    H278716   4.231   0.534  13.038  1.6847 -0.1433  0.7628
19101TIP3   OH278717   1.340   4.015  16.096 -0.5241  0.6046  0.2880
19101TIP3    H178718   1.360   4.103  16.064 -0.9800  0.9438  0.9060
19101TIP3    H278719   1.255   4.024  16.138 -0.6103 -0.1567  0.2887
19102TIP3   OH278720   4.768   2.640   2.873 -0.0931  0.1465 -0.2323
19102TIP3    H178721   4.799   2.705   2.810  0.3730 -1.7003 -2.0386
19102TIP3    H278722   4.846   2.617   2.923 -0.3827  1.3480  0.8065
19103TIP3   OH278723   1.756   2.334  16.648 -0.7721 -0.4615  0.3418
19103TIP3    H178724   1.752   2.429  16.659 -0.8365 -0.6538  2.3392
19103TIP3    H278725   1.722   2.319  16.560 -0.7638  1.3588 -0.0188
19104TIP3   OH278726   1.426   3.695   0.893  0.3528 -0.0307  0.4231
19104TIP3    H178727   1.346   3.717   0.847  1.1079  1.7670 -0.1107
19104TIP3    H278728   1.428   3.753   0.969  0.6727 -0.7533  0.9863
19105TIP3   OH278729   0.631   1.552  14.630  0.3516  0.1813  0.4928
19105TIP3    H178730   0.633   1.648  14.628  1.4710  0.1965  1.4541
19105TIP3    H278731   0.639   1.530  14.723 -1.4878 -0.8455  0.4638
19106TIP3   OH278732   0.648   6.042  11.070 -0.6511 -0.5467  0.2938
19106TIP3    H178733   0.732   6.034  11.024  0.0570 -0.8980  1.5914
19106TIP3    H278734   0.582   6.036  11.001  0.3694 -0.8768 -0.6866
19107TIP3   OH278735   1.229   3.246   1.375  0.1574  0.3484 -0.1935
19107TIP3    H178736   1.245   3.159   1.338  0.1497  0.1097  0.3533
19107TIP3    H278737   1.227   3.232   1.469 -0.8267  0.7722 -0.1350
19108TIP3   OH278738   1.351   2.740   0.770  0.7791 -0.0397  0.5953
19108TIP3    H178739   1.371   2.713   0.680  0.0115  0.2193  0.3387
19108TIP3    H278740   1.269   2.696   0.791  0.6320  0.3898  0.9415
19109TIP3   OH278741   6.670   2.660  15.189 -0.2420 -0.5643 -0.3280
19109TIP3    H178742   6.579   2.647  15.159 -0.8446  1.2826  0.5815
19109TIP3    H278743   6.720   2.671  15.109 -0.5822 -2.6601 -0.9081
19110TIP3   OH278744   5.365   5.232   1.603  0.0696 -0.2749 -0.5228
19110TIP3    H178745   5.318   5.287   1.540  0.6628  1.1600  0.2470
19110TIP3    H278746   5.316   5.241   1.684 -1.7983 -3.5843 -1.0741
19111TIP3   OH278747   4.933   6.453   0.625  0.1006 -0.5840  0.4534
19111TIP3    H178748   5.010   6.510   0.636 -0.7697  0.6336  0.5090
19111TIP3    H278749   4.880   6.498   0.560  0.1455 -2.2189 -0.7618
19112TIP3   OH278750   2.382   4.971  13.757 -0.0675  0.0091 -0.5955
19112TIP3    H178751   2.315   5.003  13.696 -1.2508 -1.1546  0.0423
19112TIP3    H278752   2.333   4.940  13.833  1.2057 -0.8042 -0.0625
19113TIP3   OH278753   0.291   5.123   4.748 -0.0293  0.6207 -0.4082
19113TIP3    H178754   0.365   5.135   4.807 -0.4431 -0.8643  0.4684
19113TIP3    H278755   0.214   5.144   4.802 -0.3570  0.2261 -0.7129
19114TIP3   OH278756   6.571   1.011  14.887  0.2557 -0.3487 -0.0241
19114TIP3    H178757   6.540   1.018  14.797 -1.0947  1.1141  0.5035
19114TIP3    H278758   6.497   1.042  14.940  1.3388 -0.3284  1.5365
19115TIP3   OH278759   6.323   3.735   2.998  0.3537 -0.1504 -0.0456
19115TIP3    H178760   6.236   3.759   3.027  0.7788  4.0582 -1.6814
19115TIP3    H278761   6.382   3.794   3.045  2.3678 -2.3258  0.4210
19116TIP3   OH278762   4.159   6.472   1.031  0.9758  0.4818  0.0360
19116TIP3    H178763   4.229   6.495   1.092  2.3987 -0.7407 -1.0511
19116TIP3    H278764   4.200   6.411   0.969 -0.8270  0.4202 -1.1823
19117TIP3   OH278765   6.643   3.095   1.749 -0.0071 -0.0147  0.1844
19117TIP3    H178766   6.692   3.060   1.823  0.7863  1.4298  0.3876
19117TIP3    H278767   6.703   3.157   1.708 -0.8526  0.0642 -0.9662
19118TIP3   OH278768   6.772   1.374  13.607  0.4102  0.7988 -0.2067
19118TIP3    H178769   6.687   1.391  13.567 -0.5238 -0.0371  1.3261
19118TIP3    H278770   6.757   1.388  13.701  0.8744 -3.1293  0.6078
19119TIP3   OH278771   3.061   2.409   0.294 -0.0207  0.1148 -0.0526
19119TIP3    H178772   3.122   2.463   0.344 -0.6491  1.2925 -0.5117
19119TIP3    H278773   3.113   2.378   0.220  0.5736 -0.6212  0.6564
19120TIP3   OH278774   0.550   0.192   0.680  0.4942 -0.3274 -0.5182
19120TIP3    H178775   0.545   0.097   0.692 -0.7282 -0.2835 -0.5456
19120TIP3    H278776   0.548   0.228   0.769  0.3467 -0.3069 -0.5297
19121TIP3   OH278777   1.226   2.076  10.645 -0.0138 -0.4453 -0.3968
19121TIP3    H178778   1.306   2.025  10.658 -0.8614 -1.9195 -0.7271
19121TIP3    H278779   1.156   2.020  10.678 -0.9104  0.9271  0.1539
19122TIP3   OH278780   3.345   1.516  16.155  0.0256 -0.6274 -0.2238
19122TIP3    H178781   3.406   1.539  16.225  1.4205 -1.6986 -1.0195
19122TIP3    H278782   3.261   1.505  16.199  0.6620 -0.3479  1.1280
19123TIP3   OH278783   4.164   5.609   4.158 -0.0107  0.2874  0.2025
19123TIP3    H178784   4.105   5.663   4.105 -0.4892 -0.4404 -0.0222
19123TIP3    H278785   4.251   5.629   4.125 -0.4188 -1.8414 -2.4986
19124TIP3   OH278786   3.454   2.411  15.358  0.0362  0.6234  0.4189
19124TIP3    H178787   3.461   2.501  15.325  0.4556 -0.0314 -1.4303
19124TIP3    H278788   3.544   2.377  15.353 -0.6519 -1.2259 -3.2120
19125TIP3   OH278789   2.348   0.127   4.281 -0.1162 -0.3059  0.1020
19125TIP3    H178790   2.293   0.194   4.240 -0.4364 -1.3357 -1.2362
19125TIP3    H278791   2.295   0.091   4.352 -0.7549 -0.5340 -0.4831
19126TIP3   OH278792   5.522   4.802  12.794  0.3904 -0.0792 -0.3386
19126TIP3    H178793   5.471   4.851  12.858 -1.7764 -0.7113 -1.4886
19126TIP3    H278794   5.529   4.860  12.718 -0.7269 -0.8761 -1.0748
19127TIP3   OH278795   0.051   5.531  13.568 -0.0219  0.2622  0.5018
19127TIP3    H178796   0.087   5.522  13.656  1.0696  0.7467  0.1201
19127TIP3    H278797   0.092   5.609  13.533  0.1894 -0.3817 -0.7375
19128TIP3   OH278798   3.806   1.973   5.222  0.4999  0.2604  0.1548
19128TIP3    H178799   3.872   2.025   5.269  0.5096 -1.1347  1.8231
19128TIP3    H278800   3.857   1.904   5.179  0.3304  0.5779 -0.5643
19129TIP3   OH278801   1.233   1.416  15.135  0.6999 -0.2363  0.3302
19129TIP3    H178802   1.315   1.457  15.165  0.5914  0.3570 -0.1660
19129TIP3    H278803   1.246   1.405  15.041  0.3168 -0.4083  0.2984
19130TIP3   OH278804   2.202   2.413   2.540  0.5959 -0.2263 -0.5818
19130TIP3    H178805   2.137   2.347   2.564 -0.7715  1.2030 -0.1754
19130TIP3    H278806   2.199   2.476   2.611  1.3897  0.6157 -1.2753
19131TIP3   OH278807   5.588   0.299  15.718  0.1493 -0.1087  0.0675
19131TIP3    H178808   5.631   0.215  15.735 -0.0275 -0.3202 -0.5148
19131TIP3    H278809   5.603   0.316  15.625 -2.6602 -1.1491 -0.6656
19132TIP3   OH278810   5.812   1.919   6.439 -0.0735 -0.1518  0.5503
19132TIP3    H178811   5.782   1.857   6.505 -0.4726 -1.9786 -1.2477
19132TIP3    H278812   5.899   1.888   6.414  0.1725  0.6501  0.3738
19133TIP3   OH278813   1.669   4.117   2.555 -0.1280  0.2743  0.2700
19133TIP3    H178814   1.657   4.188   2.618 -0.5618  0.4699 -0.0259
19133TIP3    H278815   1.696   4.042   2.609  0.2438  0.6326  0.5949
19134TIP3   OH278816   1.395   3.911  13.573 -0.3285  0.2634 -0.6151
19134TIP3    H178817   1.384   3.834  13.517 -1.1105  0.6903 -1.0772
19134TIP3    H278818   1.401   3.876  13.662  1.4494 -0.4582 -0.9847
19135TIP3   OH278819   6.401   3.290  15.174 -0.1256 -0.3021  0.2117
19135TIP3    H178820   6.444   3.367  15.211  1.2987 -1.4529  1.0924
19135TIP3    H278821   6.435   3.284  15.085 -1.1651  0.7382 -0.2704
19136TIP3   OH278822   4.912   4.865  15.468 -1.0679 -0.1390  0.3101
19136TIP3    H178823   4.925   4.960  15.469 -0.7311 -0.1344 -1.2596
19136TIP3    H278824   4.865   4.846  15.549 -1.1919  1.3718  0.6199
19137TIP3   OH278825   2.640   3.461  11.745 -0.5679 -0.2843 -0.1877
19137TIP3    H178826   2.662   3.376  11.783  2.3762  0.6485  0.4299
19137TIP3    H278827   2.612   3.441  11.656  3.4574 -1.7696 -1.3056
19138TIP3   OH278828   0.521   3.102  15.024 -0.0125 -0.1547  0.0993
19138TIP3    H178829   0.606   3.143  15.040 -0.0127 -0.4610  0.9267
19138TIP3    H278830   0.540   3.022  14.975  0.2324 -0.5355  0.8146
19139TIP3   OH278831   4.171   0.362   2.688  0.3889  0.1018  0.0994
19139TIP3    H178832   4.186   0.424   2.617 -3.7151  0.8693 -0.3567
19139TIP3    H278833   4.090   0.392   2.730 -0.0539 -3.1385  1.9581
19140TIP3   OH278834   3.901   0.097  16.364  0.1601 -0.5128 -0.2404
19140TIP3    H178835   3.908   0.158  16.291 -2.2495 -0.2647 -0.3409
19140TIP3    H278836   3.872   0.015  16.324 -0.8628 -0.4673  0.3711
19141TIP3   OH278837   5.942   6.265   2.005  0.4670  0.4229 -0.4566
19141TIP3    H178838   5.966   6.244   2.095 -0.0314 -1.1470 -0.6529
19141TIP3    H278839   5.888   6.190   1.977 -0.4623  1.4858 -1.6291
19142TIP3   OH278840   3.122   3.242   4.218  0.6333 -0.0938 -0.1562
19142TIP3    H178841   3.196   3.248   4.156  1.8772 -2.1570  1.0134
19142TIP3    H278842   3.129   3.322   4.270  0.0311  1.3065 -2.1202
19143TIP3   OH278843   2.085   4.641   5.339 -0.1560 -0.3683 -0.4259
19143TIP3    H178844   2.087   4.699   5.415  1.5486 -2.5997  1.3972
19143TIP3    H278845   2.004   4.663   5.294 -1.6476  0.5793  2.4589
19144TIP3   OH278846   5.076   3.875  14.105  0.3900  0.2332 -0.1224
19144TIP3    H178847   5.106   3.784  14.101  0.0638  0.0666  0.9637
19144TIP3    H278848   4.981   3.870  14.098  0.3768  0.4951 -0.1457
19145TIP3   OH278849   2.422   1.748  11.065  0.2032 -0.4635  0.1453
19145TIP3    H178850   2.445   1.704  11.148  1.7293 -0.0694 -0.0315
19145TIP3    H278851   2.472   1.700  10.999 -1.1405 -0.8858 -0.6011
19146TIP3   OH278852   3.056   4.439  15.115  0.6491  0.0747  0.1624
19146TIP3    H178853   3.127   4.382  15.146  1.5651  0.7461 -0.6046
19146TIP3    H278854   3.023   4.396  15.036  1.5002  0.6899 -0.5508
19147TIP3   OH278855   5.768   2.725   3.116  0.3536 -0.0090  0.2542
19147TIP3    H178856   5.783   2.812   3.080  0.9189 -0.4291 -0.5527
19147TIP3    H278857   5.856   2.687   3.125  0.3872  0.4882  3.2012
19148TIP3   OH278858   1.058   6.406  10.878  0.1187 -0.2823  0.4300
19148TIP3    H178859   1.028   6.345  10.811  2.0157 -0.9992  0.1750
19148TIP3    H278860   0.980   6.457  10.901 -0.7798 -0.6025 -1.6878
19149TIP3   OH278861   3.787   3.266  15.262  0.5856 -0.1157  0.2689
19149TIP3    H178862   3.797   3.243  15.169  1.6036 -0.5087  0.4718
19149TIP3    H278863   3.872   3.249  15.301 -0.4615 -2.3543  1.8005
19150TIP3   OH278864   0.392   2.754  13.834  0.3086 -0.2829 -0.2663
19150TIP3    H178865   0.421   2.841  13.805  0.7841 -0.3349  0.0316
19150TIP3    H278866   0.438   2.741  13.917 -1.1887 -0.0513  0.6273
19151TIP3   OH278867   3.795   3.630   7.127  0.1824 -0.2936  0.0639
19151TIP3    H178868   3.808   3.561   7.063  0.2387 -0.6953  0.5055
19151TIP3    H278869   3.756   3.702   7.077  0.0006 -0.6885 -0.3685
19152TIP3   OH278870   6.325   2.283  13.971 -0.0439 -0.1140  0.5564
19152TIP3    H178871   6.265   2.356  13.989  0.3665 -0.0232  1.6385
19152TIP3    H278872   6.407   2.326  13.947 -0.4527 -0.2368 -1.1275
19153TIP3   OH278873   1.840   0.513  14.951  0.2358 -0.1129  0.5490
19153TIP3    H178874   1.904   0.442  14.962  0.6328  0.3011  0.9265
19153TIP3    H278875   1.838   0.557  15.036 -1.9077 -1.2349  1.1537
19154TIP3   OH278876   0.555   4.163  12.973 -0.0253  0.2954 -0.0194
19154TIP3    H178877   0.501   4.084  12.964 -0.3822  0.1483  2.6805
19154TIP3    H278878   0.554   4.183  13.066  0.2778  3.3947 -0.5741
19155TIP3   OH278879   1.443   5.818  12.554  0.5762  0.3318  0.1013
19155TIP3    H178880   1.443   5.872  12.475 -1.2305 -0.7799 -0.7292
19155TIP3    H278881   1.458   5.729  12.522  1.1134  0.0292  1.1649
19156TIP3   OH278882   4.780   3.444  10.762 -0.3258 -0.4935 -0.0216
19156TIP3    H178883   4.753   3.529  10.796 -0.4704 -0.3119 -0.5907
19156TIP3    H278884   4.743   3.381  10.825 -0.2143 -0.1435  0.4016
19157TIP3   OH278885   0.915   2.848  10.684  0.2310  0.0160  0.0169
19157TIP3    H178886   0.989   2.900  10.652 -0.0917  1.3719  1.3284
19157TIP3    H278887   0.862   2.832  10.606  0.6645  1.1532 -0.5393
19158TIP3   OH278888   3.624   0.835   1.945  0.1438 -0.8116  0.0940
19158TIP3    H178889   3.624   0.821   2.039  0.0378  0.8486  0.3779
19158TIP3    H278890   3.540   0.801   1.915 -1.3237  1.6451  1.1579
19159TIP3   OH278891   2.093   5.878  14.281  0.3154  0.2714  0.0690
19159TIP3    H178892   2.183   5.855  14.257  0.2453 -0.0477  0.1075
19159TIP3    H278893   2.057   5.920  14.202  0.3056 -0.1544 -0.1585
19160TIP3   OH278894   2.871   6.134   5.596  0.0841  0.6165  0.0026
19160TIP3    H178895   2.782   6.109   5.621  0.6706  0.5744  2.2320
19160TIP3    H278896   2.927   6.064   5.631  1.2177  2.0064  1.0918
19161TIP3   OH278897   3.599   3.248  16.730  0.3854  0.4468  0.4735
19161TIP3    H178898   3.595   3.170  16.786  0.8127 -0.5087 -0.7699
19161TIP3    H278899   3.526   3.303  16.759 -1.1876 -1.3292  0.0719
19162TIP3   OH278900   6.425   5.856   5.966  0.0273  0.1699 -0.6039
19162TIP3    H178901   6.334   5.837   5.940 -0.2543  0.4400  0.1426
19162TIP3    H278902   6.441   5.797   6.040  0.8495 -0.6704 -1.4172
19163TIP3   OH278903   4.971   2.354  13.154  0.5014 -0.0768 -0.6171
19163TIP3    H178904   5.017   2.276  13.122 -0.7726 -0.9589 -0.3614
19163TIP3    H278905   4.939   2.396  13.074 -3.3104 -2.6698 -0.7223
19164TIP3   OH278906   5.700   5.904   1.369 -0.0381 -0.3502  0.3448
19164TIP3    H178907   5.781   5.892   1.418 -0.2771  0.0120  0.8336
19164TIP3    H278908   5.715   5.859   1.286  0.8520  0.1762  0.2162
19165TIP3   OH278909   5.910   1.906  11.394 -0.2000 -0.7995  0.0449
19165TIP3    H178910   6.005   1.898  11.398 -0.0045  0.7853 -0.6191
19165TIP3    H278911   5.893   2.000  11.403 -1.4867 -0.6760 -2.5808
19166TIP3   OH278912   1.277   0.897  16.375  0.1317  0.0218 -0.2404
19166TIP3    H178913   1.222   0.827  16.411  0.0504 -0.0448 -0.4948
19166TIP3    H278914   1.324   0.855  16.303  0.5487  0.0673  0.0023
19167TIP3   OH278915   6.725   6.489  16.159 -0.5651 -0.8087  0.1552
19167TIP3    H178916   6.671   6.471  16.236 -2.3735  0.0115 -0.8759
19167TIP3    H278917   6.747   6.582  16.167 -3.7043  0.2808 -1.9686
19168TIP3   OH278918   1.708   2.081   3.752  0.2978 -0.3864 -0.9003
19168TIP3    H178919   1.646   2.153   3.748  1.4982  0.6597 -1.1301
19168TIP3    H278920   1.665   2.015   3.807 -0.8919  0.4052 -0.8487
19169TIP3   OH278921   1.556   1.761   2.462  0.3907 -0.2098  0.2709
19169TIP3    H178922   1.504   1.784   2.385 -0.2207 -0.8079  0.4956
19169TIP3    H278923   1.561   1.665   2.459  1.5049 -0.1551  0.2413
19170TIP3   OH278924   4.416   3.968  16.356  0.2644 -0.0584  0.2190
19170TIP3    H178925   4.343   3.907  16.360 -0.2810  0.5470 -0.2317
19170TIP3    H278926   4.492   3.914  16.338 -0.1127 -0.6695  0.4216
19171TIP3   OH278927   1.308   0.345   5.994  0.5324  0.3767 -0.5409
19171TIP3    H178928   1.333   0.254   6.010 -0.2080  0.1854 -0.4159
19171TIP3    H278929   1.358   0.395   6.058 -0.7557 -0.1701  0.9521
19172TIP3   OH278930   1.191   2.309  15.469 -0.0310 -0.6600  0.2097
19172TIP3    H178931   1.262   2.343  15.414  0.4434 -1.5843  0.2239
19172TIP3    H278932   1.135   2.384  15.485  1.9001  0.5496  1.6835
19173TIP3   OH278933   1.724   2.309   5.946  0.5496 -0.6448 -0.0717
19173TIP3    H178934   1.790   2.253   5.905  1.5367 -0.1142  0.7425
19173TIP3    H278935   1.703   2.264   6.028 -0.0539 -0.7626 -0.2827
19174TIP3   OH278936   4.270   4.649   2.896 -0.1320 -0.4515 -0.0993
19174TIP3    H178937   4.292   4.589   2.824  2.0408 -0.9960  0.9072
19174TIP3    H278938   4.347   4.706   2.904 -2.1869  2.7248 -1.1313
19175TIP3   OH278939   0.329   2.491   2.371 -0.0178 -0.0519 -0.5909
19175TIP3    H178940   0.303   2.494   2.463 -1.4047  0.6884 -0.9777
19175TIP3    H278941   0.337   2.398   2.351 -1.1742 -0.2829 -0.0964
19176TIP3   OH278942   1.237   5.813   0.208  0.0230  0.4053 -0.5797
19176TIP3    H178943   1.194   5.728   0.204 -1.9043  1.2490  0.5638
19176TIP3    H278944   1.299   5.813   0.135 -0.0595 -1.8854 -0.7030
19177TIP3   OH278945   0.659   2.842  13.485  0.0406  0.0234  0.4847
19177TIP3    H178946   0.582   2.788  13.466  0.6650 -0.1627 -1.8241
19177TIP3    H278947   0.721   2.782  13.527  0.5294 -1.0007 -1.5844
19178TIP3   OH278948   0.950   5.622  12.346 -0.4625 -1.0916  0.0418
19178TIP3    H178949   0.990   5.544  12.308  1.1298 -0.1888 -0.2764
19178TIP3    H278950   1.017   5.656  12.405 -1.2713 -0.1706  0.4560
19179TIP3   OH278951   2.643   4.009  16.254  0.2779  0.0403 -0.5148
19179TIP3    H178952   2.671   4.018  16.162  1.0640 -1.0770 -0.3908
19179TIP3    H278953   2.559   4.056  16.257  0.5922  0.7245 -1.6293
19180TIP3   OH278954   4.473   4.741  14.403  0.1837  0.3011 -0.1186
19180TIP3    H178955   4.468   4.804  14.476  3.3479 -1.0092  1.3987
19180TIP3    H278956   4.493   4.795  14.327 -1.5873  1.5308  0.1989
19181TIP3   OH278957   6.547   5.183  15.667 -0.5986  0.5924  0.3136
19181TIP3    H178958   6.615   5.244  15.639  0.8675 -1.1643 -0.1834
19181TIP3    H278959   6.494   5.167  15.588 -0.9699  1.1813  0.4402
19182TIP3   OH278960   2.711   6.346  15.904 -0.1722 -0.0420  0.3890
19182TIP3    H178961   2.710   6.278  15.837  2.7873 -0.1060  0.2673
19182TIP3    H278962   2.804   6.370  15.913 -0.5082  0.4891  3.9662
19183TIP3   OH278963   0.424   6.462   4.695 -0.1028  0.4058 -0.0864
19183TIP3    H178964   0.402   6.393   4.758  2.1103  0.9325  1.3598
19183TIP3    H278965   0.477   6.524   4.744 -1.3013  2.7534 -1.5810
19184TIP3   OH278966   4.542   4.952   0.954  0.0817 -0.0000  0.2261
19184TIP3    H178967   4.586   5.026   0.995 -0.3658  0.0267  0.6722
19184TIP3    H278968   4.465   4.938   1.008 -0.1128 -0.4577 -0.1665
19185TIP3   OH278969   4.024   1.853  14.225 -0.0905  0.0750 -0.3532
19185TIP3    H178970   4.069   1.779  14.265  1.8421  0.5341 -1.5095
19185TIP3    H278971   3.997   1.822  14.139  1.2698  0.8100 -1.0928
19186TIP3   OH278972   0.561   3.174   2.600  0.1699  0.2314 -0.2145
19186TIP3    H178973   0.640   3.153   2.649 -0.2553 -1.0021 -0.0055
19186TIP3    H278974   0.592   3.200   2.513  0.7875 -1.0111 -0.3881
19187TIP3   OH278975   5.698   2.113   2.298  0.2549 -0.5003  0.2083
19187TIP3    H178976   5.674   2.099   2.206  0.2123 -0.2497  0.1797
19187TIP3    H278977   5.637   2.181   2.328  0.1591 -0.7015  0.4683
19188TIP3   OH278978   0.769   4.683   5.665  0.3136 -0.8068  0.0496
19188TIP3    H178979   0.674   4.692   5.656  0.4768 -0.9228 -2.6960
19188TIP3    H278980   0.781   4.644   5.751 -2.0224  0.3527  1.0189
19189TIP3   OH278981   0.865   6.086  11.593 -0.7152 -0.2867 -0.8732
19189TIP3    H178982   0.851   6.093  11.499 -0.3286  0.1114 -0.9032
19189TIP3    H278983   0.808   6.014  11.620 -0.8288 -0.4039 -1.4081
19190TIP3   OH278984   2.123   2.902   6.205  0.1223  0.1973 -0.2716
19190TIP3    H178985   2.097   2.994   6.209  0.5756  0.2692  1.6151
19190TIP3    H278986   2.215   2.904   6.178 -0.5145  0.1317 -2.6956
19191TIP3   OH278987   1.484   1.366   4.992  0.0402 -0.2627  0.7047
19191TIP3    H178988   1.404   1.409   4.962 -0.3982 -2.0130 -0.8453
19191TIP3    H278989   1.467   1.273   4.979  2.9206 -0.6374 -1.4283
19192TIP3   OH278990   5.864   4.378   0.672  0.1374  0.0174 -0.2443
19192TIP3    H178991   5.917   4.301   0.653 -1.1019 -0.8024 -0.5285
19192TIP3    H278992   5.815   4.395   0.592  0.9133  1.5623 -0.4246
19193TIP3   OH278993   1.596   2.100  10.879  0.1015  0.5866 -0.6288
19193TIP3    H178994   1.682   2.132  10.850  0.8378  0.3395  1.1970
19193TIP3    H278995   1.602   2.005  10.873  0.1832  0.5423  0.0937
19194TIP3   OH278996   6.378   4.847  13.195  0.0379 -0.0693  0.3589
19194TIP3    H178997   6.411   4.796  13.269  0.0357  0.4045  0.6905
19194TIP3    H278998   6.307   4.795  13.159  0.0467 -0.3058  0.6836
19195TIP3   OH278999   1.847   0.204  10.267  0.1042  0.2903 -0.6320
19195TIP3    H179000   1.756   0.175  10.278  0.0242  0.7641 -0.0264
19195TIP3    H279001   1.843   0.299  10.276  0.9196  0.1804  1.2119
19196TIP3   OH279002   4.094   0.699   2.012  0.1823 -0.3887  0.3916
19196TIP3    H179003   4.165   0.739   1.961 -0.2966 -1.1573 -0.9409
19196TIP3    H279004   4.014   0.728   1.968 -0.2653 -0.7884  0.9259
19197TIP3   OH279005   3.053   5.722   4.218  0.0807 -0.4335 -0.6884
19197TIP3    H179006   2.972   5.728   4.268 -0.2048 -1.0927 -1.0571
19197TIP3    H279007   3.045   5.792   4.152 -1.5741 -2.3198 -2.6408
19198TIP3   OH279008   4.460   2.343   3.497  0.2788  0.3069  0.0695
19198TIP3    H179009   4.451   2.275   3.563 -1.3393  1.1493  0.7951
19198TIP3    H279010   4.551   2.338   3.469  0.1449 -2.3061 -0.1290
19199TIP3   OH279011   6.593   4.402   4.720  0.3263  0.3099 -0.3824
19199TIP3    H179012   6.546   4.475   4.760  1.6350  1.2350 -0.4708
19199TIP3    H279013   6.542   4.380   4.642 -0.8804  0.1408  0.4282
19200TIP3   OH279014   6.674   2.672   0.123  0.5036  0.1727  0.1791
19200TIP3    H179015   6.579   2.656   0.127  0.4579  0.4586  0.2154
19200TIP3    H279016   6.702   2.668   0.215  0.5255  0.1073  0.1700
19201TIP3   OH279017   4.571   0.718  16.785  0.0920  0.2221 -0.2206
19201TIP3    H179018   4.535   0.650  16.729  0.1943 -0.8273  0.9609
19201TIP3    H279019   4.531   0.703  16.870  0.2892  1.5116  0.1224
19202TIP3   OH279020   1.753   5.958  11.282  0.0146 -0.0283 -0.0877
19202TIP3    H179021   1.732   5.924  11.195 -0.0270 -0.8667  0.2394
19202TIP3    H279022   1.712   6.045  11.285  0.4283  0.2116 -1.0742
19203TIP3   OH279023   0.099   2.445   0.818  1.0083 -1.0605  0.1645
19203TIP3    H179024   0.106   2.395   0.899 -0.7530  0.2204  1.1724
19203TIP3    H279025   0.153   2.522   0.833  4.1622 -2.7209 -1.5888
19204TIP3   OH279026   2.506   3.866  13.231  0.0920 -0.2534 -0.8168
19204TIP3    H179027   2.519   3.944  13.285  3.0275  0.8234 -2.8429
19204TIP3    H279028   2.459   3.899  13.154 -2.0242 -1.3355 -0.0750
19205TIP3   OH279029   5.270   1.724   4.570  0.1555  0.2829  0.3004
19205TIP3    H179030   5.339   1.693   4.630 -0.5039  0.5211  1.1976
19205TIP3    H279031   5.284   1.818   4.565  1.3755  0.0666 -1.4402
19206TIP3   OH279032   0.421   1.758  13.423  0.3054 -0.4058  0.0077
19206TIP3    H179033   0.512   1.745  13.448  0.1105 -0.4577  0.7194
19206TIP3    H279034   0.377   1.785  13.504  0.3436  3.0911 -0.9817
19207TIP3   OH279035   4.706   2.889   2.578  0.4364 -0.3260 -0.5479
19207TIP3    H179036   4.688   2.795   2.572 -1.4960 -0.1305  1.0278
19207TIP3    H279037   4.725   2.904   2.670  0.5465  0.8669 -0.7535
19208TIP3   OH279038   5.881   5.195   1.563  0.3665 -0.3582 -0.7135
19208TIP3    H179039   5.906   5.125   1.623  3.3176  1.1249 -0.0208
19208TIP3    H279040   5.826   5.152   1.498  1.6551 -3.2090 -0.0819
19209TIP3   OH279041   3.257   5.323   2.375  0.1358  0.1253  0.7405
19209TIP3    H179042   3.173   5.278   2.363  0.1018  0.4235 -0.2217
19209TIP3    H279043   3.318   5.274   2.320  0.6687 -0.2703  1.6676
19210TIP3   OH279044   6.205   2.727   1.734 -0.1522 -0.1422 -0.4029
19210TIP3    H179045   6.283   2.772   1.703 -0.1695  0.9668  1.0184
19210TIP3    H279046   6.151   2.796   1.773 -0.3647 -1.2877  1.5083
19211TIP3   OH279047   5.666   2.857  16.564  0.1010  0.4161  0.5242
19211TIP3    H179048   5.609   2.915  16.514  0.4709  0.7400  0.4736
19211TIP3    H279049   5.609   2.785  16.592 -0.0790  0.1171 -0.5332
19212TIP3   OH279050   1.486   3.457   4.198  0.1558 -0.1823 -0.4363
19212TIP3    H179051   1.428   3.517   4.151 -0.4281 -0.1736  0.2795
19212TIP3    H279052   1.466   3.371   4.163 -1.0320 -0.3145  0.5037
19213TIP3   OH279053   2.025   2.275   5.113 -0.0705 -0.1727 -0.1386
19213TIP3    H179054   2.037   2.314   5.200  0.7025 -1.3145  0.2905
19213TIP3    H279055   2.083   2.326   5.056 -1.9494  1.7970 -0.4154
19214TIP3   OH279056   1.846   2.244   2.432 -0.5466  0.3674 -0.0737
19214TIP3    H179057   1.892   2.270   2.352 -1.1205  1.3591 -0.1041
19214TIP3    H279058   1.807   2.160   2.411 -0.7100  0.6257 -0.8493
19215TIP3   OH279059   5.144   4.286  14.707  0.5740 -0.1101 -0.5798
19215TIP3    H179060   5.154   4.317  14.617 -0.7826 -1.8942 -1.3932
19215TIP3    H279061   5.177   4.196  14.706  1.4429  0.1572  0.9598
19216TIP3   OH279062   5.367   1.196   2.462 -0.4826  0.5314  0.1216
19216TIP3    H179063   5.391   1.159   2.377 -1.0177  0.7947 -0.1464
19216TIP3    H279064   5.272   1.203   2.459 -0.4188  1.6420  0.2792
19217TIP3   OH279065   6.511   5.266  16.778  0.2458  0.2257  0.0946
19217TIP3    H179066   6.492   5.174  16.759  0.3049  0.0083  1.0423
19217TIP3    H279067   6.467   5.314  16.708  1.0735 -0.5704 -0.9915
19218TIP3   OH279068   5.265   1.605   2.166  0.4432  0.3406  0.0584
19218TIP3    H179069   5.224   1.622   2.082 -1.1586 -1.9248  0.2959
19218TIP3    H279070   5.240   1.680   2.221 -1.1766  0.3123 -0.5882
19219TIP3   OH279071   2.513   5.084   5.452 -0.0990 -0.2264 -0.3809
19219TIP3    H179072   2.581   5.126   5.505  1.8931 -2.6606 -0.8353
19219TIP3    H279073   2.477   5.155   5.400  1.6418  1.3016  0.3647
19220TIP3   OH279074   5.742   5.328  12.975 -0.1236  0.0247  0.0766
19220TIP3    H179075   5.798   5.382  12.919 -0.9170  0.8417  0.0327
19220TIP3    H279076   5.802   5.284  13.035  0.5895  0.5719 -0.2229
19221TIP3   OH279077   4.338   0.297  15.640 -0.1740 -0.1276 -0.2052
19221TIP3    H179078   4.267   0.333  15.693  0.4981  2.0481 -0.6665
19221TIP3    H279079   4.407   0.276  15.703  0.2600  1.5453 -0.0745
19222TIP3   OH279080   2.463   0.706   1.541 -0.0571  0.5031  0.1961
19222TIP3    H179081   2.373   0.738   1.535  0.0274  0.6241 -0.5034
19222TIP3    H279082   2.472   0.646   1.467  0.3365  0.2330  0.4589
19223TIP3   OH279083   4.511   4.900   1.800  0.1427  0.5601  0.0010
19223TIP3    H179084   4.451   4.851   1.857  2.5323 -2.4143  0.2387
19223TIP3    H279085   4.468   4.902   1.715  0.2436 -2.9885 -0.2738
19224TIP3   OH279086   4.044   1.230   1.216 -0.0427  0.8575 -0.1942
19224TIP3    H179087   4.101   1.245   1.291  0.9295  0.3223 -0.8038
19224TIP3    H279088   3.974   1.295   1.225 -0.6002  0.0507  1.7762
19225TIP3   OH279089   2.276   0.720  13.582  0.0017  0.3299 -0.3139
19225TIP3    H179090   2.354   0.688  13.627 -0.3698  0.3461  0.3523
19225TIP3    H279091   2.223   0.642  13.567 -0.0577  0.3785 -0.3593
19226TIP3   OH279092   2.041   3.774  16.891 -0.0327  0.2123 -0.2915
19226TIP3    H179093   2.066   3.833  16.963 -0.5350 -0.3910  0.3901
19226TIP3    H279094   2.068   3.687  16.921  0.1188  0.0061 -1.0142
19227TIP3   OH279095   2.008   6.193  11.791  0.1429 -0.5474  0.0304
19227TIP3    H179096   2.036   6.210  11.701  0.1130  1.4800  0.3533
19227TIP3    H279097   1.989   6.099  11.793 -1.5453 -0.3536 -2.5261
19228TIP3   OH279098   0.747   5.266   5.717 -0.3800 -0.1037 -0.4834
19228TIP3    H179099   0.802   5.230   5.786 -1.1004  0.3076  0.3169
19228TIP3    H279100   0.708   5.189   5.675  0.7737 -0.4002 -1.0666
19229TIP3   OH279101   4.191   0.308  15.271 -0.4686  0.0305  0.0617
19229TIP3    H179102   4.134   0.330  15.345 -0.8717  1.3103 -0.5929
19229TIP3    H279103   4.201   0.213  15.275 -2.4927 -0.2161  0.3172
19230TIP3   OH279104   5.729   6.506   5.574 -0.0133 -0.3698  0.0469
19230TIP3    H179105   5.780   6.509   5.493 -0.7977 -1.2144 -0.4956
19230TIP3    H279106   5.793   6.520   5.644  0.8019 -0.4739 -0.6678
19231TIP3   OH279107   3.454   3.727  11.282  0.3731 -0.1046 -0.5821
19231TIP3    H179108   3.540   3.713  11.243 -0.0975 -3.5651 -0.7255
19231TIP3    H279109   3.456   3.676  11.363 -0.4236  2.6762  1.3075
19232TIP3   OH279110   3.788   0.114  13.542  0.1646  0.0334  0.6216
19232TIP3    H179111   3.708   0.075  13.507  0.8557 -0.2700 -0.6824
19232TIP3    H279112   3.758   0.193  13.587 -0.7583  0.7456 -1.1192
19233TIP3   OH279113   3.501   3.365   0.912 -0.5348  0.7528 -0.2647
19233TIP3    H179114   3.523   3.342   0.822 -0.3779 -0.1726  0.0011
19233TIP3    H279115   3.547   3.448   0.927 -1.1172  1.2662 -1.2495
19234TIP3   OH279116   1.831   4.967  16.589  1.0201  0.0362 -0.0299
19234TIP3    H179117   1.759   4.937  16.534  0.2025  0.9949  0.4815
19234TIP3    H279118   1.791   5.033  16.646  2.3981  0.8794 -0.0138
19235TIP3   OH279119   4.931   0.964   1.705  0.0665  0.0475  0.0135
19235TIP3    H179120   4.892   0.974   1.792 -2.7104  0.8336 -1.2097
19235TIP3    H279121   4.971   0.877   1.707 -0.1783 -0.0681  1.9896
19236TIP3   OH279122   0.759   6.454   3.686 -0.6607  0.1853  0.5740
19236TIP3    H179123   0.666   6.461   3.665 -0.3020 -0.7468 -1.6149
19236TIP3    H279124   0.795   6.541   3.665 -0.5521 -0.3367 -1.7094
19237TIP3   OH279125   4.353   5.181   1.926  0.1306  0.1252  0.4097
19237TIP3    H179126   4.409   5.250   1.891  0.6481 -0.4046  0.1821
19237TIP3    H279127   4.412   5.125   1.976 -0.5680  0.7944  2.0487
19238TIP3   OH279128   0.857   5.396  13.553  0.4649  0.1722  0.7433
19238TIP3    H179129   0.809   5.320  13.518  0.2935  1.2619 -1.5889
19238TIP3    H279130   0.949   5.371  13.545  0.4067  0.1196  0.1391
19239TIP3   OH279131   2.169   0.701  12.086 -0.7218 -0.2038  0.2879
19239TIP3    H179132   2.205   0.789  12.078 -2.6598  0.5529 -1.1358
19239TIP3    H279133   2.211   0.651  12.016 -0.0987 -0.2428  0.6855
19240TIP3   OH279134   0.178   1.527   4.006  0.1012  1.0069 -0.3913
19240TIP3    H179135   0.230   1.481   3.939  1.9726  2.3783  0.0421
19240TIP3    H279136   0.211   1.493   4.089 -1.4111  0.1539 -0.1206
19241TIP3   OH279137   5.257   6.326  12.135 -0.3333 -0.4059  0.3755
19241TIP3    H179138   5.183   6.345  12.193 -1.2120 -1.7477 -0.2686
19241TIP3    H279139   5.334   6.339  12.191 -0.9893  1.4670  0.9363
19242TIP3   OH279140   0.800   4.139  11.119  0.0717 -0.2986 -0.1507
19242TIP3    H179141   0.824   4.211  11.177 -1.5406 -1.0870  1.6034
19242TIP3    H279142   0.751   4.180  11.047 -1.9226  0.3143  1.4655
19243TIP3   OH279143   3.532   1.836   2.066 -0.3508  0.2826 -0.2603
19243TIP3    H179144   3.569   1.825   2.153  0.1203  1.9489 -0.2205
19243TIP3    H279145   3.506   1.928   2.062 -0.5247  0.1969 -1.8186
19244TIP3   OH279146   5.171   1.770  11.707 -0.0813 -0.1315  0.1833
19244TIP3    H179147   5.186   1.753  11.799 -2.6562  0.3475  0.7896
19244TIP3    H279148   5.144   1.862  11.704 -0.8518 -0.3663 -0.9037
19245TIP3   OH279149   4.075   1.155  12.427 -0.1138 -0.3186  0.2346
19245TIP3    H179150   4.119   1.238  12.406 -0.0340 -0.0961  1.2257
19245TIP3    H279151   4.096   1.097  12.354  0.7100  0.2073  0.0457
19246TIP3   OH279152   2.348   4.344  13.719 -0.6209  0.9062  0.0768
19246TIP3    H179153   2.304   4.329  13.635 -4.4882  0.8932  1.8888
19246TIP3    H279154   2.375   4.435  13.716 -1.7258  1.2342 -0.7838
19247TIP3   OH279155   6.063   2.512   5.192 -0.2901 -0.3444 -0.1079
19247TIP3    H179156   6.013   2.431   5.180 -0.1412 -0.2019 -1.9772
19247TIP3    H279157   6.006   2.569   5.243 -1.7955 -0.4392 -1.6077
19248TIP3   OH279158   4.347   6.201  12.496  0.4849 -0.2013  0.8474
19248TIP3    H179159   4.382   6.198  12.407 -0.1448 -0.5625  0.6050
19248TIP3    H279160   4.422   6.178  12.552  0.3810 -2.1370  0.2659
19249TIP3   OH279161   5.305   0.153  14.161  0.2965 -0.4099  0.8349
19249TIP3    H179162   5.225   0.163  14.214 -0.5727  1.7720 -0.7127
19249TIP3    H279163   5.376   0.175  14.220 -0.4416 -0.2646  1.6935
19250TIP3   OH279164   2.907   4.605  12.800  0.4150 -0.9115  0.0012
19250TIP3    H179165   2.961   4.527  12.815  1.7431 -0.2476 -1.0825
19250TIP3    H279166   2.886   4.602  12.706 -0.7287 -0.6905  0.2335
19251TIP3   OH279167   4.837   4.951  13.569  0.0399  0.4512 -0.3255
19251TIP3    H179168   4.817   4.916  13.482  0.6868  1.7598 -1.0324
19251TIP3    H279169   4.899   4.888  13.606 -0.8105 -0.5176 -0.4810
19252TIP3   OH279170   0.291   1.415   5.433  0.0463 -0.0526 -0.3049
19252TIP3    H179171   0.224   1.441   5.496 -0.3597 -0.5589 -0.5226
19252TIP3    H279172   0.244   1.401   5.352  0.6421  1.0940 -0.8780
19253TIP3   OH279173   6.029   1.658  15.018  0.1746 -0.1447  0.4327
19253TIP3    H179174   5.939   1.637  15.044  0.7625 -2.1201  1.0699
19253TIP3    H279175   6.023   1.680  14.925 -0.9654 -0.1876  0.4761
19254TIP3   OH279176   3.573   3.068  14.996  0.3399 -0.1406 -0.1413
19254TIP3    H179177   3.483   3.037  15.006  0.7784 -1.1157  1.0259
19254TIP3    H279178   3.627   2.991  15.013  1.4068  0.4951 -0.5644
19255TIP3   OH279179   3.532   5.426  14.776 -0.2004  0.6474  0.1726
19255TIP3    H179180   3.441   5.457  14.776 -0.9666 -1.3756 -1.5409
19255TIP3    H279181   3.535   5.362  14.847 -0.3539  0.1285 -0.2828
19256TIP3   OH279182   4.221   0.227   5.566 -0.5154 -0.0012  0.5211
19256TIP3    H179183   4.138   0.252   5.527 -0.8766 -0.0904  1.2148
19256TIP3    H279184   4.284   0.290   5.531 -0.4670 -1.1282 -1.5718
19257TIP3   OH279185   6.104   4.288  16.793 -0.4894  0.6208 -0.3584
19257TIP3    H179186   6.181   4.343  16.777 -0.6123  0.1964 -2.9804
19257TIP3    H279187   6.030   4.347  16.777 -0.6830  0.4905  0.0534
19258TIP3   OH279188   5.616   4.671  15.218 -0.5107 -0.1788 -0.0607
19258TIP3    H179189   5.653   4.710  15.138  2.4827 -0.4085  1.0843
19258TIP3    H279190   5.552   4.735  15.248 -1.4078  0.1106 -2.3852
19259TIP3   OH279191   3.150   1.417   3.643  0.2043  0.0538  0.3278
19259TIP3    H179192   3.119   1.502   3.672 -0.7071 -0.5207  1.1227
19259TIP3    H279193   3.092   1.354   3.686  1.8253 -1.0449  1.0253
19260TIP3   OH279194   1.584   3.212   0.712  0.0123 -0.7133  0.2727
19260TIP3    H179195   1.595   3.266   0.634  0.2972  0.2015  0.9198
19260TIP3    H279196   1.672   3.182   0.733 -0.2379 -2.0516 -0.4885
19261TIP3   OH279197   5.625   1.684  14.430  0.2759 -0.2274  0.2684
19261TIP3    H179198   5.674   1.741  14.371  2.3325 -1.7778  0.3552
19261TIP3    H279199   5.613   1.736  14.509  1.9317  0.2007  0.2800
19262TIP3   OH279200   1.321   4.955  12.833 -0.6381 -0.8252  0.3210
19262TIP3    H179201   1.253   4.958  12.901 -0.9213 -1.7341  0.1001
19262TIP3    H279202   1.272   4.942  12.752 -0.2821 -0.0209 -0.0241
19263TIP3   OH279203   4.821   5.935   3.513  0.5370  0.0517  0.0216
19263TIP3    H179204   4.814   5.900   3.425  2.3619 -1.1980  0.3401
19263TIP3    H279205   4.740   5.986   3.525 -0.3451 -0.8316 -1.8659
19264TIP3   OH279206   0.466   0.058  13.202  0.3142  0.0109  0.3249
19264TIP3    H179207   0.503  -0.023  13.238 -0.3031 -0.3009  0.2755
19264TIP3    H279208   0.512   0.071  13.119  0.9283  0.1048  0.6774
19265TIP3   OH279209   0.743   0.349  12.980 -0.1996  0.1201 -0.3187
19265TIP3    H179210   0.765   0.256  12.981  2.0347  0.4721 -2.7231
19265TIP3    H279211   0.660   0.354  12.933  1.2236 -0.6014 -3.1882
19266TIP3   OH279212   4.138   2.617  13.740 -0.0614 -0.2628  0.6350
19266TIP3    H179213   4.188   2.690  13.776 -1.0409  0.9867 -0.4738
19266TIP3    H279214   4.080   2.656  13.675  0.9637 -2.2929 -1.6701
19267TIP3   OH279215   6.419   5.126  13.394 -0.5822  0.1086  0.0685
19267TIP3    H179216   6.327   5.149  13.409 -0.3031  0.3178  1.5940
19267TIP3    H279217   6.450   5.195  13.335 -1.0986  0.7438  0.5105
19268TIP3   OH279218   3.652   4.260  11.476 -0.2480 -0.1970  0.4087
19268TIP3    H179219   3.691   4.188  11.426  1.1662  1.3026 -0.7676
19268TIP3    H279220   3.725   4.297  11.526 -0.9864  0.3238  1.1378
19269TIP3   OH279221   3.951   5.168  12.986 -0.3566 -0.2995 -0.7013
19269TIP3    H179222   3.897   5.231  12.938  0.0817  0.4065 -0.2821
19269TIP3    H279223   4.041   5.189  12.961 -0.1798 -0.4921 -0.2463
19270TIP3   OH279224   6.754   2.842   4.066 -0.5252  0.3151  0.1308
19270TIP3    H179225   6.839   2.879   4.088 -1.1809  1.1798  1.3799
19270TIP3    H279226   6.768   2.748   4.064  0.4861  0.4590  0.2198
19271TIP3   OH279227   1.537   5.581  12.460 -0.0343  0.5588 -0.1676
19271TIP3    H179228   1.606   5.521  12.488 -0.8537  0.0990  0.9487
19271TIP3    H279229   1.522   5.560  12.368  0.4053 -0.2377 -0.0612
19272TIP3   OH279230   5.320   3.924  15.842 -0.3004 -0.5787  0.0799
19272TIP3    H179231   5.326   3.941  15.748 -0.0200  0.0426  0.2040
19272TIP3    H279232   5.228   3.940  15.863 -0.2444 -0.1402  0.0117
19273TIP3   OH279233   1.648   0.285   6.011 -0.2353  0.0827  0.3374
19273TIP3    H179234   1.679   0.195   6.022 -2.8222 -0.7346  1.8456
19273TIP3    H279235   1.674   0.309   5.922 -0.0596 -2.4071 -0.3499
19274TIP3   OH279236   3.332   4.552  14.987  0.0057 -0.4365  0.1396
19274TIP3    H179237   3.319   4.645  15.005 -0.6727 -0.2466 -1.1981
19274TIP3    H279238   3.253   4.510  15.019  0.6591 -0.6887  1.4936
19275TIP3   OH279239   1.966   1.712  16.162  0.0437 -0.8115 -0.0816
19275TIP3    H179240   1.977   1.637  16.219  1.8135 -2.2190 -2.1193
19275TIP3    H279241   1.892   1.689  16.106  0.4169 -0.9389 -0.5314
19276TIP3   OH279242   2.683   1.689  15.627 -0.2552  0.2683 -0.0785
19276TIP3    H179243   2.588   1.688  15.625 -0.3749  2.9117  0.6030
19276TIP3    H279244   2.706   1.654  15.713 -0.8249  2.4381  1.0328
19277TIP3   OH279245   0.326   5.389  14.647  0.0223  0.0555 -0.0772
19277TIP3    H179246   0.284   5.320  14.595 -0.6388 -1.0695  1.8607
19277TIP3    H279247   0.287   5.471  14.614 -0.7431 -0.6553 -1.0048
19278TIP3   OH279248   5.996   1.069  16.063  0.4876  0.3275 -0.5596
19278TIP3    H179249   6.034   1.106  15.983  1.2699 -2.0051 -1.3491
19278TIP3    H279250   6.007   1.138  16.129  2.4688  1.2591 -1.7590
19279TIP3   OH279251   5.359   2.545  10.450 -0.0501  0.1062 -0.1404
19279TIP3    H179252   5.274   2.566  10.412  0.3185 -0.1916 -1.1515
19279TIP3    H279253   5.377   2.618  10.510 -0.6450  0.5930 -0.5381
19280TIP3   OH279254   1.562   1.714   4.976 -0.1234  0.1658 -0.0111
19280TIP3    H179255   1.592   1.741   4.889 -2.1266 -0.6884 -1.0265
19280TIP3    H279256   1.639   1.725   5.032  1.3753  0.2485 -1.9741
19281TIP3   OH279257   1.646   3.746   5.298 -0.5530  0.6075  0.3998
19281TIP3    H179258   1.642   3.659   5.259 -0.3026  0.6105  0.3642
19281TIP3    H279259   1.556   3.767   5.320 -0.4410 -0.3032  1.8471
19282TIP3   OH279260   3.133   5.623   0.170  0.1034  0.5668 -0.4532
19282TIP3    H179261   3.177   5.564   0.109 -1.3228  0.3477 -1.3022
19282TIP3    H279262   3.102   5.566   0.240 -0.2794  0.4758 -0.6965
19283TIP3   OH279263   4.880   1.893  16.714  0.4006  0.2226  0.0341
19283TIP3    H179264   4.812   1.827  16.703  0.6428  0.2502 -2.1228
19283TIP3    H279265   4.881   1.940  16.630  0.9957  2.2419  1.0994
19284TIP3   OH279266   6.245   4.944   5.776 -0.0475 -0.0668  0.2834
19284TIP3    H179267   6.286   5.028   5.757 -1.2877  0.0499 -2.3876
19284TIP3    H279268   6.249   4.896   5.693 -0.9185 -1.9575  1.2706
19285TIP3   OH279269   0.689   1.696  12.826  0.2248  0.0900  0.0511
19285TIP3    H179270   0.676   1.790  12.815 -1.3081 -0.2228 -1.2147
19285TIP3    H279271   0.608   1.665  12.867  0.9743 -0.6095  1.0676
19286TIP3   OH279272   1.877   0.454  11.745 -0.1397  0.7084 -0.7131
19286TIP3    H179273   1.787   0.426  11.731  0.3061 -1.8613  0.8507
19286TIP3    H279274   1.929   0.392  11.693  0.7668  2.0066 -1.4072
19287TIP3   OH279275   2.997   2.792   4.289 -0.1642  0.0363  0.0889
19287TIP3    H179276   2.959   2.878   4.306 -0.0182  0.2882 -0.8329
19287TIP3    H279277   2.953   2.761   4.210  0.2815 -0.4377  0.0217
19288TIP3   OH279278   6.121   6.302   0.335  0.1691  0.0706 -0.5640
19288TIP3    H179279   6.061   6.281   0.407  0.1705 -0.7174 -0.7824
19288TIP3    H279280   6.208   6.280   0.370  0.1473 -0.5371 -0.8792
19289TIP3   OH279281   3.616   1.298  14.401 -0.2270 -0.3449  0.0954
19289TIP3    H179282   3.623   1.258  14.314  0.4877  0.4608 -0.2315
19289TIP3    H279283   3.648   1.230  14.460  2.3785  0.1500 -0.5816
19290TIP3   OH279284   2.381   3.175  13.284  0.3513 -0.1743  0.7515
19290TIP3    H179285   2.457   3.178  13.226 -0.7049  1.9419 -0.6452
19290TIP3    H279286   2.372   3.265  13.315 -1.5356 -0.3975  0.9572
19291TIP3   OH279287   6.712   0.240  11.636  0.1332  0.2433  0.2748
19291TIP3    H179288   6.724   0.324  11.591  1.4427 -0.3915 -0.6127
19291TIP3    H279289   6.735   0.259  11.727 -1.4531  1.2683  0.5134
19292TIP3   OH279290   4.532   6.343   2.109  0.2103  0.0625 -0.1346
19292TIP3    H179291   4.516   6.309   2.197 -1.1371 -0.1835 -0.4537
19292TIP3    H279292   4.546   6.437   2.122 -2.1444  0.4342  0.1634
19293TIP3   OH279293   3.118   1.451   4.397 -0.4771  0.0199  0.1779
19293TIP3    H179294   3.152   1.487   4.479 -2.2491  0.2525  0.8741
19293TIP3    H279295   3.131   1.357   4.404  0.1071  0.1136  0.3656
19294TIP3   OH279296   0.922   2.066   4.311 -0.5502  0.0003 -0.7849
19294TIP3    H179297   1.008   2.089   4.275  0.2387  0.7415  1.4197
19294TIP3    H279298   0.867   2.141   4.289 -0.3534  0.0222 -1.2320
19295TIP3   OH279299   0.082   2.103  15.106 -0.7602  0.1835 -0.5745
19295TIP3    H179300   0.129   2.030  15.147 -0.5675  0.6587  0.0580
19295TIP3    H279301   0.072   2.076  15.015  0.5768 -0.0125 -0.6806
19296TIP3   OH279302   5.334   4.975   5.367 -0.0896 -0.2437 -0.1623
19296TIP3    H179303   5.276   4.915   5.414  0.2978 -0.2414  0.3231
19296TIP3    H279304   5.362   5.039   5.432  0.0169  0.0838 -0.5231
19297TIP3   OH279305   2.080   5.883   0.139 -0.6189 -0.2451  0.0881
19297TIP3    H179306   2.058   5.962   0.091 -0.0397  1.0792  1.8801
19297TIP3    H279307   2.038   5.894   0.224  1.6427 -0.5798  1.3423
19298TIP3   OH279308   1.812   4.459  16.824  0.3260  0.3239  0.1304
19298TIP3    H179309   1.837   4.418  16.906 -1.6480 -0.9297  0.1582
19298TIP3    H279310   1.809   4.553  16.844 -1.3963 -0.0520  1.8702
19299TIP3   OH279311   5.447   4.988   1.509 -0.4234  0.3160  0.2591
19299TIP3    H179312   5.441   5.081   1.529 -1.9546  0.4539 -0.6490
19299TIP3    H279313   5.460   4.985   1.414  0.9648 -0.3936  0.4459
19300TIP3   OH279314   4.618   5.154  10.487  0.0448  0.0925  0.7379
19300TIP3    H179315   4.666   5.071  10.491 -1.8975 -1.3227 -1.9645
19300TIP3    H279316   4.635   5.188  10.400 -2.9510 -0.0181 -0.0208
19301TIP3   OH279317   5.812   6.608  11.505  0.1261 -0.0568 -0.0805
19301TIP3    H179318   5.727   6.565  11.493  0.3249 -0.4994  0.0598
19301TIP3    H279319   5.861   6.587  11.425 -0.1440  0.7890 -0.4703
19302TIP3   OH279320   5.318   5.317   1.886  0.5101  0.2705  0.0465
19302TIP3    H179321   5.395   5.292   1.936 -0.1552  0.2189  1.0794
19302TIP3    H279322   5.339   5.404   1.852  0.8491  0.4513  0.6988
19303TIP3   OH279323   4.764   0.537   0.429 -0.4492  0.8439 -0.4180
19303TIP3    H179324   4.713   0.481   0.488 -1.0975  0.6306 -1.1572
19303TIP3    H279325   4.703   0.558   0.358  0.1219  1.6118 -0.6931
19304TIP3   OH279326   0.639   3.524  13.042 -0.5187 -0.6597 -0.5343
19304TIP3    H179327   0.577   3.551  13.109  0.9005  0.0470  0.5615
19304TIP3    H279328   0.600   3.554  12.960 -0.9298  1.1266  0.2646
19305TIP3   OH279329   1.486   5.207  13.509 -0.3751  0.4970  0.7708
19305TIP3    H179330   1.573   5.171  13.527 -0.5640  0.8604  2.5809
19305TIP3    H279331   1.504   5.284  13.454  0.2287 -0.7480 -0.8432
19306TIP3   OH279332   1.554   1.331  13.032  0.1432 -0.0309  0.6888
19306TIP3    H179333   1.642   1.295  13.015  0.2670  0.1542  0.9344
19306TIP3    H279334   1.564   1.425  13.018 -0.0429 -0.0216  0.6154
19307TIP3   OH279335   1.009   5.182  16.105  0.2048 -0.2759 -0.0510
19307TIP3    H179336   1.029   5.193  16.198  0.1225 -3.2394  0.4173
19307TIP3    H279337   0.924   5.139  16.105 -1.8396  3.3353 -1.7295
19308TIP3   OH279338   5.024   1.000   2.705 -0.0421 -0.3794 -0.0417
19308TIP3    H179339   4.990   1.067   2.646  0.0391  0.5753  0.9577
19308TIP3    H279340   5.106   0.972   2.664  0.5667  1.0480  0.1380
19309TIP3   OH279341   4.472   0.163   5.009 -0.8067  0.0415 -0.4699
19309TIP3    H179342   4.395   0.219   5.021  0.1138  0.9876  1.7142
19309TIP3    H279343   4.536   0.219   4.965  0.3414  1.0932  2.2832
19310TIP3   OH279344   4.554   6.071   0.473  0.1106  0.4957 -0.4387
19310TIP3    H179345   4.531   6.035   0.387  0.0255  0.7635 -0.5311
19310TIP3    H279346   4.484   6.041   0.531  0.4243 -0.0833 -0.3576
19311TIP3   OH279347   0.760   2.501   5.144  0.3404  0.0955  0.2064
19311TIP3    H179348   0.841   2.548   5.163  0.0842  0.3911  0.5643
19311TIP3    H279349   0.773   2.466   5.056  1.4570 -1.1057  0.8042
19312TIP3   OH279350   3.944   2.721   4.081  0.4301  0.1500  0.3515
19312TIP3    H179351   3.944   2.743   3.988 -3.3458  0.3962  0.2761
19312TIP3    H279352   3.932   2.626   4.082 -0.7140  0.2825  0.5269
19313TIP3   OH279353   6.811   2.306  17.021  0.0297 -0.3659 -0.2711
19313TIP3    H179354   6.888   2.362  17.009 -0.5215  0.3628 -0.5265
19313TIP3    H279355   6.745   2.346  16.965 -0.0809 -1.8889 -1.2821
19314TIP3   OH279356   0.633   5.007  12.083 -0.0189  0.1675 -0.2234
19314TIP3    H179357   0.653   4.940  12.149  0.1095  0.8399  0.4359
19314TIP3    H279358   0.645   4.962  11.999 -0.0736 -0.6732  0.2066
19315TIP3   OH279359   0.254   5.233   5.160  0.2300 -0.0435 -0.1191
19315TIP3    H179360   0.188   5.234   5.230  0.9204 -1.1878  0.5889
19315TIP3    H279361   0.260   5.141   5.135  0.6536  0.2325 -1.0723
19316TIP3   OH279362   3.215   6.161   5.466 -0.1307 -0.5042  0.5363
19316TIP3    H179363   3.163   6.095   5.512  0.4260 -2.0075 -0.9017
19316TIP3    H279364   3.151   6.223   5.433 -0.7202 -0.5976  1.4830
19317TIP3   OH279365   4.955   5.118  15.346  0.6037  0.3976 -0.0744
19317TIP3    H179366   4.996   5.195  15.386  0.3762  1.3571 -1.6139
19317TIP3    H279367   5.005   5.103  15.266  0.2223 -0.6686 -0.1230
19318TIP3   OH279368   5.752   2.489  12.997 -0.3832  0.0626 -0.0531
19318TIP3    H179369   5.677   2.545  13.017  0.2716  0.3098  1.8524
19318TIP3    H279370   5.713   2.409  12.960 -1.7110 -0.2442  1.8653
19319TIP3   OH279371   3.254   0.957   0.893 -0.4534  0.0620 -0.3331
19319TIP3    H179372   3.243   0.948   0.798 -2.4086 -1.7391 -0.0027
19319TIP3    H279373   3.220   0.875   0.929  1.5495  0.1151  1.8826
19320TIP3   OH279374   1.760   1.579  11.401 -0.1205 -0.3889  0.0835
19320TIP3    H179375   1.822   1.545  11.336 -0.2745 -1.2510  0.3774
19320TIP3    H279376   1.743   1.669  11.373 -1.3121 -1.1713 -1.9501
19321TIP3   OH279377   4.401   4.807   0.060  0.0300  0.3241  0.0261
19321TIP3    H179378   4.308   4.828   0.050  0.0945  1.2157  1.0775
19321TIP3    H279379   4.416   4.736  -0.003 -1.5590 -0.4545  0.4411
19322TIP3   OH279380   6.104   6.694  15.719 -0.4079 -0.1682 -0.3197
19322TIP3    H179381   6.075   6.774  15.675 -0.6041  0.5970  1.1343
19322TIP3    H279382   6.064   6.623  15.669 -0.0544  0.6260 -1.7627
19323TIP3   OH279383   5.179   4.298  15.696  0.3964  0.2907 -0.0461
19323TIP3    H179384   5.259   4.350  15.708  0.1115  0.9299 -0.8335
19323TIP3    H279385   5.133   4.308  15.780  0.5558  0.9586 -0.0258
19324TIP3   OH279386   4.304   2.195   4.518 -0.4970 -0.2329 -0.7185
19324TIP3    H179387   4.288   2.175   4.610 -0.4704 -1.5819 -0.9801
19324TIP3    H279388   4.346   2.116   4.483  0.1237  0.5125 -1.7321
19325TIP3   OH279389   3.283   3.902  13.100  0.0184  0.3487  0.1779
19325TIP3    H179390   3.290   3.908  13.005  0.6227  0.0742  0.2051
19325TIP3    H279391   3.211   3.961  13.122 -0.6134 -0.1371 -0.5215
19326TIP3   OH279392   6.607   0.093   1.353 -0.9060 -0.0444 -0.2592
19326TIP3    H179393   6.520   0.121   1.383 -0.1559  1.4333  0.6555
19326TIP3    H279394   6.610   0.118   1.261 -1.3737  0.0726 -0.2476
19327TIP3   OH279395   5.369   3.231  12.836  0.2562  0.7139 -0.0528
19327TIP3    H179396   5.315   3.190  12.903  1.3813 -1.6932 -0.5053
19327TIP3    H279397   5.437   3.278  12.885  0.5727 -0.3169  0.5238
19328TIP3   OH279398   5.348   4.440  12.481 -0.4450  0.0578 -0.5208
19328TIP3    H179399   5.339   4.487  12.399  0.8444  1.5099  0.1140
19328TIP3    H279400   5.259   4.416  12.506 -0.9704  0.7708 -1.6695
19329TIP3   OH279401   1.954   0.941   4.184 -0.0040  0.5699 -0.5813
19329TIP3    H179402   1.967   0.848   4.199  0.4747  0.6004 -0.7863
19329TIP3    H279403   2.013   0.985   4.245 -2.3211  0.8352  1.6456
19330TIP3   OH279404   2.099   1.518  13.367 -0.6409 -0.3845  0.0040
19330TIP3    H179405   2.127   1.607  13.386  1.1533 -0.7314 -0.7999
19330TIP3    H279406   2.021   1.529  13.312  0.0450  0.7354 -0.7988
19331TIP3   OH279407   4.676   4.297   5.322  0.2235 -0.5775 -0.0764
19331TIP3    H179408   4.583   4.275   5.317  0.2774 -0.8252  0.0082
19331TIP3    H279409   4.697   4.333   5.236 -0.1937  0.4399  0.2384
19332TIP3   OH279410   3.955   4.298   3.623 -0.2246  0.5299  0.5165
19332TIP3    H179411   4.023   4.331   3.564  1.2666 -1.5152  0.9319
19332TIP3    H279412   3.879   4.353   3.606 -0.3400 -0.5987 -4.2133
19333TIP3   OH279413   6.348   2.968  14.043  0.1070  0.0563  0.8064
19333TIP3    H179414   6.277   2.905  14.031  2.1911 -2.1101 -1.0838
19333TIP3    H279415   6.305   3.054  14.037 -2.2098 -1.1259 -1.6329
19334TIP3   OH279416   6.562   1.096  13.790 -0.2223 -0.1127  0.0125
19334TIP3    H179417   6.650   1.123  13.816 -0.7648  0.7245  1.0268
19334TIP3    H279418   6.504   1.155  13.836 -1.3461 -0.9633 -0.2693
19335TIP3   OH279419   1.694   0.910   3.301  0.6738  0.3476  0.2198
19335TIP3    H179420   1.610   0.876   3.272  0.7858  1.0474 -1.0066
19335TIP3    H279421   1.679   1.004   3.315  0.8931  0.2214  1.4626
19336TIP3   OH279422   1.377   1.954   4.847  0.0771 -0.2997 -0.4206
19336TIP3    H179423   1.382   2.047   4.826 -2.8308 -0.0795 -0.5691
19336TIP3    H279424   1.394   1.950   4.942  0.3666  0.3449 -0.4410
19337TIP3   OH279425   3.475   2.238  14.539 -0.2708 -0.1249 -0.0071
19337TIP3    H179426   3.411   2.207  14.475  0.0685 -0.6813 -0.0859
19337TIP3    H279427   3.436   2.318  14.575  0.0513  0.8912 -1.7716
19338TIP3   OH279428   5.145   0.650   5.756  0.5927  0.3270  0.4416
19338TIP3    H179429   5.074   0.693   5.805  0.7766  0.6969  0.3924
19338TIP3    H279430   5.223   0.701   5.779  0.2758  2.2703 -2.3080
19339TIP3   OH279431   5.100   0.461   4.447  0.6003 -0.0055  0.1242
19339TIP3    H179432   5.088   0.460   4.542  0.2450 -0.5263  0.0782
19339TIP3    H279433   5.103   0.554   4.425 -0.8387  0.1513  0.4760
19340TIP3   OH279434   3.461   6.763   6.072 -0.9613 -0.0076  0.7648
19340TIP3    H179435   3.529   6.718   6.122 -0.4058  0.8613  0.8070
19340TIP3    H279436   3.478   6.856   6.086  0.3723  0.3909 -2.4774
19341TIP3   OH279437   4.958   2.460  12.872  0.0504 -0.1575 -0.1437
19341TIP3    H179438   4.872   2.503  12.872  0.1094  0.0196  1.9894
19341TIP3    H279439   5.019   2.527  12.900  0.6518 -0.7251 -0.0733
19342TIP3   OH279440   1.174   2.531  16.151  0.1501  0.4886 -0.0915
19342TIP3    H179441   1.189   2.554  16.059  0.7423 -1.3891 -0.5071
19342TIP3    H279442   1.197   2.438  16.157 -1.8674  0.0229  1.5028
19343TIP3   OH279443   5.959   2.034  16.906 -0.1603  0.4755 -0.3562
19343TIP3    H179444   5.931   1.979  16.833 -2.1449  0.1643  0.5541
19343TIP3    H279445   5.969   1.972  16.979  0.2054  0.9879  0.0347
19344TIP3   OH279446   2.324   5.511  12.156  0.1227 -0.2620  0.2433
19344TIP3    H179447   2.243   5.544  12.195  0.4507  0.9817 -0.0870
19344TIP3    H279448   2.296   5.469  12.074 -0.0427  1.6705 -0.7385
19345TIP3   OH279449   2.081   4.568   0.324  0.4558  0.3226 -0.1492
19345TIP3    H179450   2.090   4.506   0.252 -2.2909 -1.3248  0.7744
19345TIP3    H279451   2.053   4.650   0.281 -0.7251 -0.5085 -1.0284
19346TIP3   OH279452   5.347   1.546   3.116 -0.1400  0.5324  0.5058
19346TIP3    H179453   5.282   1.521   3.050 -1.1103 -1.1031  1.9886
19346TIP3    H279454   5.302   1.611   3.170 -0.0653  0.4097  0.7162
19347TIP3   OH279455   4.312   4.509   2.676 -0.1580  0.1080  0.1573
19347TIP3    H179456   4.277   4.437   2.623  0.5424 -0.5943  0.6159
19347TIP3    H279457   4.381   4.547   2.621 -0.0655 -0.0190  0.1837
19348TIP3   OH279458   3.880   3.909  16.642  0.0020 -0.2228 -0.2453
19348TIP3    H179459   3.891   3.822  16.680 -1.0316  0.5028  1.8422
19348TIP3    H279460   3.830   3.894  16.562  1.0957 -1.6676 -0.6993
19349TIP3   OH279461   0.986   6.170   1.796 -0.4669  0.1573 -0.0202
19349TIP3    H179462   1.002   6.076   1.803 -1.1930  0.0223 -0.0515
19349TIP3    H279463   0.976   6.185   1.702  0.5152  0.4276 -0.0941
19350TIP3   OH279464   0.507   1.562  13.030  0.0844  0.6560 -0.3829
19350TIP3    H179465   0.466   1.481  13.000 -1.7662  0.9562  1.1377
19350TIP3    H279466   0.571   1.534  13.096 -1.3661  0.4517  0.9871
19351TIP3   OH279467   6.176   1.479  12.804 -0.2736  0.0794 -0.2322
19351TIP3    H179468   6.192   1.397  12.757 -0.2993 -0.7583  1.1407
19351TIP3    H279469   6.193   1.548  12.740 -2.4610 -0.9903 -2.1413
19352TIP3   OH279470   5.821   3.022   1.188 -0.0638  0.0237 -0.1297
19352TIP3    H179471   5.869   3.025   1.271 -0.8239 -0.4450  0.3420
19352TIP3    H279472   5.787   3.111   1.177  0.1876  0.1339 -0.0354
19353TIP3   OH279473   0.189   5.299   3.505 -0.1893 -0.2601 -0.0579
19353TIP3    H179474   0.196   5.226   3.443 -2.1359  0.4761 -1.2634
19353TIP3    H279475   0.117   5.352   3.470 -0.9961  0.4971  2.5550
19354TIP3   OH279476   0.618   6.229   3.483 -0.0455  0.4636  0.1286
19354TIP3    H179477   0.632   6.315   3.445  0.1530 -1.0271 -3.5316
19354TIP3    H279478   0.633   6.168   3.411 -0.3132 -2.6576  2.5206
19355TIP3   OH279479   6.698   1.949   4.119  0.2300  0.3815 -0.4691
19355TIP3    H179480   6.757   1.894   4.067  0.3880 -0.2272  0.3265
19355TIP3    H279481   6.616   1.951   4.070  0.4896  0.1277 -0.9162
19356TIP3   OH279482   0.063   2.755  12.833  0.8562 -0.0168 -0.5603
19356TIP3    H179483   0.124   2.713  12.893  0.0867  0.3167  0.4940
19356TIP3    H279484  -0.022   2.746  12.876  0.3707  0.7407 -1.3377
19357TIP3   OH279485   2.430   3.787  11.129  0.3231 -0.4230  0.6336
19357TIP3    H179486   2.443   3.762  11.221 -0.5467 -0.7515  0.6867
19357TIP3    H279487   2.335   3.779  11.116  0.3353  0.3997 -0.0736
19358TIP3   OH279488   6.800   6.676   1.038 -0.6233  0.3592 -0.0681
19358TIP3    H179489   6.853   6.633   1.105 -0.8411  0.3328  0.0880
19358TIP3    H279490   6.864   6.723   0.983  0.0942 -3.0893 -2.5239
19359TIP3   OH279491   0.006   5.594   4.600  0.0184  0.0444 -0.5451
19359TIP3    H179492  -0.023   5.570   4.688  1.0874 -2.4296 -0.7644
19359TIP3    H279493  -0.066   5.644   4.563 -1.7645 -1.4847  0.6800
19360TIP3   OH279494   0.524   3.115  16.539 -0.7288  0.0802  0.0662
19360TIP3    H179495   0.571   3.121  16.456  1.8818 -0.2536  1.4183
19360TIP3    H279496   0.510   3.206  16.566 -0.5731  0.1792 -0.1881
19361TIP3   OH279497   3.414   0.554   4.463  0.0870 -0.1436  0.3798
19361TIP3    H179498   3.501   0.577   4.432  0.0490  0.0303  0.4023
19361TIP3    H279499   3.406   0.460   4.445  0.4091 -0.2310  0.6940
19362TIP3   OH279500   5.741   3.500  16.078 -0.1704 -0.1357 -0.1286
19362TIP3    H179501   5.717   3.541  16.162  0.2415  2.1740 -1.0643
19362TIP3    H279502   5.834   3.520  16.068 -0.3490  0.1372 -1.3979
19363TIP3   OH279503   6.427   0.152  15.427  0.3530 -0.1594 -0.9297
19363TIP3    H179504   6.488   0.133  15.499 -0.3336 -1.7864 -0.7414
19363TIP3    H279505   6.369   0.220  15.462  1.4820  0.7985 -0.8193
19364TIP3   OH279506   3.141   1.913   1.051 -0.1632 -0.1275  0.0829
19364TIP3    H179507   3.147   1.819   1.035 -0.6783 -0.3508  1.1916
19364TIP3    H279508   3.144   1.922   1.146  0.2253  1.0072 -0.0212
19365TIP3   OH279509   2.675   3.056   5.886  0.1680 -0.2821 -0.5111
19365TIP3    H179510   2.598   3.052   5.943  0.6500 -1.3571  0.0912
19365TIP3    H279511   2.691   3.150   5.874 -0.1021 -0.0356  0.9191
19366TIP3   OH279512   3.841   4.038   3.103  0.4405 -0.2300 -0.3076
19366TIP3    H179513   3.885   4.122   3.114 -2.8847  1.4898  1.3954
19366TIP3    H279514   3.859   3.990   3.183  0.1909 -0.0137 -0.1206
19367TIP3   OH279515   0.037   5.050  15.686  0.6854  0.6467  0.6062
19367TIP3    H179516   0.045   4.984  15.755  2.2348 -0.9268 -0.9782
19367TIP3    H279517   0.102   5.116  15.708  1.0525  0.2370  0.7622
19368TIP3   OH279518   5.739   6.029   5.389 -0.1654 -0.1360  0.3068
19368TIP3    H179519   5.668   6.054   5.330 -0.5373 -0.0907  0.7747
19368TIP3    H279520   5.741   6.098   5.455  0.5013  0.0147  0.1370
19369TIP3   OH279521   5.450   3.376  11.913 -0.5677  0.3704  0.5705
19369TIP3    H179522   5.382   3.395  11.978 -1.4230 -0.4630 -0.0557
19369TIP3    H279523   5.403   3.339  11.839  0.4923  0.5235 -0.1993
19370TIP3   OH279524   3.294   3.342  11.720 -0.0964 -0.7097 -0.2164
19370TIP3    H179525   3.295   3.269  11.658 -1.4400 -1.2158  0.3193
19370TIP3    H279526   3.222   3.398  11.691 -0.2640 -0.5655  0.4433
19371TIP3   OH279527   5.757   0.101   0.283  0.5523 -0.1291 -0.1100
19371TIP3    H179528   5.829   0.059   0.235  0.9346 -0.0063  0.3581
19371TIP3    H279529   5.705   0.143   0.215  0.7435 -0.4926 -0.4847
19372TIP3   OH279530   2.316   3.916   1.885  0.1924 -0.2179 -0.1022
19372TIP3    H179531   2.314   3.913   1.789  0.8046  0.6743 -0.1524
19372TIP3    H279532   2.405   3.892   1.908  0.0156 -0.5349  0.2544
19373TIP3   OH279533   1.035   3.397  14.321 -0.1400 -0.2191  0.2461
19373TIP3    H179534   0.961   3.337  14.319  0.3971 -0.9462  1.2104
19373TIP3    H279535   1.111   3.341  14.341  0.7888  0.4012 -1.2812
19374TIP3   OH279536   1.773   6.464   0.692  0.2538 -0.4719 -0.1390
19374TIP3    H179537   1.719   6.536   0.659  0.6273 -0.1439 -0.0382
19374TIP3    H279538   1.720   6.385   0.676 -0.5479 -0.0960  0.5707
19375TIP3   OH279539   3.747   3.757   5.048  0.6115  0.3892 -0.1996
19375TIP3    H179540   3.762   3.733   5.140  1.3842 -0.5660 -0.5517
19375TIP3    H279541   3.823   3.721   5.002  0.2229  0.8489 -1.2142
19376TIP3   OH279542   6.321   0.509   4.211  0.0345  0.3190  0.0133
19376TIP3    H179543   6.265   0.445   4.254 -3.4361  2.4134 -0.9551
19376TIP3    H279544   6.357   0.562   4.283 -0.6536 -0.0144  0.6144
19377TIP3   OH279545   5.349   1.706   5.558 -0.0904  0.3144  0.8535
19377TIP3    H179546   5.367   1.793   5.592  1.4122 -0.2917  1.7093
19377TIP3    H279547   5.421   1.652   5.591 -0.2600 -0.9747 -0.7497
19378TIP3   OH279548   6.000   1.678   0.563 -0.6191  0.3704  0.0471
19378TIP3    H179549   6.047   1.647   0.640 -0.0132  0.7672 -0.1521
19378TIP3    H279550   5.910   1.691   0.593 -0.1814  1.4856  0.9733
19379TIP3   OH279551   5.267   4.548  13.007  0.1781  0.0215  0.6695
19379TIP3    H179552   5.213   4.557  12.929  0.7920 -0.3966  0.1871
19379TIP3    H279553   5.240   4.465  13.046  0.0576  0.1013  0.7569
19380TIP3   OH279554   1.338   5.614  12.755  0.3610 -0.2882 -1.0396
19380TIP3    H179555   1.337   5.538  12.698  0.6947 -0.1096 -1.2827
19380TIP3    H279556   1.417   5.662  12.731 -0.9955  1.3602 -2.4921
19381TIP3   OH279557   0.486   1.964  11.117  0.6685  0.3022  1.0780
19381TIP3    H179558   0.502   1.980  11.024  1.3543  0.3005  1.1858
19381TIP3    H279559   0.572   1.942  11.152  0.9217  2.8049  2.2270
19382TIP3   OH279560   4.197   3.789   1.405 -0.0103  0.3466  0.0503
19382TIP3    H179561   4.238   3.862   1.359 -0.1874  1.4533  1.5632
19382TIP3    H279562   4.130   3.757   1.344  1.8892 -0.4040 -1.7560
19383TIP3   OH279563   5.369   0.398  16.332  0.3055 -0.5206 -0.0526
19383TIP3    H179564   5.286   0.433  16.301  0.1745 -1.5593 -0.9175
19383TIP3    H279565   5.363   0.402  16.428 -1.0652 -1.3444 -0.0933
19384TIP3   OH279566   1.194   2.423  16.787  0.2240  0.2053 -0.0091
19384TIP3    H179567   1.266   2.386  16.837 -0.2288  0.5337  0.9060
19384TIP3    H279568   1.234   2.452  16.705  0.5404 -2.5022 -0.8943
19385TIP3   OH279569   5.649   1.181   4.524 -0.7212 -0.2234 -0.2451
19385TIP3    H179570   5.713   1.250   4.541 -0.4154 -0.2455 -1.2632
19385TIP3    H279571   5.564   1.222   4.545 -0.5513  0.4836 -0.8989
19386TIP3   OH279572   5.495   3.393   0.875  0.0184  0.3348  0.3064
19386TIP3    H179573   5.521   3.306   0.844 -0.2665  0.2227  0.3749
19386TIP3    H279574   5.567   3.421   0.931 -0.3032 -0.2590  1.0398
19387TIP3   OH279575   2.352   5.107  14.395 -0.0249  0.0856  0.4677
19387TIP3    H179576   2.290   5.058  14.449 -0.7949  1.0614  0.4862
19387TIP3    H279577   2.356   5.058  14.313 -1.5518  0.5124  0.1158
19388TIP3   OH279578   3.069   2.804   5.722  0.9396  0.4689  0.0048
19388TIP3    H179579   3.138   2.769   5.665  1.9694  0.9278  0.9326
19388TIP3    H279580   3.101   2.789   5.811 -0.8998 -0.7724  0.5251
19389TIP3   OH279581   5.146   0.777  12.493  0.3762 -0.1081  0.2191
19389TIP3    H179582   5.183   0.704  12.442 -0.7732 -1.2578  0.9800
19389TIP3    H279583   5.196   0.777  12.574 -0.6226 -1.0546  0.8541
19390TIP3   OH279584   3.068   0.262  15.067 -0.7047 -0.5873  0.7192
19390TIP3    H179585   3.016   0.186  15.091  0.8155 -2.3510 -1.1439
19390TIP3    H279586   3.033   0.290  14.983 -0.3478 -0.1132  0.7204
19391TIP3   OH279587   4.959   1.994  16.065 -0.2194 -0.0468 -0.1248
19391TIP3    H179588   4.963   1.900  16.083 -1.2382 -0.1789 -0.5169
19391TIP3    H279589   4.901   2.030  16.132 -0.3391  0.1938 -0.3527
19392TIP3   OH279590   4.800   3.374   1.327  0.0063 -0.0619  0.7502
19392TIP3    H179591   4.753   3.331   1.398  2.1804  2.2189  3.8116
19392TIP3    H279592   4.822   3.303   1.267 -3.0852 -1.9022  1.5253
19393TIP3   OH279593   2.870   2.484  11.979  0.0237 -0.0916  0.2379
19393TIP3    H179594   2.811   2.444  12.042 -0.6059  1.4942  0.6956
19393TIP3    H279595   2.909   2.558  12.025 -1.0912  1.6381 -1.4557
19394TIP3   OH279596   4.788   3.426  16.166 -0.1887 -0.1435 -0.5840
19394TIP3    H179597   4.873   3.467  16.153 -1.1840  2.1385 -0.3413
19394TIP3    H279598   4.802   3.364  16.238  0.7532  2.0954  1.2977
19395TIP3   OH279599   2.035   6.110   1.316  0.1334 -0.2259  0.2135
19395TIP3    H179600   2.093   6.145   1.383  0.6607 -2.0313  0.7707
19395TIP3    H279601   1.960   6.077   1.365  0.1543 -0.8262 -0.1508
19396TIP3   OH279602   3.430   3.562   7.102 -0.5198  0.0533  0.1048
19396TIP3    H179603   3.435   3.657   7.117 -0.8303 -0.0222  0.7177
19396TIP3    H279604   3.417   3.554   7.007  1.1802  0.5602 -0.2058
19397TIP3   OH279605   1.844   2.465   6.157 -0.4177  0.3542  0.2358
19397TIP3    H179606   1.927   2.418   6.155 -0.7113 -0.1566 -1.0981
19397TIP3    H279607   1.792   2.427   6.086 -0.8965  2.2604 -0.5212
19398TIP3   OH279608   0.679   0.153  11.479 -0.1917 -0.5247  0.1861
19398TIP3    H179609   0.737   0.224  11.507  1.6225 -1.7559 -0.3061
19398TIP3    H279610   0.673   0.162  11.384  0.2494 -1.1535  0.0905
19399TIP3   OH279611   4.409   2.275  12.495 -0.2692  0.1211 -0.1034
19399TIP3    H179612   4.486   2.219  12.502 -0.5107 -0.4661 -1.6631
19399TIP3    H279613   4.445   2.363  12.484  0.3387 -0.3556 -2.8514
19400TIP3   OH279614   3.520   6.336   1.123 -0.4537  0.3005  0.9677
19400TIP3    H179615   3.601   6.370   1.084 -0.8920 -0.8377 -1.1043
19400TIP3    H279616   3.549   6.265   1.181  0.1149  0.8645  1.3838
19401TIP3   OH279617   5.671   0.478  11.424 -0.2786  0.0758 -0.0671
19401TIP3    H179618   5.622   0.446  11.499  0.5440 -1.9618 -0.3208
19401TIP3    H279619   5.604   0.506  11.361 -1.0078  0.1466  0.7314
19402TIP3   OH279620   6.649   3.396  13.606 -0.1135 -0.3074 -0.1211
19402TIP3    H179621   6.667   3.303  13.588  0.3412 -0.4188  0.8740
19402TIP3    H279622   6.602   3.426  13.528 -0.4359 -1.4218 -0.3800
19403TIP3   OH279623   4.927   6.460  15.902 -0.3612 -0.0133 -0.1285
19403TIP3    H179624   4.930   6.365  15.894 -0.6885 -0.0208 -0.1632
19403TIP3    H279625   4.837   6.484  15.880 -0.4069  0.2641  0.3450
19404TIP3   OH279626   1.832   6.199  12.870 -0.2068 -0.0256  0.4844
19404TIP3    H179627   1.761   6.148  12.909  0.7078 -0.7968  1.2099
19404TIP3    H279628   1.902   6.196  12.936  0.8051 -0.0166 -0.5597
19405TIP3   OH279629   3.546   2.285   5.940 -0.3400 -0.7215  0.1546
19405TIP3    H179630   3.503   2.213   5.894 -0.8645  0.2941 -1.0242
19405TIP3    H279631   3.524   2.362   5.888 -0.1193  0.3493  1.6009
19406TIP3   OH279632   2.488   4.929   2.753 -0.0121  0.6829  0.2222
19406TIP3    H179633   2.539   4.875   2.693  0.4923  1.2626  0.1235
19406TIP3    H279634   2.451   4.867   2.816  0.1109  0.1665 -0.2103
19407TIP3   OH279635   5.779   0.210  14.080  0.0396  0.2194 -0.5343
19407TIP3    H179636   5.863   0.223  14.037 -0.0406  1.9210 -0.2333
19407TIP3    H279637   5.714   0.229  14.013 -0.1312 -0.9689 -0.7301
19408TIP3   OH279638   0.220   0.288  16.284 -0.0505  0.4417  0.1672
19408TIP3    H179639   0.287   0.219  16.294  0.9298  1.5554  1.9463
19408TIP3    H279640   0.138   0.240  16.270  1.0503 -0.9755 -2.0411
19409TIP3   OH279641   4.771   0.808  11.399  0.1485 -0.0008  0.0865
19409TIP3    H179642   4.737   0.881  11.451  0.6801 -0.1132  0.6013
19409TIP3    H279643   4.857   0.789  11.438 -0.0747 -1.0366  0.0898
19410TIP3   OH279644   0.564   5.621  12.722  0.1468  0.5245 -0.5550
19410TIP3    H179645   0.613   5.672  12.786  1.0473 -0.6320 -0.2941
19410TIP3    H279646   0.479   5.606  12.765  0.6487 -0.0248  0.2882
19411TIP3   OH279647   4.851   4.993  16.342 -0.7101  0.2202  0.1904
19411TIP3    H179648   4.866   5.074  16.390  0.3180 -0.2918  0.7470
19411TIP3    H279649   4.939   4.959  16.323 -1.1193 -0.4611 -0.5643
19412TIP3   OH279650   2.855   1.365  16.682 -0.3660 -0.2047 -0.1013
19412TIP3    H179651   2.845   1.360  16.777 -2.5655 -1.1682 -0.3259
19412TIP3    H279652   2.811   1.446  16.657 -0.5281 -0.3810 -0.3917
19413TIP3   OH279653   3.095   0.510   4.997 -0.0602 -0.0803 -1.1339
19413TIP3    H179654   3.056   0.572   4.935  1.0416  0.7644 -1.0099
19413TIP3    H279655   3.030   0.501   5.066 -0.1849  1.0486 -1.0898
19414TIP3   OH279656   4.357   0.623  11.143  0.2168 -0.3401 -0.7640
19414TIP3    H179657   4.392   0.666  11.221  1.1377 -0.5577 -1.0548
19414TIP3    H279658   4.326   0.695  11.088  1.2873 -0.0647 -1.0233
19415TIP3   OH279659   1.647   0.211   0.213 -0.5925  0.1126  0.1342
19415TIP3    H179660   1.704   0.276   0.254 -0.0847  1.1704 -2.0821
19415TIP3    H279661   1.558   0.236   0.239 -0.4486  2.0617 -1.0614
19416TIP3   OH279662   2.088   4.876  13.905 -0.0467 -0.3667 -0.0386
19416TIP3    H179663   2.068   4.784  13.923  2.5664 -1.0596 -0.3412
19416TIP3    H279664   2.154   4.900  13.970 -0.6969  1.3264  0.0417
19417TIP3   OH279665   3.541   0.690   0.372  0.4080  0.1093  0.4578
19417TIP3    H179666   3.576   0.631   0.305 -0.4046 -0.1702  0.2682
19417TIP3    H279667   3.553   0.777   0.335  2.1449  0.1134  0.9869
19418TIP3   OH279668   2.310   3.605  15.417  0.2012 -0.6874  0.3267
19418TIP3    H179669   2.373   3.662  15.373 -1.1307  0.5885  0.0221
19418TIP3    H279670   2.322   3.624  15.510  0.1401 -0.3203  0.2593
19419TIP3   OH279671   2.044   3.714  12.534  0.7486  0.3762  0.1432
19419TIP3    H179672   1.965   3.767  12.545  0.8351  0.6313 -0.4098
19419TIP3    H279673   2.015   3.624  12.544  0.2718  0.4371 -0.6643
19420TIP3   OH279674   1.176   1.080   6.512  0.3156 -0.2989 -0.3430
19420TIP3    H179675   1.190   1.171   6.538 -0.0827 -0.7773  1.7019
19420TIP3    H279676   1.091   1.057   6.549  0.9079 -1.8116  0.1520
19421TIP3   OH279677   3.620   0.902  15.897  0.3257  0.1778 -0.4731
19421TIP3    H179678   3.652   0.862  15.816 -1.2395  0.5506 -1.3182
19421TIP3    H279679   3.697   0.942  15.936  1.2978 -0.8528 -1.2739
19422TIP3   OH279680   6.056   5.667   0.036  0.7883 -0.5137  0.3349
19422TIP3    H179681   6.099   5.717   0.105  1.8963 -1.9771  0.7475
19422TIP3    H279682   6.117   5.670  -0.038  1.1362 -1.6613  0.5469
19423TIP3   OH279683   1.447   3.256   0.386  0.4111  0.2788  0.3778
19423TIP3    H179684   1.353   3.246   0.373  0.6150 -0.5082 -0.5844
19423TIP3    H279685   1.457   3.271   0.481 -0.6127 -0.4616  0.6149
19424TIP3   OH279686   3.605   4.329   0.013 -0.5093  0.5601 -0.4115
19424TIP3    H179687   3.630   4.369  -0.070 -1.2956  3.1333  0.4965
19424TIP3    H279688   3.676   4.350   0.073  0.4041 -1.8982 -0.5007
19425TIP3   OH279689   1.313   6.350   3.942 -0.4862 -0.3068  0.9787
19425TIP3    H179690   1.282   6.267   3.904  0.7243 -0.7573  0.9414
19425TIP3    H279691   1.294   6.341   4.036 -0.1801 -0.7200  1.0067
19426TIP3   OH279692   6.066   3.411   3.454  0.7313 -0.4124  0.0065
19426TIP3    H179693   6.038   3.321   3.439 -0.0957  0.0179 -1.1910
19426TIP3    H279694   6.069   3.420   3.550  2.4007 -2.1585  0.1789
19427TIP3   OH279695   4.481   6.046   3.077  0.2603  0.0871  0.2556
19427TIP3    H179696   4.494   6.068   3.169  0.6913  0.1325  0.1866
19427TIP3    H279697   4.387   6.032   3.069  0.2336 -0.0287  0.7258
19428TIP3   OH279698   1.893   1.463   3.835  0.2155  0.0537 -0.3702
19428TIP3    H179699   1.857   1.375   3.832 -1.6283  0.7232  0.5575
19428TIP3    H279700   1.816   1.520   3.847  1.5908  1.4890  3.0115
19429TIP3   OH279701   4.432   2.753   2.054  0.3222  0.4918  0.2536
19429TIP3    H179702   4.463   2.765   2.143  1.1714 -0.4140  0.0958
19429TIP3    H279703   4.451   2.837   2.010 -2.4646  1.9329  1.5284
19430TIP3   OH279704   4.195   1.770   1.242  0.6888 -0.4183 -0.1194
19430TIP3    H179705   4.144   1.691   1.263  3.0441 -1.7115  1.2425
19430TIP3    H279706   4.148   1.841   1.286 -1.3185 -1.0508 -1.1053
19431TIP3   OH279707   3.231   5.002  15.547 -0.6471 -0.2718 -0.4957
19431TIP3    H179708   3.227   4.914  15.582  0.2178 -0.1904 -0.1753
19431TIP3    H279709   3.298   4.998  15.479 -1.2584 -0.0738 -1.1267
19432TIP3   OH279710   5.756   5.003  10.713 -0.4932  0.2222  0.2442
19432TIP3    H179711   5.732   4.912  10.698 -0.8554  0.1257  1.2981
19432TIP3    H279712   5.847   5.000  10.743  0.3213  0.4373 -2.0622
19433TIP3   OH279713   3.298   3.299   4.031 -0.5807  0.0060  0.1143
19433TIP3    H179714   3.335   3.317   3.945 -1.3705 -0.5291 -0.3485
19433TIP3    H279715   3.364   3.331   4.093 -0.1700  0.7235 -0.6815
19434TIP3   OH279716   6.109   6.159   0.082 -0.0799  0.4606  0.5129
19434TIP3    H179717   6.064   6.227   0.032 -2.6499  0.2220  2.2784
19434TIP3    H279718   6.144   6.205   0.158  1.3423  0.3739 -0.0763
19435TIP3   OH279719   5.432   1.235  15.386  0.0907 -0.2271 -0.0701
19435TIP3    H179720   5.488   1.282  15.448 -0.2494 -1.1099  0.9264
19435TIP3    H279721   5.437   1.143  15.413 -0.4810 -0.5605 -1.0326
19436TIP3   OH279722   0.604   0.454   2.135  0.0001  0.3697  0.2917
19436TIP3    H179723   0.528   0.402   2.160 -0.1796  0.3886 -0.2141
19436TIP3    H279724   0.577   0.545   2.147 -0.1666  0.3847 -0.2071
19437TIP3   OH279725   6.097   4.858  15.180 -0.0756  0.1955  0.4286
19437TIP3    H179726   6.080   4.802  15.257 -0.0454 -0.7634 -0.2383
19437TIP3    H279727   6.146   4.932  15.215 -1.1546  0.4183  1.5412
19438TIP3   OH279728   5.748   6.204  15.479 -0.3053  0.3427 -0.0979
19438TIP3    H179729   5.674   6.241  15.430 -0.4765 -3.0839 -2.8585
19438TIP3    H279730   5.824   6.220  15.422  0.1651 -0.5714  0.2551
19439TIP3   OH279731   3.865   4.308   1.368  0.1338  0.0430 -0.4198
19439TIP3    H179732   3.805   4.262   1.426 -1.2288  2.2857  0.1001
19439TIP3    H279733   3.951   4.293   1.405 -0.4217 -0.8782  0.5452
19440TIP3   OH279734   2.280   0.226   3.862 -0.2522  0.1129 -0.9897
19440TIP3    H179735   2.244   0.261   3.781 -0.6011  1.6657 -0.2152
19440TIP3    H279736   2.293   0.303   3.918 -0.3238 -0.9303  0.5443
19441TIP3   OH279737   2.509   4.630   4.840  0.2126  0.5487  0.2268
19441TIP3    H179738   2.530   4.684   4.764  0.1344 -0.2954 -0.4074
19441TIP3    H279739   2.517   4.540   4.809 -1.5196  0.1740  0.7200
19442TIP3   OH279740   5.927   4.661   0.628  0.3491  0.0771 -0.5934
19442TIP3    H179741   5.886   4.582   0.662  0.1906 -0.8421 -2.7691
19442TIP3    H279742   6.011   4.666   0.672 -0.4428 -0.1773  1.0240
19443TIP3   OH279743   3.822   6.482   2.827 -0.6759 -0.3827  0.4853
19443TIP3    H179744   3.850   6.554   2.771  0.2916 -0.5746  0.7023
19443TIP3    H279745   3.727   6.487   2.827 -0.6254  1.9494  1.8223
19444TIP3   OH279746   3.427   2.413   3.367  0.7495 -0.1339 -0.5344
19444TIP3    H179747   3.485   2.357   3.419 -1.2483 -1.1430  0.7440
19444TIP3    H279748   3.446   2.391   3.276  2.1705 -0.5879 -0.1473
19445TIP3   OH279749   6.650   3.820  12.399 -0.0445 -0.5760 -0.6532
19445TIP3    H179750   6.563   3.853  12.420 -0.7322 -2.0431 -1.0430
19445TIP3    H279751   6.644   3.793  12.307 -0.5873 -4.6944  0.3864
19446TIP3   OH279752   5.464   2.180  15.894 -0.2960 -0.3658  0.3769
19446TIP3    H179753   5.486   2.181  15.801 -0.1352  1.9715  0.3675
19446TIP3    H279754   5.372   2.154  15.897  0.0481 -1.7437 -0.2912
19447TIP3   OH279755   4.791   5.758   5.692 -0.1530 -0.0911 -0.1881
19447TIP3    H179756   4.732   5.807   5.634  1.0215  0.6536 -0.7991
19447TIP3    H279757   4.736   5.730   5.765 -0.8031  2.4873  0.4007
19448TIP3   OH279758   4.701   5.389  12.303 -0.1496 -0.6683 -0.4310
19448TIP3    H179759   4.789   5.356  12.284 -0.7227 -1.7959 -1.2474
19448TIP3    H279760   4.706   5.483  12.287  0.7297 -0.8244 -1.1363
19449TIP3   OH279761   6.620   6.759  10.954  0.0799 -0.0194 -0.1247
19449TIP3    H179762   6.590   6.697  10.888  0.7781  0.4166 -0.8696
19449TIP3    H279763   6.571   6.736  11.033 -1.2845 -0.1065 -0.9651
19450TIP3   OH279764   3.251   5.989   4.427  0.5067 -0.4163  0.4830
19450TIP3    H179765   3.225   6.062   4.371 -1.6328 -0.5548  1.1983
19450TIP3    H279766   3.255   5.914   4.367 -1.8634 -0.5850  0.4373
19451TIP3   OH279767   3.883   0.776   1.591  0.1534 -0.7630  0.2177
19451TIP3    H179768   3.890   0.692   1.546 -0.5173 -0.2138 -0.9754
19451TIP3    H279769   3.796   0.809   1.566 -0.4789 -0.6504  2.3573
19452TIP3   OH279770   2.148   6.718   5.673 -0.0537 -0.2509  0.1768
19452TIP3    H179771   2.149   6.644   5.734 -0.5774 -1.6683 -1.4609
19452TIP3    H279772   2.119   6.793   5.726  0.6514 -1.1582  1.9110
19453TIP3   OH279773   1.856   0.605   0.356  0.4596  0.4880 -0.3613
19453TIP3    H179774   1.885   0.611   0.447  0.0342 -1.0521 -0.1074
19453TIP3    H279775   1.908   0.533   0.319 -2.6497 -2.1926  0.0181
19454TIP3   OH279776   6.557   1.670  12.555  0.1816  0.3163 -0.0536
19454TIP3    H179777   6.619   1.732  12.593  1.4433 -0.5029 -0.7082
19454TIP3    H279778   6.575   1.673  12.461  0.5503 -1.3277 -0.0574
19455TIP3   OH279779   1.841   5.628   4.499 -0.1741  0.2413 -0.0660
19455TIP3    H179780   1.927   5.667   4.482 -0.2813  0.9945  1.0084
19455TIP3    H279781   1.817   5.659   4.587 -0.6541 -1.5810  0.4892
19456TIP3   OH279782   6.016   4.702   3.327 -0.4202 -0.0070 -0.0155
19456TIP3    H179783   5.993   4.758   3.252 -0.4449  1.6388  1.1760
19456TIP3    H279784   6.092   4.745   3.367  1.8341 -2.7101 -1.0272
19457TIP3   OH279785   1.469   2.378  10.600 -1.0654 -0.7088  0.2585
19457TIP3    H179786   1.485   2.325  10.522 -0.5637 -0.8625  0.4647
19457TIP3    H279787   1.428   2.317  10.662  2.5235 -1.8419  1.7514
19458TIP3   OH279788   2.179   3.121  11.880 -0.2980 -0.4473  0.5784
19458TIP3    H179789   2.156   3.183  11.949  1.5167 -1.5611  2.3012
19458TIP3    H279790   2.275   3.121  11.879 -0.2381 -2.7627  0.2453
19459TIP3   OH279791   6.646   2.475   2.875 -0.6628  0.5493 -0.4508
19459TIP3    H179792   6.708   2.496   2.805 -0.3467  1.7989  0.1705
19459TIP3    H279793   6.701   2.445   2.947 -0.9479 -0.2587 -0.5644
19460TIP3   OH279794   5.254   2.848   5.886 -0.1238 -0.3429  0.3007
19460TIP3    H179795   5.241   2.915   5.952  0.1636  0.9203 -0.8720
19460TIP3    H279796   5.187   2.782   5.904  1.2292 -1.0804  3.0722
19461TIP3   OH279797   3.632   2.230   1.641  0.5689 -1.0207 -0.8454
19461TIP3    H179798   3.537   2.245   1.647  0.9266  2.4003 -1.8135
19461TIP3    H279799   3.658   2.271   1.558  3.1604 -0.1535  0.2920
19462TIP3   OH279800   2.915   3.822   2.404  0.2382 -0.0829 -0.3422
19462TIP3    H179801   2.824   3.828   2.378 -0.0528 -0.2449  0.6066
19462TIP3    H279802   2.923   3.882   2.478  0.8401 -0.2508 -0.2646
19463TIP3   OH279803   2.934   1.080   6.222 -0.1616  0.1573  0.2619
19463TIP3    H179804   3.024   1.048   6.233 -0.3670 -0.0160  1.5902
19463TIP3    H279805   2.889   1.008   6.177  0.1481 -0.1331  0.4039
19464TIP3   OH279806   5.872   5.778  13.922  0.3366  0.0679 -0.0787
19464TIP3    H179807   5.779   5.776  13.945  0.0740  0.3737 -1.0627
19464TIP3    H279808   5.898   5.685  13.921 -0.0931 -0.0527 -0.3306
19465TIP3   OH279809   5.703   5.140   4.158  0.3534  0.0395 -0.1635
19465TIP3    H179810   5.646   5.132   4.081 -0.2307 -2.0392  0.4082
19465TIP3    H279811   5.690   5.230   4.188 -3.6101 -0.5937  0.6163
19466TIP3   OH279812   6.693   4.819   3.942  0.7623 -0.4264 -0.7587
19466TIP3    H179813   6.646   4.778   4.014 -2.1223  4.0515  0.3096
19466TIP3    H279814   6.626   4.833   3.875  2.7919 -1.9484 -3.3089
19467TIP3   OH279815   3.788   2.808  12.908 -0.3770  0.4525  0.1618
19467TIP3    H179816   3.814   2.844  12.993  1.4161  0.2843 -0.2858
19467TIP3    H279817   3.832   2.864  12.844 -0.1777 -0.5623 -0.6099
19468TIP3   OH279818   2.561   1.770  13.522  0.7026 -0.1186 -0.6261
19468TIP3    H179819   2.634   1.821  13.556  0.8600 -0.1026 -0.9850
19468TIP3    H279820   2.537   1.813  13.441  0.5696 -0.3729 -0.7232
19469TIP3   OH279821   3.927   1.329   2.585  0.2525 -0.2767 -0.5337
19469TIP3    H179822   3.974   1.246   2.587 -0.5131 -0.7665 -1.6106
19469TIP3    H279823   3.845   1.311   2.631  0.3003  0.0181 -0.3353
19470TIP3   OH279824   6.262   6.349  12.386 -0.2698  0.2199 -0.1076
19470TIP3    H179825   6.352   6.370  12.410 -0.6523  2.2583 -0.2574
19470TIP3    H279826   6.236   6.279  12.447  1.2855 -0.1804  0.1352
19471TIP3   OH279827   1.843   1.097  15.037 -0.1550  0.1936  0.1927
19471TIP3    H179828   1.828   1.182  14.995 -0.4147  0.5997  1.0842
19471TIP3    H279829   1.797   1.034  14.981  0.5274  0.5425 -0.7982
19472TIP3   OH279830   5.581   5.380   4.741  0.5375 -0.1641  0.3140
19472TIP3    H179831   5.669   5.416   4.731  0.7604  0.1165  2.8396
19472TIP3    H279832   5.558   5.396   4.832 -1.9104 -0.7758 -0.1241
19473TIP3   OH279833   6.193   5.266   0.426 -0.7569 -0.5933 -0.0697
19473TIP3    H179834   6.269   5.289   0.479 -1.2712 -1.1995  0.9740
19473TIP3    H279835   6.227   5.209   0.358 -0.0015  0.5812 -0.7111
19474TIP3   OH279836   2.441   6.275   3.387 -0.6747 -0.0938 -0.1545
19474TIP3    H179837   2.421   6.213   3.317 -3.4066 -0.0597  0.4650
19474TIP3    H279838   2.417   6.360   3.352 -0.5428  0.1244  0.2751
19475TIP3   OH279839   1.214   5.950  14.350  0.1191  0.0301 -0.1586
19475TIP3    H179840   1.252   6.026  14.394 -0.1788  0.4844 -0.6702
19475TIP3    H279841   1.286   5.889  14.339 -0.0148 -0.5986  1.9922
19476TIP3   OH279842   6.183   6.424   2.828 -0.4840  0.4300  0.2921
19476TIP3    H179843   6.191   6.519   2.815 -0.7445  0.4642  0.3785
19476TIP3    H279844   6.127   6.415   2.905 -0.9689  0.2009 -0.0822
19477TIP3   OH279845   0.747   0.407   5.322  0.3324  0.0192 -0.6924
19477TIP3    H179846   0.763   0.391   5.229  0.8970 -2.0057 -0.2960
19477TIP3    H279847   0.730   0.501   5.327 -1.1377 -0.0302 -3.0266
19478TIP3   OH279848   0.761   4.979  16.347 -0.0924  0.0739 -0.0773
19478TIP3    H179849   0.729   5.069  16.335  1.4896  0.7688  0.6609
19478TIP3    H279850   0.848   4.989  16.385 -0.7829 -1.8231  2.2093
19479TIP3   OH279851   0.055   4.301   1.991  0.5201  0.1768  0.5357
19479TIP3    H179852   0.055   4.392   1.960 -0.2279  0.8523  2.3379
19479TIP3    H279853  -0.025   4.294   2.044  0.3965 -1.6431  0.1638
19480TIP3   OH279854   1.904   5.903   4.185 -0.6019  0.3078 -0.2522
19480TIP3    H179855   1.886   5.949   4.103 -2.0388  1.3876  0.6240
19480TIP3    H279856   1.832   5.840   4.194 -0.0545 -0.3189 -0.1640
19481TIP3   OH279857   2.321   2.864  11.856 -0.2316 -0.0627 -0.1911
19481TIP3    H179858   2.353   2.774  11.856  3.8326  1.0677 -3.5535
19481TIP3    H279859   2.277   2.873  11.771 -1.4502  0.9283  0.5076
19482TIP3   OH279860   0.095   0.774   2.522 -0.3552  0.5211 -0.8905
19482TIP3    H179861   0.140   0.823   2.591 -1.0639  0.6895 -0.5286
19482TIP3    H279862   0.005   0.765   2.555 -0.0141 -1.9469 -0.4376
19483TIP3   OH279863   4.767   0.416  13.091 -0.0108  0.2198  0.9763
19483TIP3    H179864   4.804   0.461  13.015 -0.8725  0.9462  0.9752
19483TIP3    H279865   4.759   0.484  13.158  0.0346 -0.2533  1.4660
19484TIP3   OH279866   5.590   0.236  16.861  0.0392 -0.1651 -0.0081
19484TIP3    H179867   5.537   0.178  16.915  0.6803 -0.5429  0.2195
19484TIP3    H279868   5.676   0.235  16.901  0.4581 -0.2371 -0.8733
19485TIP3   OH279869   5.909   6.746  14.041  0.1124 -0.4438 -1.3049
19485TIP3    H179870   5.907   6.841  14.051  1.0330 -0.3491 -1.9335
19485TIP3    H279871   5.997   6.720  14.067 -0.4138 -1.2436 -0.2587
19486TIP3   OH279872   1.576   1.662   1.513 -0.2804 -0.2704  0.1223
19486TIP3    H179873   1.490   1.664   1.555 -0.3831  2.5623  0.0030
19486TIP3    H279874   1.621   1.739   1.549  1.7918 -1.0452 -0.6775
19487TIP3   OH279875   6.753   2.120  12.334 -0.3242  0.4110  0.0140
19487TIP3    H179876   6.696   2.045  12.352 -0.0390  0.3949  0.9120
19487TIP3    H279877   6.720   2.155  12.252 -2.1722  0.8914  0.8940
19488TIP3   OH279878   2.629   4.995  13.579 -0.1648  0.0164  0.5233
19488TIP3    H179879   2.562   4.970  13.643  0.1884 -2.5368  0.0015
19488TIP3    H279880   2.579   5.019  13.501 -0.5577  2.3070  1.3763
19489TIP3   OH279881   4.152   5.575   4.882  0.1501  0.4517 -0.2612
19489TIP3    H179882   4.183   5.649   4.934 -0.1664 -0.3333  1.0707
19489TIP3    H279883   4.156   5.500   4.941  0.1126 -0.5384 -1.4762
19490TIP3   OH279884   3.989   3.225  15.449  0.1523  0.4152  0.1613
19490TIP3    H179885   3.959   3.286  15.517 -0.1245  1.7938 -1.1463
19490TIP3    H279886   3.952   3.141  15.475 -2.1806  1.4271  0.3360
19491TIP3   OH279887   3.937   3.755   2.277  0.2313  0.3856  0.3194
19491TIP3    H179888   3.930   3.746   2.372 -0.6040  0.1645  0.2457
19491TIP3    H279889   3.968   3.845   2.264  0.6942  0.2968  0.8111
19492TIP3   OH279890   6.689   5.486  14.089  0.1307 -0.3695  0.2512
19492TIP3    H179891   6.691   5.478  13.993  0.6703  0.6225  0.1771
19492TIP3    H279892   6.596   5.489  14.110 -0.0217 -1.5279 -0.1476
19493TIP3   OH279893   4.967   1.586  15.422  0.1659 -0.7304 -0.2133
19493TIP3    H179894   4.948   1.578  15.515 -0.8895 -0.6368 -0.4130
19493TIP3    H279895   5.045   1.532  15.409  0.6355 -0.3232  0.8158
19494TIP3   OH279896   4.776   5.778   3.726  0.1629 -0.0700 -0.0821
19494TIP3    H179897   4.817   5.852   3.681 -1.7851 -0.2345 -2.3312
19494TIP3    H279898   4.690   5.810   3.751 -0.0146 -1.0316  0.5877
19495TIP3   OH279899   3.158   1.158  12.415 -0.7141 -0.2827  0.0976
19495TIP3    H179900   3.104   1.098  12.363 -0.0622 -0.5090 -0.3369
19495TIP3    H279901   3.216   1.199  12.351 -1.3806  1.0767  0.3485
19496TIP3   OH279902   4.856   3.953  14.346 -0.1869 -0.0811 -0.0591
19496TIP3    H179903   4.841   4.047  14.338  0.5845 -0.0620 -1.6168
19496TIP3    H279904   4.816   3.930  14.430 -0.0708  1.6911  0.5388
19497TIP3   OH279905   5.803   0.983   0.393  0.2057  0.3467 -0.8906
19497TIP3    H179906   5.837   0.940   0.472  2.3833  0.1982 -1.8458
19497TIP3    H279907   5.711   0.955   0.389  1.0369 -2.8941 -0.5237
19498TIP3   OH279908   2.205   4.968  11.249  0.6496  0.0884 -0.0362
19498TIP3    H179909   2.297   4.958  11.225  0.6338  0.6689 -0.3433
19498TIP3    H279910   2.183   4.886  11.294  1.2120 -0.2024 -0.2868
19499TIP3   OH279911   3.304   3.303  12.396  0.7351  0.3214 -0.3037
19499TIP3    H179912   3.276   3.214  12.419  0.6086 -0.1936 -2.2319
19499TIP3    H279913   3.227   3.357  12.409  0.7260  0.1162  0.5897
19500TIP3   OH279914   2.215   1.862   0.227  0.2819 -0.6360 -0.1528
19500TIP3    H179915   2.274   1.814   0.286  1.1568  0.8496  0.2339
19500TIP3    H279916   2.181   1.934   0.280  0.1756  0.0496 -1.1204
19501TIP3   OH279917   6.180   6.712  14.117 -0.3293  0.1912  0.2153
19501TIP3    H179918   6.233   6.789  14.096 -3.0723  2.3928  0.7874
19501TIP3    H279919   6.218   6.678  14.198  0.9950  0.8654 -0.0947
19502TIP3   OH279920   1.632   2.500  15.859  0.1841  0.0503  0.2666
19502TIP3    H179921   1.583   2.522  15.780  0.2384  0.7090  0.4083
19502TIP3    H279922   1.689   2.428  15.833  0.8489  0.8438 -0.5439
19503TIP3   OH279923   1.899   4.844  12.739 -0.1174  0.0001  0.1139
19503TIP3    H179924   1.817   4.853  12.786 -2.6612 -3.2593 -3.0714
19503TIP3    H279925   1.931   4.933  12.727 -2.8177  1.3383  2.0880
19504TIP3   OH279926   4.583   6.198  14.341  0.4396  0.1748 -0.4249
19504TIP3    H179927   4.569   6.291  14.326  1.0242  0.4792  0.7847
19504TIP3    H279928   4.559   6.185  14.433  0.1309 -0.9211 -0.6400
19505TIP3   OH279929   1.335   5.905   0.574 -0.2970 -0.6052  0.2821
19505TIP3    H179930   1.304   5.886   0.485  0.4492 -2.8054  0.4463
19505TIP3    H279931   1.260   5.947   0.617 -1.2018 -0.9356 -0.9168
19506TIP3   OH279932   3.964   4.993  12.260 -0.5540  0.5464  0.4639
19506TIP3    H179933   3.920   4.927  12.314 -0.4387 -0.8210 -1.0327
19506TIP3    H279934   3.900   5.064  12.251 -1.4276 -0.2182  0.5345
19507TIP3   OH279935   0.523   3.168   4.606  0.5166 -0.0687  0.1282
19507TIP3    H179936   0.616   3.190   4.593  0.6841 -1.1332 -0.6155
19507TIP3    H279937   0.490   3.154   4.517  0.1221 -1.5329  0.4842
19508TIP3   OH279938   1.478   6.157  14.755  0.0710  0.1931  0.4318
19508TIP3    H179939   1.398   6.199  14.786  1.0818  2.6721 -0.0845
19508TIP3    H279940   1.546   6.188  14.815  0.7704 -1.3738  0.4923
19509TIP3   OH279941   3.673   6.618   6.196  0.0403  0.4863 -0.1970
19509TIP3    H179942   3.658   6.531   6.160 -0.1344  0.2006  0.5531
19509TIP3    H279943   3.680   6.604   6.291  1.4387  1.0897 -0.1871
19510TIP3   OH279944   5.626   1.847   0.401 -0.2029 -0.3072  0.4591
19510TIP3    H179945   5.663   1.879   0.483 -0.7269  1.1637  0.1465
19510TIP3    H279946   5.575   1.921   0.367  0.0686 -0.8604 -1.2332
19511TIP3   OH279947   6.271   1.892  12.730 -0.4572  0.1479  0.1645
19511TIP3    H179948   6.204   1.950  12.766 -1.0635  0.2117 -1.0166
19511TIP3    H279949   6.351   1.913  12.779 -1.2101  0.3257  1.3420
19512TIP3   OH279950   5.019   5.598  15.799  0.2517  0.1994 -0.0869
19512TIP3    H179951   5.027   5.664  15.730  3.2437 -1.3774 -1.4813
19512TIP3    H279952   5.109   5.585  15.829 -0.3443 -2.5535  0.7796
19513TIP3   OH279953   2.438   2.374  15.605 -0.0595  0.0507 -0.6798
19513TIP3    H179954   2.367   2.350  15.546 -1.3392 -0.4403  0.9816
19513TIP3    H279955   2.485   2.292  15.622 -1.5687 -0.4763  1.3116
19514TIP3   OH279956   4.287   1.262   3.736  0.2194  0.1925  0.1168
19514TIP3    H179957   4.374   1.295   3.715  0.5917 -2.4037 -3.5668
19514TIP3    H279958   4.227   1.327   3.700  0.5625  1.5913  1.9480
19515TIP3   OH279959   3.869   6.075  14.549  0.5574  0.1507 -0.2081
19515TIP3    H179960   3.948   6.089  14.602 -0.1741 -1.4069  1.4255
19515TIP3    H279961   3.798   6.111  14.602  0.0685  0.9126 -1.3443
19516TIP3   OH279962   0.077   1.112   4.929  0.2087  0.5967  0.2466
19516TIP3    H179963   0.014   1.155   4.871  2.0445  2.1557 -0.7136
19516TIP3    H279964   0.039   1.026   4.946 -1.3870  0.8604 -1.5969
19517TIP3   OH279965   4.820   1.055   3.604  0.3443  0.1696 -0.3826
19517TIP3    H179966   4.810   1.105   3.684  0.2527  1.2598 -1.0594
19517TIP3    H279967   4.733   1.054   3.564  0.6943  0.9374 -1.2049
19518TIP3   OH279968   3.161   2.552   4.948  0.1916 -0.6185 -0.4389
19518TIP3    H179969   3.177   2.469   4.993 -1.3583  0.2779  1.9562
19518TIP3    H279970   3.222   2.613   4.989  0.0784 -0.1749 -0.9223
19519TIP3   OH279971   1.994   3.360   2.712 -0.5419 -0.4088 -0.0222
19519TIP3    H179972   1.908   3.400   2.719 -0.6942 -0.1753 -2.4616
19519TIP3    H279973   2.048   3.424   2.667  0.0804 -1.6636 -1.1528
19520TIP3   OH279974   3.191   2.913   0.500  0.3300 -0.5417 -0.0849
19520TIP3    H179975   3.273   2.960   0.517  0.2516 -0.9229  1.5057
19520TIP3    H279976   3.155   2.955   0.422  0.6090  1.6007  0.8668
19521TIP3   OH279977   3.015   1.742  11.678 -0.1019  0.6931  0.2173
19521TIP3    H179978   2.936   1.717  11.632  0.5689  0.6717 -0.9447
19521TIP3    H279979   2.991   1.822  11.725 -1.0827  0.1383  0.6849
19522TIP3   OH279980   0.215   5.155  15.209 -0.5617  0.9728  0.0875
19522TIP3    H179981   0.133   5.137  15.254 -0.1485  1.4590  1.0567
19522TIP3    H279982   0.255   5.227  15.258 -0.0288  1.4284 -0.9776
19523TIP3   OH279983   1.138   3.888  12.381  0.5459 -0.1865 -0.0550
19523TIP3    H179984   1.093   3.965  12.413 -0.4952 -0.7104 -0.2238
19523TIP3    H279985   1.132   3.894  12.285  0.4922 -0.4553 -0.0703
19524TIP3   OH279986   6.381   3.316  15.954  0.3998  0.3906 -0.2804
19524TIP3    H179987   6.362   3.408  15.968  0.1466  0.3346 -0.2438
19524TIP3    H279988   6.383   3.278  16.042  0.3824  0.3404 -0.3014
19525TIP3   OH279989   3.355   2.529  14.419  0.3301  0.1754 -0.8067
19525TIP3    H179990   3.408   2.472  14.363  0.3073  1.0021 -1.6989
19525TIP3    H279991   3.404   2.612  14.422  0.0688  0.3113 -0.0215
19526TIP3   OH279992   1.355   1.447   2.292 -0.3111  0.0486 -0.5165
19526TIP3    H179993   1.390   1.494   2.368  1.0307 -1.8885  0.1333
19526TIP3    H279994   1.369   1.355   2.312 -1.0459 -0.5729 -2.6065
19527TIP3   OH279995   1.610   3.449  12.296  0.2713  1.0805 -0.6037
19527TIP3    H179996   1.625   3.417  12.385  1.2821  3.1136  0.0088
19527TIP3    H279997   1.525   3.492  12.300 -0.3078  0.0242 -1.0044
19528TIP3   OH279998   0.375   4.275   1.957  0.1788 -0.1446  0.0509
19528TIP3    H179999   0.292   4.236   1.984 -0.4018  0.2608 -1.0724
19528TIP3    H280000   0.363   4.294   1.864  0.3374  2.8303  0.5362
19529TIP3   OH280001   4.211   0.449  14.248  0.4610  0.4032 -0.4653
19529TIP3    H180002   4.258   0.389  14.306 -0.4160  0.5257  0.3938
19529TIP3    H280003   4.183   0.521  14.304 -0.7284  0.3473 -0.9424
19530TIP3   OH280004   1.222   3.055  11.126 -0.5480 -0.5442 -0.2979
19530TIP3    H180005   1.170   3.109  11.186  0.2766  0.7431 -0.6869
19530TIP3    H280006   1.168   3.046  11.048 -0.2896  0.6098 -0.6223
19531TIP3   OH280007   0.380   6.245  11.708 -0.1312  0.3365 -0.0449
19531TIP3    H180008   0.342   6.250  11.620  0.0303  0.1471 -0.1260
19531TIP3    H280009   0.412   6.155  11.715 -1.0480  0.0471  0.5768
19532TIP3   OH280010   0.577   1.587   5.630  0.1969  0.0345 -0.9338
19532TIP3    H180011   0.567   1.567   5.537  1.8083  0.4716 -1.2438
19532TIP3    H280012   0.618   1.508   5.667  0.9015  0.3972 -0.9152
19533TIP3   OH280013   6.474   3.037  14.666  0.3230 -0.1013  0.1722
19533TIP3    H180014   6.552   3.002  14.624 -0.2322 -0.5732 -0.4939
19533TIP3    H280015   6.408   2.969  14.654 -0.9861  1.4015 -1.7244
19534TIP3   OH280016   4.803   4.093   6.059  0.3869  0.1513 -0.8215
19534TIP3    H180017   4.787   4.034   6.133  1.8381 -2.1524 -2.2513
19534TIP3    H280018   4.897   4.111   6.062  0.4524  0.0836 -2.0565
19535TIP3   OH280019   6.554   4.576   1.911  0.1651  0.2956 -0.7478
19535TIP3    H180020   6.505   4.535   1.982  0.1202 -1.0232 -1.5076
19535TIP3    H280021   6.510   4.660   1.897 -0.1737  0.3316  0.3840
19536TIP3   OH280022   2.345   2.840  10.380  0.5753  0.0996  0.0763
19536TIP3    H180023   2.350   2.874  10.290  3.6824 -3.3075 -1.3174
19536TIP3    H280024   2.261   2.793  10.383  1.5111 -2.0139 -2.1934
19537TIP3   OH280025   3.551   3.523   0.415 -0.4283  0.2018 -0.1627
19537TIP3    H180026   3.529   3.582   0.342  0.2747  0.8542  0.1424
19537TIP3    H280027   3.505   3.561   0.490  0.0570  0.3851  0.0423
19538TIP3   OH280028   2.947   3.896  13.675 -0.4717 -0.4892  0.4735
19538TIP3    H180029   2.894   3.949  13.734 -1.3383 -0.4562 -0.3061
19538TIP3    H280030   2.929   3.806  13.700  0.0124 -0.4564  0.9630
19539TIP3   OH280031   6.519   0.583   5.719  0.6659 -0.0539  0.2337
19539TIP3    H180032   6.446   0.632   5.680  1.6909  3.3770  2.2164
19539TIP3    H280033   6.523   0.502   5.668 -2.2162  1.1783 -2.2800
19540TIP3   OH280034   1.975   5.717   3.025  0.1280  0.3738 -0.2398
19540TIP3    H180035   1.901   5.691   3.079 -0.0978  1.8277  0.1997
19540TIP3    H280036   2.051   5.680   3.068 -0.0806  1.2573  0.9171
19541TIP3   OH280037   0.519   0.438   0.572 -0.4405  0.1384  0.3357
19541TIP3    H180038   0.539   0.351   0.606  1.9012  0.7552  0.7541
19541TIP3    H280039   0.529   0.496   0.648 -0.9134  0.9066 -0.1676
19542TIP3   OH280040   6.178   6.789   1.134  0.9081  0.1396  0.0347
19542TIP3    H180041   6.178   6.872   1.087 -1.2228  0.0433 -0.2419
19542TIP3    H280042   6.117   6.802   1.206 -0.4586 -1.5112 -0.7331
19543TIP3   OH280043   4.305   2.201   6.681  0.1948  0.3520 -0.0169
19543TIP3    H180044   4.246   2.250   6.624 -0.6912  0.3475  0.8761
19543TIP3    H280045   4.324   2.120   6.633 -2.2993 -0.6667  0.6028
19544TIP3   OH280046   1.257   2.684  11.399 -0.0137  0.8829 -0.0766
19544TIP3    H180047   1.188   2.715  11.457 -1.4302 -2.6191  0.3825
19544TIP3    H280048   1.316   2.635  11.456  1.0873  1.1332 -0.9628
19545TIP3   OH280049   3.656   4.579   5.511 -0.4441  0.0409 -0.1736
19545TIP3    H180050   3.590   4.643   5.483 -0.7955  0.8341  2.2258
19545TIP3    H280051   3.606   4.514   5.561  0.4979  0.5967  1.5873
19546TIP3   OH280052   1.264   4.691   3.450 -0.3897  0.2374  0.1158
19546TIP3    H180053   1.205   4.676   3.377  0.9142 -0.2468 -0.8938
19546TIP3    H280054   1.240   4.624   3.515  1.1514 -2.2197 -1.6683
19547TIP3   OH280055   6.708   1.898  13.049 -0.1990  0.1214  0.2713
19547TIP3    H180056   6.798   1.932  13.050  0.1607 -0.7489 -0.7582
19547TIP3    H280057   6.667   1.938  13.125  0.6018  1.7577 -0.1044
19548TIP3   OH280058   1.924   3.171  16.286  1.0187 -0.4139  0.4037
19548TIP3    H180059   1.967   3.257  16.281  2.1541 -0.9901 -0.0694
19548TIP3    H280060   1.876   3.173  16.369 -0.4502  1.3297 -0.4190
19549TIP3   OH280061   5.690   4.270  11.423  0.2280 -0.2461 -0.4897
19549TIP3    H180062   5.680   4.359  11.391  0.5288 -0.0840 -0.1376
19549TIP3    H280063   5.604   4.247  11.459  0.4431  0.2873  0.3863
19550TIP3   OH280064   0.290   4.513   1.490 -0.0640  0.2153  0.3415
19550TIP3    H180065   0.355   4.526   1.421  0.3965  1.1190  0.9252
19550TIP3    H280066   0.215   4.566   1.462 -0.1143  0.0790  0.2203
19551TIP3   OH280067   2.903   6.396   3.847 -0.0793 -0.0327 -0.1512
19551TIP3    H180068   2.937   6.462   3.787 -0.6746 -0.3217 -0.8168
19551TIP3    H280069   2.808   6.410   3.847 -0.1539 -0.5335  0.1226
19552TIP3   OH280070   3.664   6.125  10.924 -0.4072 -0.1925  0.2976
19552TIP3    H180071   3.680   6.219  10.917  0.2763 -0.3252  0.0186
19552TIP3    H280072   3.725   6.085  10.862  0.2839 -0.9015  1.4032
19553TIP3   OH280073   5.206   5.960   2.703  0.0773 -0.2490  0.3267
19553TIP3    H180074   5.139   5.930   2.642  0.2168  0.0603  0.0175
19553TIP3    H280075   5.198   6.055   2.703  1.8550 -0.0264 -1.3042
19554TIP3   OH280076   6.809   6.543  12.459 -0.7358 -0.6993 -0.2857
19554TIP3    H180077   6.877   6.545  12.392  1.3127  1.1083  1.6530
19554TIP3    H280078   6.787   6.450  12.468  0.1076 -1.1473 -2.2685
19555TIP3   OH280079   1.212   4.718   1.322  0.2536 -0.4402 -0.2865
19555TIP3    H180080   1.208   4.733   1.227 -1.2794  0.4505 -0.1241
19555TIP3    H280081   1.223   4.805   1.360  0.2167 -0.7196  0.3774
19556TIP3   OH280082   6.650   4.331   2.179  0.2776 -0.9999  0.0053
19556TIP3    H180083   6.574   4.379   2.146  0.1185 -1.7128 -0.6823
19556TIP3    H280084   6.670   4.373   2.263  0.2172  0.3403 -0.6262
19557TIP3   OH280085   3.071   1.925   4.790 -0.1748 -1.0506 -0.3136
19557TIP3    H180086   2.990   1.955   4.832 -0.2798 -0.5839 -0.8277
19557TIP3    H280087   3.122   2.005   4.777  0.6896 -1.4301  0.6534
19558TIP3   OH280088   0.620   6.115   6.019  0.5218 -0.3075 -0.1558
19558TIP3    H180089   0.602   6.062   6.097  1.9930 -0.5970  0.0142
19558TIP3    H280090   0.693   6.172   6.045 -1.3880  2.3228 -0.1127
19559TIP3   OH280091   5.430   2.296   2.193  0.1651  0.8022  0.3877
19559TIP3    H180092   5.442   2.379   2.147 -1.1622  0.0315 -1.4765
19559TIP3    H280093   5.417   2.232   2.124 -0.5538 -0.6798  1.8274
19560TIP3   OH280094   4.736   1.875   1.282 -0.1299 -0.4461 -0.3818
19560TIP3    H180095   4.694   1.852   1.199 -2.7796 -1.4326  1.1037
19560TIP3    H280096   4.772   1.962   1.268  1.6211 -1.5142 -3.2565
19561TIP3   OH280097   1.439   6.266   5.026  0.0165  0.1224 -0.0670
19561TIP3    H180098   1.523   6.277   4.981 -0.4063  1.1285 -0.6631
19561TIP3    H280099   1.388   6.211   4.967  0.0152  0.1077 -0.0517
19562TIP3   OH280100   4.233   0.547  13.959 -0.1873 -0.0495 -0.0124
19562TIP3    H180101   4.174   0.495  13.904 -2.1801 -0.0593  2.0303
19562TIP3    H280102   4.242   0.496  14.039  0.8568  1.0135  0.5754
19563TIP3   OH280103   5.645   6.503  15.270  0.4265  0.4621 -0.3905
19563TIP3    H180104   5.618   6.581  15.222  3.0767 -0.3459 -3.5607
19563TIP3    H280105   5.608   6.430  15.220  2.1472 -0.3897 -0.4924
19564TIP3   OH280106   1.504   4.259  10.423 -0.1625 -0.0426  0.1084
19564TIP3    H180107   1.584   4.220  10.458 -0.2627 -0.3862 -0.0513
19564TIP3    H280108   1.487   4.333  10.481 -1.2096 -1.5245  1.7989
19565TIP3   OH280109   6.614   5.287   5.588  0.0214 -0.0952  0.0785
19565TIP3    H180110   6.656   5.201   5.594  1.0651  0.4711  1.6789
19565TIP3    H280111   6.526   5.272   5.623  0.6030 -0.3175  1.5595
19566TIP3   OH280112   6.021   6.046  16.403 -0.2301 -0.1131 -0.1761
19566TIP3    H180113   6.091   6.018  16.344 -0.1318 -2.1812  0.8230
19566TIP3    H280114   6.047   6.014  16.489 -2.1701 -0.5567  0.3120
19567TIP3   OH280115   1.937   1.464  16.900 -0.3529  0.1493 -0.0880
19567TIP3    H180116   1.861   1.419  16.863 -1.0712  0.2810  1.1654
19567TIP3    H280117   1.908   1.492  16.987  0.5552  1.7376 -0.2560
19568TIP3   OH280118   1.224   5.451  11.636  0.3675 -0.4793  0.0264
19568TIP3    H180119   1.310   5.461  11.594  1.1365  1.2439  1.8844
19568TIP3    H280120   1.225   5.360  11.668  1.2277 -0.6785 -0.5090
19569TIP3   OH280121   4.568   6.432  15.157  0.2655  0.3202  0.4002
19569TIP3    H180122   4.556   6.525  15.179  1.0474  0.6738 -0.6187
19569TIP3    H280123   4.624   6.399  15.227  1.0282  0.9267  0.0853
19570TIP3   OH280124   4.878   0.281  12.582  0.2977  0.0238 -0.1428
19570TIP3    H180125   4.898   0.246  12.669 -0.9838  0.3058  0.2869
19570TIP3    H280126   4.881   0.376  12.593 -2.2351  0.1293  0.2450
19571TIP3   OH280127   4.731   6.697  14.057  0.5088 -0.6497  0.8966
19571TIP3    H180128   4.737   6.777  14.005  0.8795 -0.3354  1.4098
19571TIP3    H280129   4.763   6.628  13.999 -0.3494 -0.5305  0.2536
19572TIP3   OH280130   4.693   5.453  10.922  0.3611 -0.1082 -0.0573
19572TIP3    H180131   4.643   5.499  10.855 -0.1445 -2.3612 -1.3265
19572TIP3    H280132   4.653   5.480  11.004 -2.0803 -0.7890 -0.9498
19573TIP3   OH280133   5.999   2.030  14.533  0.3369 -0.0264 -0.6832
19573TIP3    H180134   5.979   1.937  14.520 -0.7439  0.1669 -0.5582
19573TIP3    H280135   5.957   2.074  14.459  0.4627  0.3964 -0.5072
19574TIP3   OH280136   3.062   1.163   3.108  0.4759 -0.1513  0.4006
19574TIP3    H180137   3.016   1.247   3.110  1.5209  0.5090 -0.9185
19574TIP3    H280138   3.001   1.101   3.147 -2.0370  0.4286 -2.2046
19575TIP3   OH280139   4.250   3.217  15.381 -0.0126 -0.2927  0.2522
19575TIP3    H180140   4.155   3.226  15.388 -0.0672 -1.0996  0.6296
19575TIP3    H280141   4.285   3.298  15.418 -0.5496  0.0327  0.0608
19576TIP3   OH280142   3.298   6.610   4.690 -0.2122 -0.2621 -0.1657
19576TIP3    H180143   3.226   6.659   4.651 -0.1713 -0.2075 -0.1725
19576TIP3    H280144   3.339   6.671   4.752 -0.6375 -0.5349  0.3978
19577TIP3   OH280145   2.049   0.448   1.521  0.0985  0.4104 -0.0632
19577TIP3    H180146   2.029   0.354   1.530 -0.8838  0.1380 -3.6454
19577TIP3    H280147   1.987   0.491   1.580 -0.1918 -1.1340  0.8240
19578TIP3   OH280148   3.722   4.769   6.528 -0.1086  0.2672 -0.0193
19578TIP3    H180149   3.684   4.729   6.607 -0.8204  1.3853  0.2316
19578TIP3    H280150   3.649   4.816   6.488  0.5397  0.7116 -0.7010
19579TIP3   OH280151   6.086   1.821  14.736 -0.1563  0.1918 -0.5893
19579TIP3    H180152   6.171   1.853  14.703  0.7547 -0.8261  0.6708
19579TIP3    H280153   6.036   1.801  14.657  2.3207 -3.1467 -1.5472
19580TIP3   OH280154   4.047   6.765  14.359  0.2167  0.7155 -0.5953
19580TIP3    H180155   4.078   6.756  14.269  2.1175  0.1712  0.0645
19580TIP3    H280156   4.001   6.682  14.377  1.1014  0.2108 -0.6131
19581TIP3   OH280157   6.469   4.189  13.308 -0.1930  0.7821 -0.1931
19581TIP3    H180158   6.552   4.141  13.304  0.6963  2.0804  1.5241
19581TIP3    H280159   6.418   4.143  13.374 -0.5128  0.5081 -0.6238
19582TIP3   OH280160   4.100   1.979  15.116  0.0886  0.2661  0.2282
19582TIP3    H180161   4.094   2.035  15.193 -0.7144 -0.6039  0.8232
19582TIP3    H280162   4.056   1.898  15.142  0.5540 -0.3598 -0.8615
19583TIP3   OH280163   6.772   4.534  12.306  0.5851 -0.1147  0.0166
19583TIP3    H180164   6.800   4.443  12.307  0.1333 -0.2558  0.5959
19583TIP3    H280165   6.734   4.547  12.219 -2.4360 -1.4736  1.0007
19584TIP3   OH280166   4.065   5.226   0.690  0.4667 -0.3978  0.5696
19584TIP3    H180167   4.084   5.216   0.783 -0.8190  1.1256  1.0420
19584TIP3    H280168   3.977   5.189   0.679 -0.6007  1.9535  0.5975
19585TIP3   OH280169   3.721   4.449  13.416  0.1104 -0.4040 -0.1844
19585TIP3    H180170   3.809   4.486  13.412  0.2484 -0.8369 -2.0252
19585TIP3    H280171   3.668   4.507  13.361 -1.4623  1.4711  3.0130
19586TIP3   OH280172   0.182   5.213   1.730 -0.7142 -0.5201 -0.5051
19586TIP3    H180173   0.271   5.228   1.763 -0.0804  0.7738 -2.5849
19586TIP3    H280174   0.129   5.280   1.773 -0.3151 -0.1561 -0.5753
19587TIP3   OH280175   2.201   6.268  14.784 -0.3764 -0.2540  0.1958
19587TIP3    H180176   2.129   6.298  14.730  0.4600  0.3527 -0.6179
19587TIP3    H280177   2.197   6.172  14.778 -1.6829 -0.2633  0.9589
19588TIP3   OH280178   0.561   4.558   4.081 -0.5873 -0.3055 -0.4354
19588TIP3    H180179   0.466   4.559   4.090 -0.7351  2.4640 -1.2880
19588TIP3    H280180   0.585   4.650   4.069  1.8917 -1.1394 -3.2223
19589TIP3   OH280181   1.821   2.443  13.664 -0.7341 -0.2119 -0.4086
19589TIP3    H180182   1.776   2.468  13.583 -1.8623  1.6037  0.7083
19589TIP3    H280183   1.750   2.423  13.725  0.1029 -1.4443  0.2154
19590TIP3   OH280184   3.292   6.328   3.188 -0.1752  0.0676  0.2505
19590TIP3    H180185   3.313   6.324   3.095  1.2120  1.7186  0.4335
19590TIP3    H280186   3.197   6.323   3.192 -0.2107 -0.8645 -1.1802
19591TIP3   OH280187   0.948   4.220   0.678 -0.5337  0.1353 -0.6011
19591TIP3    H180188   0.941   4.315   0.689 -1.6704 -0.0251  0.2300
19591TIP3    H280189   1.023   4.195   0.732  0.8691  0.7547 -2.1962
19592TIP3   OH280190   0.679   4.956  15.133 -0.2060  0.7197  0.1055
19592TIP3    H180191   0.658   4.948  15.040 -0.5257  1.9036  0.0642
19592TIP3    H280192   0.627   4.887  15.174  0.6423 -0.4210 -0.6722
19593TIP3   OH280193   4.574   2.472   1.911  0.1584  0.5525  0.0354
19593TIP3    H180194   4.489   2.490   1.871  0.1244  1.2032  0.3845
19593TIP3    H280195   4.588   2.545   1.971  0.6012  0.0412  0.5670
19594TIP3   OH280196   6.150   5.487   3.619  0.2775 -0.1314 -0.3424
19594TIP3    H180197   6.193   5.505   3.536  0.4577  1.1335 -0.0019
19594TIP3    H280198   6.079   5.552   3.624 -1.2206 -1.6628 -0.5421
19595TIP3   OH280199   1.247   6.219  14.439  0.7028 -0.2747  0.3576
19595TIP3    H180200   1.241   6.298  14.493  0.7431  0.6660 -0.9874
19595TIP3    H280201   1.200   6.241  14.359  2.1391 -1.0203 -0.7271
19596TIP3   OH280202   1.706   2.640  11.049  0.0793  0.3868  0.0473
19596TIP3    H180203   1.626   2.666  11.095  0.9789  2.6475  0.4523
19596TIP3    H280204   1.708   2.697  10.972  0.2989 -1.0534 -1.0475
19597TIP3   OH280205   5.665   4.469  15.638  0.1483  0.0173  0.3338
19597TIP3    H180206   5.664   4.467  15.734 -0.5303 -0.7335  0.3152
19597TIP3    H280207   5.724   4.542  15.617 -1.2088  1.4579  1.3179
19598TIP3   OH280208   0.201   1.131  16.569  0.4515 -0.0205 -0.0134
19598TIP3    H180209   0.109   1.152  16.549  0.1878 -0.7532  0.3958
19598TIP3    H280210   0.250   1.165  16.494 -0.2380 -0.2799 -0.5937
19599TIP3   OH280211   1.504   5.183   0.434 -0.1458 -0.1470 -0.0051
19599TIP3    H180212   1.528   5.200   0.344  2.5580  0.4913  0.7460
19599TIP3    H280213   1.526   5.090   0.448  0.0559 -0.0727  0.1745
19600TIP3   OH280214   0.128   6.407  13.155 -0.2129 -0.0132 -0.1078
19600TIP3    H180215   0.105   6.451  13.073  0.3898  0.1575 -0.1837
19600TIP3    H280216   0.167   6.324  13.127 -2.0775 -0.9889  0.0377
19601TIP3   OH280217   3.819   1.889  10.944  0.0627 -0.6680 -0.3660
19601TIP3    H180218   3.734   1.913  10.980  0.9488  0.3259  1.1932
19601TIP3    H280219   3.803   1.876  10.850 -1.4800  1.1831 -0.4240
19602TIP3   OH280220   6.731   2.112  16.848  0.9304  0.0323  0.6649
19602TIP3    H180221   6.789   2.182  16.879  1.1999  0.1008  0.0114
19602TIP3    H280222   6.790   2.041  16.823  0.6584 -0.4346  1.3053
19603TIP3   OH280223   3.998   4.877  15.380 -0.2816 -0.3938 -0.5184
19603TIP3    H180224   3.978   4.818  15.307 -1.5667  0.9627 -1.3160
19603TIP3    H280225   3.948   4.841  15.453 -1.8791  0.1995 -1.2594
19604TIP3   OH280226   3.669   4.319   4.878 -0.5422 -0.3770  0.1356
19604TIP3    H180227   3.604   4.324   4.948  1.7560  2.6589  2.3493
19604TIP3    H280228   3.711   4.234   4.890 -1.5666 -0.7769  1.0987
19605TIP3   OH280229   4.131   2.312   2.510 -0.0993  0.1746  0.0053
19605TIP3    H180230   4.138   2.405   2.488 -0.0351  0.7352  2.1847
19605TIP3    H280231   4.076   2.310   2.588  0.2040 -1.5942  0.2152
19606TIP3   OH280232   3.979   0.935  16.849  0.3774 -0.4101  0.2393
19606TIP3    H180233   3.907   0.876  16.871  0.1615 -0.5759 -0.8558
19606TIP3    H280234   4.018   0.898  16.770 -0.8195  1.7691 -1.5053
19607TIP3   OH280235   5.961   6.342   1.634  0.1510 -0.9271 -0.4362
19607TIP3    H180236   5.934   6.419   1.686 -0.0602 -0.3997 -1.3116
19607TIP3    H280237   5.911   6.270   1.672 -0.0593 -0.5380  0.0510
19608TIP3   OH280238   6.493   3.134  12.139 -0.3067 -0.4053 -0.1408
19608TIP3    H180239   6.456   3.069  12.079  2.8146 -1.3243 -1.2682
19608TIP3    H280240   6.556   3.086  12.191 -0.4853  1.0892  1.5337
19609TIP3   OH280241   5.250   4.382  11.533  0.3448  0.1188 -0.1973
19609TIP3    H180242   5.189   4.345  11.597  0.2513  1.0948  0.2902
19609TIP3    H280243   5.337   4.356  11.565  0.2317 -0.5358 -0.4159
19610TIP3   OH280244   4.489   3.721   4.177 -0.0759 -0.5483 -0.3621
19610TIP3    H180245   4.418   3.723   4.112 -0.1731  1.4060 -0.2595
19610TIP3    H280246   4.569   3.723   4.125 -0.0551 -2.1122 -0.4578
19611TIP3   OH280247   2.235   3.313   4.876  0.1401 -0.0370  0.2190
19611TIP3    H180248   2.325   3.338   4.899  0.2883  2.5839 -2.4909
19611TIP3    H280249   2.246   3.245   4.809  0.1024  0.1466  0.0259
19612TIP3   OH280250   4.351   3.250   2.874 -0.0167 -0.2025  0.1031
19612TIP3    H180251   4.431   3.281   2.917 -0.8249  0.6623  1.0099
19612TIP3    H280252   4.373   3.250   2.781  0.8047  0.7719  0.2752
19613TIP3   OH280253   3.891   0.318   4.690  0.9841  0.4573  0.1777
19613TIP3    H180254   3.859   0.317   4.780  0.9685  1.6975  0.2048
19613TIP3    H280255   3.935   0.233   4.679  0.3230 -0.0165  1.0970
19614TIP3   OH280256   0.316   4.042   6.266 -0.4684  0.0818 -0.3186
19614TIP3    H180257   0.309   3.947   6.271 -0.5237  0.1058  0.1246
19614TIP3    H280258   0.230   4.071   6.236  0.2901 -0.1623 -2.9856
19615TIP3   OH280259   5.094   5.575   0.193  0.6259  0.1887 -0.1713
19615TIP3    H180260   5.048   5.648   0.151  2.6140  3.4626  2.7659
19615TIP3    H280261   5.089   5.595   0.287 -0.1668 -4.5168  1.0238
19616TIP3   OH280262   3.103   1.639  12.543 -0.0863  0.1671  0.2973
19616TIP3    H180263   3.149   1.589  12.476  0.3634  1.2868 -0.2515
19616TIP3    H280264   3.047   1.700  12.494 -0.6536  0.1792  0.9461
19617TIP3   OH280265   6.231   0.364  16.735 -0.0403 -0.3509  0.3065
19617TIP3    H180266   6.289   0.333  16.805  0.6879 -0.6689 -0.4192
19617TIP3    H280267   6.182   0.287  16.709 -1.2925  0.0491  1.3515
19618TIP3   OH280268   0.169   4.577  12.855  0.3803  0.2026 -0.5172
19618TIP3    H180269   0.077   4.557  12.836 -0.1358 -0.5829  2.3227
19618TIP3    H280270   0.217   4.503  12.820 -0.2136  0.0106 -0.9410
19619TIP3   OH280271   2.601   4.303   2.046 -0.0541 -0.2912  0.0350
19619TIP3    H180272   2.621   4.221   2.000 -1.0057 -0.8218  0.5309
19619TIP3    H280273   2.537   4.346   1.990  0.4454  0.1192 -0.2242
19620TIP3   OH280274   4.882   2.944  11.900 -0.2928 -0.4955  0.1469
19620TIP3    H180275   4.843   2.951  11.813  1.3869 -2.7201 -0.9016
19620TIP3    H280276   4.821   2.889  11.949 -1.8152  1.6705  0.8518
19621TIP3   OH280277   2.021   2.910  15.602  0.2075 -0.1493 -0.3126
19621TIP3    H180278   2.014   2.969  15.677 -2.8862 -0.4742 -0.2233
19621TIP3    H280279   2.006   2.823  15.639  0.2039 -0.4886 -1.0906
19622TIP3   OH280280   3.112   6.696   3.965 -0.5027 -0.0940  0.0088
19622TIP3    H180281   3.052   6.623   3.949 -0.0267 -0.3968 -0.4158
19622TIP3    H280282   3.185   6.658   4.013  0.5364 -0.2626 -1.6403
19623TIP3   OH280283   5.507   3.253  13.280  0.5095 -0.5083  0.1067
19623TIP3    H180284   5.551   3.282  13.360 -0.9557 -2.2477  1.6192
19623TIP3    H280285   5.521   3.158  13.278 -1.5844 -0.8492 -0.3105
19624TIP3   OH280286   5.643   6.575   6.145 -0.4736  0.6691  0.1382
19624TIP3    H180287   5.629   6.662   6.180  1.0979  1.1263 -0.3069
19624TIP3    H280288   5.625   6.516   6.219 -0.7915  1.3981  0.6540
19625TIP3   OH280289   4.180   1.822   4.376 -0.7341  0.5717  0.9171
19625TIP3    H180290   4.146   1.895   4.324 -1.1082 -1.0603 -1.2950
19625TIP3    H280291   4.269   1.850   4.400  0.0387  0.8612 -1.9414
19626TIP3   OH280292   2.089   4.505  14.187  0.1141 -0.0149  0.5961
19626TIP3    H180293   2.091   4.502  14.283 -0.1559 -0.1669  0.5985
19626TIP3    H280294   2.168   4.553  14.163  0.8029 -1.0008  0.8444
19627TIP3   OH280295   2.707   1.102   5.087 -0.1214  0.1813  0.1070
19627TIP3    H180296   2.696   1.108   5.182 -0.3650 -1.0476  0.1628
19627TIP3    H280297   2.778   1.163   5.067 -0.9238  1.4371  0.9022
19628TIP3   OH280298   2.471   2.002   5.678 -0.2525  0.0439  0.9216
19628TIP3    H180299   2.498   1.931   5.619 -1.2810 -1.3041  1.9881
19628TIP3    H280300   2.467   1.960   5.764 -0.6370  1.4845  1.6240
19629TIP3   OH280301   0.821   5.779  10.467  0.9715  0.0703  0.3293
19629TIP3    H180302   0.740   5.731  10.484 -2.2121  4.2336 -1.1153
19629TIP3    H280303   0.863   5.786  10.552 -0.8439 -1.2123  1.4107
19630TIP3   OH280304   2.299   1.954   2.831  0.2678  0.3115  0.8194
19630TIP3    H180305   2.375   1.988   2.784  0.0262  0.8857  0.8385
19630TIP3    H280306   2.302   1.859   2.816 -0.7382  0.6342 -1.7452
19631TIP3   OH280307   3.943   0.514  16.308 -0.0215  0.5748 -0.3015
19631TIP3    H180308   3.876   0.582  16.306  0.4142  0.9869 -1.3195
19631TIP3    H280309   3.921   0.456  16.235  0.8944  0.8932 -0.8482
19632TIP3   OH280310   6.096   5.300  16.795 -0.0660 -0.4913  0.6094
19632TIP3    H180311   6.037   5.355  16.743 -0.1593 -0.6767  0.5178
19632TIP3    H280312   6.165   5.359  16.824 -0.4819 -0.1948  1.0073
19633TIP3   OH280313   0.350   4.388  14.493  0.3127 -0.3108  0.2720
19633TIP3    H180314   0.355   4.310  14.437  1.2028  1.2957 -2.0788
19633TIP3    H280315   0.256   4.400  14.508 -0.0014 -0.6878 -1.1529
19634TIP3   OH280316   5.701   1.128  16.626  0.1420 -0.0356  0.0590
19634TIP3    H180317   5.734   1.213  16.596  0.2808  0.1674  0.7695
19634TIP3    H280318   5.776   1.069  16.616 -0.8478 -0.9079 -3.6056
19635TIP3   OH280319   2.365   3.819   5.105  0.0265  0.3378  0.5874
19635TIP3    H180320   2.281   3.865   5.099 -0.0643  0.2657  1.2025
19635TIP3    H280321   2.430   3.888   5.092 -0.1264  0.4033  0.1588
19636TIP3   OH280322   0.889   3.039  16.192 -0.5409  0.0887  0.1707
19636TIP3    H180323   0.904   2.990  16.111 -0.2250 -1.3715  1.0645
19636TIP3    H280324   0.976   3.063  16.223 -0.6127  0.0458  0.4137
19637TIP3   OH280325   2.473   4.893  16.629 -0.5622 -0.5731 -0.4245
19637TIP3    H180326   2.463   4.914  16.536 -0.8826  0.3625 -0.1929
19637TIP3    H280327   2.479   4.978  16.672  2.3461 -0.9895  0.1621
19638TIP3   OH280328   0.706   6.747   3.951 -0.4922 -0.3221 -0.6123
19638TIP3    H180329   0.773   6.679   3.952 -0.8831 -0.7281 -1.4632
19638TIP3    H280330   0.755   6.828   3.965  0.0452 -0.7159 -0.1648
19639TIP3   OH280331   4.640   1.029  11.775 -0.3394 -0.7135  0.0076
19639TIP3    H180332   4.567   1.019  11.714 -1.9314  0.4554  1.6150
19639TIP3    H280333   4.665   0.940  11.799 -1.0251 -1.1261 -0.8045
19640TIP3   OH280334   6.183   2.416  14.560  0.2984 -0.1428  0.2486
19640TIP3    H180335   6.178   2.376  14.474  0.7926 -2.6226  1.2714
19640TIP3    H280336   6.249   2.485  14.551 -0.2627  0.1959 -1.5156
19641TIP3   OH280337   4.576   3.587  10.469 -0.3712  0.5049  0.2212
19641TIP3    H180338   4.501   3.584  10.409 -2.0032 -1.4776  2.1713
19641TIP3    H280339   4.582   3.499  10.504  3.9827  0.1172 -0.9468
19642TIP3   OH280340   2.387   6.706   4.525  0.1363 -0.3511 -0.0173
19642TIP3    H180341   2.361   6.614   4.528 -0.2157 -0.2516  0.0215
19642TIP3    H280342   2.311   6.752   4.490  0.8843 -0.2741 -1.6188
19643TIP3   OH280343   5.415   1.210  11.964  0.0357  0.2922 -0.1342
19643TIP3    H180344   5.408   1.182  11.873  0.9415 -1.1925  0.2151
19643TIP3    H280345   5.326   1.232  11.990 -0.6301 -1.5095 -0.7231
19644TIP3   OH280346   0.698   2.811   4.535  0.2663  0.1668  0.6014
19644TIP3    H180347   0.616   2.828   4.582  0.3550  0.6372  0.5890
19644TIP3    H280348   0.680   2.732   4.483  0.6863 -1.3693  2.6685
19645TIP3   OH280349   0.845   3.854  16.377 -0.5379 -0.0495  0.0460
19645TIP3    H180350   0.937   3.869  16.355 -0.3274 -2.1739 -0.7585
19645TIP3    H280351   0.802   3.843  16.292 -1.8174  2.1077  0.3565
19646TIP3   OH280352   0.556   5.593   3.190  0.0043  0.6661  0.0081
19646TIP3    H180353   0.546   5.591   3.285  1.5069  1.4419  0.2183
19646TIP3    H280354   0.605   5.513   3.169 -3.4527 -1.5013 -0.6366
19647TIP3   OH280355   4.555   1.920  12.949  0.1475 -0.4201  0.4727
19647TIP3    H180356   4.590   1.881  12.869 -0.5156  1.2231 -0.6928
19647TIP3    H280357   4.461   1.930  12.931  0.2053  1.2083  0.8804
19648TIP3   OH280358   2.028   1.787  16.952 -0.5371 -0.3541  0.3579
19648TIP3    H180359   2.095   1.726  16.922  1.0021  0.9638  0.9395
19648TIP3    H280360   1.956   1.778  16.889  0.5569 -1.1617 -0.8150
19649TIP3   OH280361   2.439   5.727  12.411 -0.0022  0.1515  0.0744
19649TIP3    H180362   2.466   5.770  12.492 -1.6618  2.4803 -0.5206
19649TIP3    H280363   2.346   5.748  12.401 -0.3243 -1.6757 -1.4910
19650TIP3   OH280364   1.550   6.604   3.718  0.1515  0.0864  0.4040
19650TIP3    H180365   1.640   6.632   3.730  0.7263 -2.5295  3.1620
19650TIP3    H280366   1.535   6.537   3.785 -3.2815 -0.9090 -1.0958
19651TIP3   OH280367   1.354   3.431  11.868  0.2813 -0.2579  0.4365
19651TIP3    H180368   1.384   3.509  11.820  1.4774  0.5043  2.3244
19651TIP3    H280369   1.381   3.357  11.813 -0.1132  0.6106 -0.9729
19652TIP3   OH280370   1.020   5.439   0.703  0.3149 -0.4656 -0.0771
19652TIP3    H180371   0.945   5.407   0.653 -0.4841  1.2228 -0.0251
19652TIP3    H280372   1.009   5.400   0.790 -1.5010  1.0833  0.4484
19653TIP3   OH280373   5.185   4.422   0.023  0.4484  0.1369  0.2970
19653TIP3    H180374   5.234   4.379  -0.047  0.8091  3.1023 -1.4525
19653TIP3    H280375   5.229   4.396   0.104  1.9567 -0.9859 -0.8403
19654TIP3   OH280376   0.000   0.325   0.381 -0.6301  0.1145 -0.3619
19654TIP3    H180377  -0.061   0.394   0.407 -0.0553  1.1228 -1.6084
19654TIP3    H280378   0.071   0.371   0.337 -0.6005 -1.3335 -1.9375
19655TIP3   OH280379   2.333   0.189   1.135  0.1951 -0.4184 -0.1863
19655TIP3    H180380   2.344   0.176   1.230  0.3566 -2.6119 -0.4608
19655TIP3    H280381   2.241   0.169   1.119  0.2749 -0.4876 -0.5503
19656TIP3   OH280382   0.573   2.476   5.920  0.7198 -0.0566 -0.1933
19656TIP3    H180383   0.581   2.516   5.833 -0.4452  3.8558  1.2982
19656TIP3    H280384   0.658   2.489   5.961  1.3290 -2.0663 -0.6664
19657TIP3   OH280385   2.266   0.119   2.513  0.1235  0.0822  0.8289
19657TIP3    H180386   2.237   0.165   2.591  0.7866  2.0317 -0.0233
19657TIP3    H280387   2.353   0.154   2.494  0.9874 -2.0299  0.4988
19658TIP3   OH280388   4.240   6.272   0.846 -0.0499 -0.4778  0.3077
19658TIP3    H180389   4.247   6.270   0.750 -0.4422 -3.8171  0.2220
19658TIP3    H280390   4.325   6.239   0.877  0.3026  1.1558  1.1945
19659TIP3   OH280391   0.907   4.199  14.781 -0.2831  0.2432  0.3576
19659TIP3    H180392   0.908   4.258  14.706 -0.9758  1.2708  1.1260
19659TIP3    H280393   0.815   4.198  14.809 -0.4383 -1.8190 -0.0925
19660TIP3   OH280394   2.908   4.939  12.529 -0.6003  0.1561  0.0126
19660TIP3    H180395   2.826   4.987  12.520 -0.3063  0.5779 -0.5170
19660TIP3    H280396   2.905   4.902  12.617 -1.2718  0.3238  0.0666
19661TIP3   OH280397   0.133   1.283  16.203 -0.0794  0.2362 -0.4817
19661TIP3    H180398   0.191   1.209  16.221 -1.1882 -0.9225 -1.5152
19661TIP3    H280399   0.117   1.322  16.290 -1.0622 -1.9716  0.4051
19662TIP3   OH280400   4.351   4.679   1.924 -0.2048  0.1495 -0.3804
19662TIP3    H180401   4.266   4.716   1.947 -1.1726 -0.5196 -2.6176
19662TIP3    H280402   4.367   4.611   1.990 -2.0460 -0.5870 -0.6451
19663TIP3   OH280403   5.148   5.408  13.961 -0.5167 -0.0762  0.1784
19663TIP3    H180404   5.150   5.313  13.948 -0.3236 -0.0427 -0.0435
19663TIP3    H280405   5.199   5.443  13.888 -0.2499  0.1743  0.4841
19664TIP3   OH280406   4.424   5.604  16.932 -0.2079  0.4071  0.2614
19664TIP3    H180407   4.508   5.646  16.954 -0.4472 -0.0465  2.2767
19664TIP3    H280408   4.393   5.570  17.016 -0.6995 -2.5726 -1.0326
19665TIP3   OH280409   0.989   5.958  16.538 -0.8807 -0.0013  0.6226
19665TIP3    H180410   0.994   5.964  16.442 -0.5784  1.2328  0.6919
19665TIP3    H280411   1.079   5.974  16.567 -0.6915 -1.7242  1.0809
19666TIP3   OH280412   6.168   2.332   0.860  0.3826 -0.0631  0.1426
19666TIP3    H180413   6.161   2.396   0.931  2.5178  1.2817 -0.7759
19666TIP3    H280414   6.227   2.371   0.797 -1.9565 -0.8874 -2.8261
19667TIP3   OH280415   3.955   6.116  13.957  0.0343  0.1895  0.1266
19667TIP3    H180416   3.958   6.065  13.876 -0.1429  0.9231 -0.3524
19667TIP3    H280417   3.919   6.201  13.930  2.4840  1.4123  0.4528
19668TIP3   OH280418   6.671   5.715   1.837 -0.1498 -0.2384 -0.2085
19668TIP3    H180419   6.629   5.799   1.819  0.1334 -0.3200 -1.3569
19668TIP3    H280420   6.600   5.651   1.829 -1.1779  0.0929  4.0800
19669TIP3   OH280421   5.178   3.955   5.500  0.4010  0.1763  0.0174
19669TIP3    H180422   5.256   3.908   5.527  0.9537  1.6582  1.1063
19669TIP3    H280423   5.210   4.027   5.446 -0.4567 -0.8161 -1.9357
19670TIP3   OH280424   3.091   5.140   0.947 -0.5878 -0.1274 -0.6356
19670TIP3    H180425   3.124   5.135   0.857 -0.7885 -0.3136 -0.7001
19670TIP3    H280426   3.131   5.219   0.983 -0.1089 -0.3292 -0.7266
19671TIP3   OH280427   3.102   0.709   1.692  0.0265 -0.1057 -0.4735
19671TIP3    H180428   3.016   0.713   1.736  0.6952 -1.2974  1.0203
19671TIP3    H280429   3.141   0.795   1.709  0.9447 -1.0324  2.8590
19672TIP3   OH280430   2.481   4.533  13.339 -0.0193  0.2258  0.3770
19672TIP3    H180431   2.501   4.561  13.250  0.3880  0.1043  0.4271
19672TIP3    H280432   2.550   4.470  13.361 -0.0506  0.3353  0.8126
19673TIP3   OH280433   4.776   3.706  12.774  0.3156 -0.1008  0.2599
19673TIP3    H180434   4.868   3.731  12.764  0.5978 -0.4638  1.7250
19673TIP3    H280435   4.779   3.621  12.818 -0.6644 -1.7572 -2.5858
19674TIP3   OH280436   3.553   5.130   0.371 -0.3664  0.1809  0.1211
19674TIP3    H180437   3.467   5.088   0.377 -0.2592 -0.2498 -0.9933
19674TIP3    H280438   3.538   5.206   0.314 -0.1110  0.3820  0.3211
19675TIP3   OH280439   2.260   0.799   4.741 -0.6409  0.5429 -0.4428
19675TIP3    H180440   2.203   0.755   4.678 -0.1915  1.0123 -1.2012
19675TIP3    H280441   2.218   0.883   4.756  0.1253  1.1400 -1.4688
19676TIP3   OH280442   1.948   2.517  14.110 -0.1372  0.7595  0.0699
19676TIP3    H180443   1.862   2.532  14.072  0.6656  2.3662 -1.2560
19676TIP3    H280444   1.950   2.574  14.187 -0.3831  0.4481  0.3084
19677TIP3   OH280445   4.006   6.600   2.995 -0.2959 -0.5879  0.4949
19677TIP3    H180446   3.972   6.578   3.082  1.9323 -0.8237  1.3702
19677TIP3    H280447   3.943   6.561   2.934 -1.6697 -0.8099  1.9938
19678TIP3   OH280448   4.271   0.746   3.742 -0.1983 -0.3430 -0.1949
19678TIP3    H180449   4.247   0.654   3.729  0.4923 -1.0443  2.7740
19678TIP3    H280450   4.334   0.765   3.672  0.5561 -2.5259 -0.1835
19679TIP3   OH280451   6.572   4.804   2.218 -0.2821  0.0033 -0.3660
19679TIP3    H180452   6.521   4.732   2.255  0.9367 -1.5639 -1.5744
19679TIP3    H280453   6.559   4.796   2.123  0.4644  0.9184 -0.5610
19680TIP3   OH280454   3.948   4.709  13.954 -0.8711 -0.6823 -0.1389
19680TIP3    H180455   3.928   4.659  14.033 -0.5078  0.4878  0.7227
19680TIP3    H280456   3.983   4.793  13.986  2.8178 -1.5001 -1.4644
19681TIP3   OH280457   0.254   4.137   3.690 -0.3616  0.6400 -0.0378
19681TIP3    H180458   0.346   4.155   3.710 -0.0248 -1.0250  0.0633
19681TIP3    H280459   0.207   4.211   3.728  0.7248  0.2664  2.2413
19682TIP3   OH280460   4.771   1.414  10.570  0.1168  0.2998  0.4512
19682TIP3    H180461   4.728   1.457  10.497  0.0164 -0.0042  0.3294
19682TIP3    H280462   4.820   1.342  10.531  0.3967  0.3877  0.6369
19683TIP3   OH280463   4.826   4.329  14.063 -0.4576  0.0085 -0.4711
19683TIP3    H180464   4.793   4.334  13.974  0.1205  0.3420 -0.6768
19683TIP3    H280465   4.749   4.337  14.119 -0.6392  1.8316 -0.9148
19684TIP3   OH280466   4.669   0.262   3.359  0.1470  0.2981 -0.0885
19684TIP3    H180467   4.653   0.353   3.336  1.0814  0.7607  0.9410
19684TIP3    H280468   4.765   0.253   3.354  0.1436 -0.3477  0.7224
19685TIP3   OH280469   0.434   0.500   1.848 -0.4449 -0.5454  0.1667
19685TIP3    H180470   0.401   0.460   1.928  0.4024 -0.9887  0.3031
19685TIP3    H280471   0.355   0.528   1.801 -0.9094  1.3828  1.9700
19686TIP3   OH280472   4.482   0.388  13.566 -0.2034  1.0870  0.3900
19686TIP3    H180473   4.388   0.403  13.559 -0.0129  1.8005 -1.0853
19686TIP3    H280474   4.499   0.383  13.660 -1.8563 -0.1473  0.6676
19687TIP3   OH280475   6.020   4.015   6.075 -0.6519  0.0357  0.3333
19687TIP3    H180476   5.946   3.977   6.029  0.4947  0.1402 -1.6784
19687TIP3    H280477   6.098   3.978   6.033  0.4685  0.6315  1.7635
19688TIP3   OH280478   2.511   3.052  14.692 -0.5924 -0.3920  0.3577
19688TIP3    H180479   2.543   2.992  14.759  0.9884 -3.3405 -2.7513
19688TIP3    H280480   2.582   3.116  14.681  0.4927 -1.6808 -0.4505
19689TIP3   OH280481   6.285   2.501  12.063  0.5362  0.3580  0.1216
19689TIP3    H180482   6.317   2.417  12.032 -0.2993 -0.1025  0.5042
19689TIP3    H280483   6.221   2.529  11.998  1.3149  1.0559 -0.3843
19690TIP3   OH280484   3.921   4.137  16.806 -0.3928  0.3606  0.3370
19690TIP3    H180485   3.886   4.191  16.735 -0.9088 -1.8246 -1.1579
19690TIP3    H280486   3.918   4.047  16.773  1.9313 -0.4900  2.0917
19691TIP3   OH280487   3.494   6.264  16.467 -0.0495 -0.6192  0.4907
19691TIP3    H180488   3.545   6.344  16.454 -0.6342 -0.2609  0.3167
19691TIP3    H280489   3.551   6.193  16.437 -0.9182  0.0433 -3.3333
19692TIP3   OH280490   6.126   1.279   4.531  0.1016 -0.2514 -0.0407
19692TIP3    H180491   6.128   1.268   4.626  3.3478 -3.1770 -0.2478
19692TIP3    H280492   6.129   1.374   4.518  3.5275  0.2954  2.9497
19693TIP3   OH280493   3.128   5.399  16.819 -0.5331  0.3484  0.3877
19693TIP3    H180494   3.149   5.307  16.838  1.6345  0.9144  1.1068
19693TIP3    H280495   3.198   5.448  16.863 -1.0408  2.2903 -0.8721
19694TIP3   OH280496   4.866   5.545  14.977 -0.3801 -0.3106  0.4713
19694TIP3    H180497   4.793   5.513  15.031 -1.2361 -2.4036 -1.7467
19694TIP3    H280498   4.943   5.502  15.015 -1.0193 -2.0668 -0.1017
19695TIP3   OH280499   1.169   6.323  14.734  0.4225 -0.0117 -0.3152
19695TIP3    H180500   1.136   6.236  14.711 -1.9584  1.2442 -2.1691
19695TIP3    H280501   1.119   6.347  14.813  0.3291  0.0504 -0.3924
19696TIP3   OH280502   0.096   1.897   6.148  0.0799 -0.3772 -0.1611
19696TIP3    H180503   0.157   1.902   6.074 -0.1210  1.0078 -0.2640
19696TIP3    H280504   0.133   1.957   6.214 -1.9993  1.8889 -0.8997
19697TIP3   OH280505   1.539   4.403  14.811  0.4108 -0.2745  0.3567
19697TIP3    H180506   1.594   4.450  14.874  0.1323 -0.5799  0.8354
19697TIP3    H280507   1.587   4.409  14.728  1.6917 -1.4178  0.9776
19698TIP3   OH280508   5.129   1.735  16.793 -0.1583  0.0332  0.8085
19698TIP3    H180509   5.060   1.708  16.853 -1.0382  0.1793 -0.1198
19698TIP3    H280510   5.092   1.808  16.744  0.2178 -0.6532 -0.5298
19699TIP3   OH280511   1.763   6.695  12.787  0.8108 -0.0010  0.0405
19699TIP3    H180512   1.853   6.727  12.784  0.6905  0.2494 -1.8610
19699TIP3    H280513   1.710   6.769  12.757  0.2351 -0.9662 -1.4089
19700TIP3   OH280514   4.781   4.050   1.179 -0.0377 -0.3851  0.1383
19700TIP3    H180515   4.756   3.958   1.191  0.2001 -0.2261  2.2662
19700TIP3    H280516   4.706   4.099   1.214  0.0983  0.2224 -0.4182
19701TIP3   OH280517   3.256   2.763  11.872  0.0596 -0.4046  0.8333
19701TIP3    H180518   3.296   2.739  11.956 -0.2414  1.2948  1.5135
19701TIP3    H280519   3.329   2.800  11.821  0.3434 -1.8665  0.1251
19702TIP3   OH280520   5.398   0.549  12.163  0.2416 -0.4669  0.6400
19702TIP3    H180521   5.396   0.471  12.219  0.8399 -1.2089 -0.3308
19702TIP3    H280522   5.488   0.554  12.133 -0.1185 -0.2173 -0.4299
19703TIP3   OH280523   5.946   1.695  13.660  0.4906  0.5067  0.2156
19703TIP3    H180524   5.859   1.666  13.688  0.2308 -0.4822 -1.4933
19703TIP3    H280525   5.931   1.746  13.580  1.3620  1.7206  0.7800
19704TIP3   OH280526   2.398   2.875   1.984 -0.5505 -0.1433  0.3522
19704TIP3    H180527   2.415   2.928   1.906 -2.7163 -2.9302 -2.2660
19704TIP3    H280528   2.370   2.790   1.950 -0.3081 -2.0084  4.2348
19705TIP3   OH280529   0.520   3.716   1.969 -0.5609  0.2280 -0.3366
19705TIP3    H180530   0.481   3.800   1.947 -0.5136  0.3380  0.0014
19705TIP3    H280531   0.532   3.672   1.884 -4.3067 -1.1202 -0.3710
19706TIP3   OH280532   1.913   6.813  16.235  0.3859 -0.5603 -0.0131
19706TIP3    H180533   1.876   6.852  16.156  1.1840 -0.2539 -0.2476
19706TIP3    H280534   1.924   6.720  16.213 -0.2345 -0.6522  0.0596
19707TIP3   OH280535   1.609   0.372   5.052  0.1490  0.2526 -0.0598
19707TIP3    H180536   1.619   0.381   4.957 -0.2737 -0.1462 -0.1431
19707TIP3    H280537   1.558   0.449   5.077  0.1195  0.2730 -0.1799
19708TIP3   OH280538   6.251   1.899   2.552 -0.5637  0.0527 -0.2066
19708TIP3    H180539   6.320   1.878   2.489  0.1667  0.8417  0.3072
19708TIP3    H280540   6.172   1.912   2.499  0.2062  1.4981 -1.0709
19709TIP3   OH280541   4.098   6.234   1.227  0.0861  0.0762 -0.3425
19709TIP3    H180542   4.173   6.190   1.188 -0.1080 -0.2826 -0.3133
19709TIP3    H280543   4.091   6.317   1.179  0.3500  0.0018 -0.5098
19710TIP3   OH280544   2.316   5.159  13.040  0.1605  0.7168  0.8662
19710TIP3    H180545   2.325   5.081  12.985 -4.0849 -0.1168  0.9823
19710TIP3    H280546   2.306   5.231  12.978 -0.7703  0.3452  0.5505
19711TIP3   OH280547   0.578   2.511   3.709  0.5540 -0.1157 -0.0843
19711TIP3    H180548   0.563   2.479   3.798  0.0866 -2.0990 -0.8286
19711TIP3    H280549   0.666   2.551   3.713  0.0077  1.0408  1.5351
19712TIP3   OH280550   4.855   0.094   1.391  0.4404 -0.2004  0.1433
19712TIP3    H180551   4.763   0.079   1.372  0.0357  2.2333 -0.1486
19712TIP3    H280552   4.887   0.146   1.317  1.5812  0.4996  1.0985
19713TIP3   OH280553   1.208   6.144  13.522 -0.1992  0.0209  0.3245
19713TIP3    H180554   1.155   6.167  13.445  1.2494  2.3135 -0.0700
19713TIP3    H280555   1.264   6.220  13.536  1.3067 -1.3500  2.1915
19714TIP3   OH280556   3.487   0.547  16.860  0.7761  0.0207  0.0242
19714TIP3    H180557   3.525   0.530  16.947  0.2862  1.0002  0.4453
19714TIP3    H280558   3.414   0.606  16.877 -0.2909 -1.0049 -0.9026
19715TIP3   OH280559   4.150   5.275  16.179 -0.0019 -0.2233  0.3180
19715TIP3    H180560   4.085   5.210  16.206  0.3582 -0.2687  1.1053
19715TIP3    H280561   4.109   5.359  16.197  0.2209 -0.2538  0.9759
19716TIP3   OH280562   4.440   3.232   1.712 -0.0308 -0.0001 -0.4818
19716TIP3    H180563   4.530   3.225   1.744 -0.0040 -0.9255 -0.7336
19716TIP3    H280564   4.417   3.324   1.724  0.6568  0.0727  0.3781
19717TIP3   OH280565   3.094   0.513  10.633 -0.3378  0.4173  0.1976
19717TIP3    H180566   3.045   0.551  10.560 -1.7869 -1.6998 -0.0146
19717TIP3    H280567   3.108   0.422  10.608  1.4613  0.2955  1.4332
19718TIP3   OH280568   2.460   0.554   1.254 -0.5011 -0.9654 -0.3227
19718TIP3    H180569   2.419   0.611   1.189 -2.1724 -1.1705  0.5034
19718TIP3    H280570   2.544   0.529   1.214 -0.4563  0.7222 -1.3987
19719TIP3   OH280571   2.162   6.358   5.604  0.0586  0.3515  0.0423
19719TIP3    H180572   2.067   6.355   5.618 -0.1071 -2.4579 -0.9280
19719TIP3    H280573   2.200   6.347   5.691 -0.4558  1.7645  0.4727
19720TIP3   OH280574   6.644   2.709   2.221  0.2630 -0.0798  0.0087
19720TIP3    H180575   6.684   2.774   2.279 -3.3264  1.7525  0.6802
19720TIP3    H280576   6.630   2.632   2.276  2.0951 -0.5115 -0.0719
19721TIP3   OH280577   4.592   4.257  13.120  0.0535 -0.4376  0.2703
19721TIP3    H180578   4.630   4.182  13.165 -0.8222 -0.3119  1.2457
19721TIP3    H280579   4.512   4.276  13.168  0.4706  1.3902  0.3086
19722TIP3   OH280580   5.753   0.502  13.816  0.0171  0.1768  0.2030
19722TIP3    H180581   5.684   0.451  13.860 -0.0498  1.0396  1.1380
19722TIP3    H280582   5.764   0.459  13.731 -2.3308  0.5694 -0.3689
19723TIP3   OH280583   4.909   2.786   3.183  0.2342  0.3557 -0.0742
19723TIP3    H180584   4.980   2.784   3.248  0.0773  0.8143  0.1151
19723TIP3    H280585   4.860   2.866   3.204 -1.9240 -1.2616  1.4579
19724TIP3   OH280586   1.656   0.524   3.862  0.3272  0.3671 -0.0667
19724TIP3    H180587   1.708   0.516   3.942  3.0403 -0.4038 -1.7839
19724TIP3    H280588   1.567   0.539   3.894  1.4590  1.4286  3.0693
19725TIP3   OH280589   0.362   5.253  10.748  0.0349 -0.1189 -0.3461
19725TIP3    H180590   0.409   5.303  10.681 -1.0837  0.1628 -0.9571
19725TIP3    H280591   0.351   5.166  10.709  1.4325 -0.6831  0.4598
19726TIP3   OH280592   6.785   0.789   2.960 -0.1843 -0.2178  0.1991
19726TIP3    H180593   6.861   0.771   3.016  0.3342 -1.3884 -0.8513
19726TIP3    H280594   6.800   0.877   2.927  0.6122 -0.3633  0.1611
19727TIP3   OH280595   3.117   2.447   3.383  0.1511 -0.5720 -0.6514
19727TIP3    H180596   3.095   2.464   3.292  1.9931 -0.4218 -1.1012
19727TIP3    H280597   3.203   2.405   3.380  0.9433  0.7704  1.0611
19728TIP3   OH280598   4.664   0.255  14.363 -0.2394 -0.1431  0.3309
19728TIP3    H180599   4.742   0.202  14.350  1.0274  1.6017  0.4851
19728TIP3    H280600   4.663   0.316  14.289 -0.9536  0.4473  0.8056
19729TIP3   OH280601   5.857   6.617  16.940  0.2583  0.7587  0.0884
19729TIP3    H180602   5.913   6.598  16.866  0.6636  1.2296  0.2684
19729TIP3    H280603   5.885   6.556  17.009 -0.0269  0.4161 -0.0958
19730TIP3   OH280604   2.288   4.600  11.643  0.0225  0.2916  0.3776
19730TIP3    H180605   2.193   4.611  11.636 -0.0453  0.3210  1.1707
19730TIP3    H280606   2.324   4.688  11.633  0.0865  0.1010 -1.3581
19731TIP3   OH280607   5.960   1.539  16.419  0.0800  0.4878 -0.1868
19731TIP3    H180608   6.045   1.528  16.462  0.0533  0.3124 -0.1777
19731TIP3    H280609   5.964   1.626  16.380 -0.4988  1.3291  1.5320
19732TIP3   OH280610   3.208   6.182  16.829 -0.4975  0.8137 -0.3026
19732TIP3    H180611   3.220   6.182  16.734 -0.2496  0.0702 -0.2788
19732TIP3    H280612   3.141   6.115  16.844 -0.9655  1.3444  0.0020
19733TIP3   OH280613   4.027   4.522   0.955  0.3813 -0.0675 -0.6076
19733TIP3    H180614   4.121   4.542   0.949 -0.2731  3.1146 -2.5381
19733TIP3    H280615   4.012   4.508   1.049  2.6537  0.0170 -0.1732
19734TIP3   OH280616   6.592   2.123  16.072 -0.2489 -0.2304 -0.3890
19734TIP3    H180617   6.653   2.194  16.092 -0.9300  0.3834 -0.4494
19734TIP3    H280618   6.560   2.143  15.984  2.2536 -2.5557 -1.9742
19735TIP3   OH280619   2.042   2.271  15.689 -0.0494  0.1589 -0.1573
19735TIP3    H180620   1.967   2.218  15.718  0.3911  0.5344  1.8028
19735TIP3    H280621   2.119   2.219  15.712  0.3292  0.4719 -0.6955
19736TIP3   OH280622   6.652   2.771   3.574 -0.4530  0.2764  0.4509
19736TIP3    H180623   6.624   2.691   3.617 -2.5542  0.3044 -0.7310
19736TIP3    H280624   6.660   2.835   3.644  0.3845 -0.7074  1.2871
19737TIP3   OH280625   3.772   4.322   2.372  0.0218 -0.3123  0.7496
19737TIP3    H180626   3.732   4.396   2.326 -1.8344 -1.6689  0.0873
19737TIP3    H280627   3.789   4.355   2.460 -1.0081  0.8373  0.5463
19738TIP3   OH280628   6.132   3.590  13.709  0.1285 -0.4704 -0.5814
19738TIP3    H180629   6.112   3.529  13.639 -1.7587  0.2389 -0.7126
19738TIP3    H280630   6.191   3.654  13.669 -1.5205  0.3499 -1.7760
19739TIP3   OH280631   4.334   2.450   1.069 -0.1506 -0.5209 -0.2954
19739TIP3    H180632   4.384   2.371   1.087  0.3458 -0.5078 -1.5297
19739TIP3    H280633   4.293   2.434   0.983 -0.5144  0.3208 -0.2922
19740TIP3   OH280634   1.919   1.947  13.333 -0.3963  0.2403 -0.0040
19740TIP3    H180635   1.875   1.959  13.249 -0.9234  0.1212  0.2511
19740TIP3    H280636   1.959   2.032  13.350 -0.3229  0.2782 -0.3560
19741TIP3   OH280637   1.501   1.107  15.957  0.2388  0.0649  0.2846
19741TIP3    H180638   1.465   1.125  15.871 -0.8944  0.9465  0.9202
19741TIP3    H280639   1.572   1.170  15.967  1.1125 -0.7673 -0.4153
19742TIP3   OH280640   6.275   1.556  10.754  0.4494  0.3652  0.3239
19742TIP3    H180641   6.305   1.640  10.788 -1.7079  2.1099 -1.7082
19742TIP3    H280642   6.287   1.563  10.659  0.2387 -1.6423  0.1102
19743TIP3   OH280643   6.448   6.254  11.733  0.3010  0.4153  0.1467
19743TIP3    H180644   6.452   6.348  11.716 -2.4746  0.7037  0.6105
19743TIP3    H280645   6.440   6.248  11.829 -1.1095 -0.1500  0.0198
19744TIP3   OH280646   0.432   2.633  12.961  0.3760 -0.0490 -0.3083
19744TIP3    H180647   0.409   2.710  13.013  0.6775  0.5180 -0.9965
19744TIP3    H280648   0.481   2.577  13.021 -1.6387 -0.7061  0.8170
19745TIP3   OH280649   3.082   1.596   2.039  0.7526  0.0280  0.1645
19745TIP3    H180650   3.134   1.595   1.958 -0.2139 -0.8020 -0.4722
19745TIP3    H280651   3.123   1.530   2.094  2.7713  2.0926  1.2954
19746TIP3   OH280652   1.749   4.770  16.199  0.3974  0.1054 -0.4629
19746TIP3    H180653   1.660   4.736  16.189  0.3049 -0.3141  1.3377
19746TIP3    H280654   1.805   4.702  16.161 -0.0177  0.2771 -1.4147
19747TIP3   OH280655   2.846   1.212   1.615  0.0836 -0.0058  0.2628
19747TIP3    H180656   2.751   1.215   1.620  0.1374  3.1793  1.2347
19747TIP3    H280657   2.871   1.294   1.572  2.4014 -1.2040 -0.9101
19748TIP3   OH280658   1.510   2.867   4.369 -0.0681 -0.0358  0.2791
19748TIP3    H180659   1.415   2.866   4.385 -0.2334  1.6455 -0.3467
19748TIP3    H280660   1.524   2.796   4.306 -0.7701 -0.8565  1.0204
19749TIP3   OH280661   4.324   2.211   3.196  0.6655 -0.0832  0.2878
19749TIP3    H180662   4.296   2.121   3.178  1.1066 -0.2732  0.5324
19749TIP3    H280663   4.341   2.212   3.290 -0.7377  0.6560  0.5614
19750TIP3   OH280664   2.607   4.308  12.425  0.6645  0.4822 -0.0175
19750TIP3    H180665   2.559   4.279  12.503 -0.4175  0.8689 -0.5132
19750TIP3    H280666   2.592   4.402  12.421 -0.8436  0.2236 -1.6707
19751TIP3   OH280667   4.216   3.145  15.074 -0.1594 -0.0002  0.3262
19751TIP3    H180668   4.289   3.094  15.108  1.4167  0.7044 -1.8178
19751TIP3    H280669   4.248   3.235  15.071 -1.9114  0.7097  1.4053
19752TIP3   OH280670   5.558   2.034   5.046 -0.6406  0.1542 -0.2807
19752TIP3    H180671   5.635   2.083   5.075  1.6500 -0.0994 -5.0519
19752TIP3    H280672   5.497   2.101   5.017 -0.4568  0.2829 -0.3713
19753TIP3   OH280673   5.581   2.443   5.291  0.3503  0.2609 -0.0252
19753TIP3    H180674   5.617   2.414   5.376 -0.5107  0.9931  0.6115
19753TIP3    H280675   5.490   2.415   5.294  0.3359  0.2266 -0.7557
19754TIP3   OH280676   6.666   4.760   0.189  0.1789  0.8527 -0.1276
19754TIP3    H180677   6.725   4.744   0.115  0.1064  1.3672 -0.2991
19754TIP3    H280678   6.660   4.675   0.234  0.5860  0.6529 -0.4461
19755TIP3   OH280679   4.301   1.698  14.711 -0.2697 -0.2395  0.0170
19755TIP3    H180680   4.215   1.658  14.703  0.5627 -1.8515 -1.5389
19755TIP3    H280681   4.326   1.682  14.802 -1.4930  0.0262  0.4160
19756TIP3   OH280682   1.451   0.930   1.834  0.7427  0.1131 -0.4119
19756TIP3    H180683   1.453   0.994   1.763  2.1559  2.4118  1.5274
19756TIP3    H280684   1.360   0.930   1.864  0.5312  0.5072 -1.0438
19757TIP3   OH280685   5.660   0.536  16.942  0.4595 -0.4127 -0.6360
19757TIP3    H180686   5.594   0.591  16.900  1.2486  0.0781 -1.2803
19757TIP3    H280687   5.633   0.446  16.922 -0.3731 -0.2451 -0.3071
19758TIP3   OH280688   4.865   4.224  10.363  0.3234  0.2254 -0.4702
19758TIP3    H180689   4.869   4.131  10.388 -0.4025  0.3802  0.2536
19758TIP3    H280690   4.805   4.263  10.426  0.6149  1.1937 -0.7820
19759TIP3   OH280691   3.913   1.343   2.065 -0.3412  0.4504  0.6357
19759TIP3    H180692   3.968   1.265   2.057 -0.4039  0.6059 -2.5884
19759TIP3    H280693   3.831   1.311   2.103  0.8444 -0.3077  2.7327
19760TIP3   OH280694   0.308   4.807  10.197 -0.2315 -0.1310 -0.2562
19760TIP3    H180695   0.318   4.877  10.261 -2.1035 -0.0647  0.0266
19760TIP3    H280696   0.384   4.750  10.211 -1.2557 -0.9249  3.0973
19761TIP3   OH280697   2.873   4.605   4.236  0.2913  0.0153  0.2504
19761TIP3    H180698   2.849   4.657   4.313  2.1712  1.9253 -0.3647
19761TIP3    H280699   2.879   4.515   4.269  0.7078  0.7360  2.2799
19762TIP3   OH280700   6.497   5.635   1.047 -0.6052 -0.5521  0.3211
19762TIP3    H180701   6.497   5.662   0.956 -1.2664 -1.1554  0.1308
19762TIP3    H280702   6.490   5.717   1.097 -0.8017 -0.2566 -0.1878
19763TIP3   OH280703   1.119   2.906  16.722  0.0830  0.4736 -0.0623
19763TIP3    H180704   1.067   2.931  16.645 -2.1330  0.8272  1.4772
19763TIP3    H280705   1.140   2.989  16.765 -0.9208  0.1500  1.0821
19764TIP3   OH280706   5.473   5.593   1.346  0.3616 -0.0924  0.1307
19764TIP3    H180707   5.396   5.642   1.375  1.0622  0.5191  1.0159
19764TIP3    H280708   5.453   5.567   1.256 -0.9548 -0.1211  0.4196
19765TIP3   OH280709   0.103   3.893   1.123  0.2995  0.8387 -0.7813
19765TIP3    H180710   0.085   3.799   1.133  0.6832  0.8146 -0.2329
19765TIP3    H280711   0.024   3.936   1.156  1.1185  0.7354  1.5356
19766TIP3   OH280712   1.753   0.697   1.889  0.6305  0.1705  0.0250
19766TIP3    H180713   1.693   0.701   1.815  0.9201 -0.5374 -0.2541
19766TIP3    H280714   1.756   0.787   1.922 -1.3085  0.0516  0.6403
19767TIP3   OH280715   1.354   1.449  14.046 -0.0461 -0.0101  0.9726
19767TIP3    H180716   1.276   1.503  14.031 -1.3072 -1.9477  0.0812
19767TIP3    H280717   1.426   1.512  14.055 -0.8788  1.8434 -3.0329
19768TIP3   OH280718   4.076   0.342   5.140 -0.3243 -0.2354 -0.1057
19768TIP3    H180719   4.077   0.273   5.074  0.1249 -0.2289 -0.1093
19768TIP3    H280720   4.152   0.396   5.120 -0.5775  0.1714 -0.0033
19769TIP3   OH280721   3.446   5.634   4.758 -0.2418  0.2802  0.3167
19769TIP3    H180722   3.413   5.717   4.724 -1.2278 -0.1300  0.2344
19769TIP3    H280723   3.492   5.657   4.839  1.7768  1.2195 -1.0218
19770TIP3   OH280724   5.603   1.840  15.419 -0.1724 -0.6136  0.0322
19770TIP3    H180725   5.568   1.752  15.411 -0.1613 -0.6273  0.1295
19770TIP3    H280726   5.655   1.838  15.500 -0.9466 -0.2612  0.5506
19771TIP3   OH280727   3.423   5.239  13.565  0.3951  0.2139  0.2191
19771TIP3    H180728   3.401   5.236  13.472 -1.3315 -0.5273  0.6068
19771TIP3    H280729   3.488   5.168  13.576  0.0427 -0.1963 -0.2898
19772TIP3   OH280730   3.829   0.458  15.891 -0.1071 -0.2450  0.5270
19772TIP3    H180731   3.919   0.483  15.872 -0.6606  1.2995 -0.2832
19772TIP3    H280732   3.830   0.428  15.981  0.8211  1.9735  1.3216
19773TIP3   OH280733   5.917   0.123   1.982  0.9626 -0.3050 -0.0488
19773TIP3    H180734   5.826   0.102   2.006  0.7893  0.6563  0.1697
19773TIP3    H280735   5.932   0.073   1.902  0.6466 -1.4286  0.5568
19774TIP3   OH280736   5.861   5.889  14.467 -0.4744 -0.0657  0.5669
19774TIP3    H180737   5.869   5.830  14.542  1.1622 -1.2449 -0.4438
19774TIP3    H280738   5.951   5.898  14.434 -1.0902  0.6908 -1.0329
19775TIP3   OH280739   1.420   3.926   1.967 -0.1474 -1.0680  0.7840
19775TIP3    H180740   1.475   3.875   2.026 -0.4096 -0.6395  1.4090
19775TIP3    H280741   1.481   3.981   1.918  0.0171 -0.8763  1.1982
19776TIP3   OH280742   3.761   5.148  14.989 -0.5868 -0.1422 -0.0244
19776TIP3    H180743   3.813   5.224  14.961 -0.4690 -0.4161 -0.5688
19776TIP3    H280744   3.670   5.174  14.973 -0.5037 -0.4617 -1.1379
19777TIP3   OH280745   4.225   4.627   4.300 -0.0882 -0.2579  0.5198
19777TIP3    H180746   4.270   4.650   4.382  1.9275 -0.9358 -0.3470
19777TIP3    H280747   4.180   4.545   4.320 -0.7661  0.2864  1.3247
19778TIP3   OH280748   6.314   2.063  16.534 -0.1000 -0.6384  0.2996
19778TIP3    H180749   6.247   2.113  16.487 -1.3549 -2.6895 -0.2166
19778TIP3    H280750   6.353   2.125  16.595 -0.3356  1.4091 -1.5225
19779TIP3   OH280751   0.928   0.761   5.397 -0.1052 -0.1340 -0.3300
19779TIP3    H180752   0.861   0.693   5.386  1.2111 -1.4805 -0.2451
19779TIP3    H280753   1.004   0.728   5.350  0.1973  1.8888 -1.3990
19780TIP3   OH280754   4.922   1.763   5.250 -0.0250  0.8517 -0.0430
19780TIP3    H180755   4.982   1.836   5.265  0.8959  0.1908 -0.3690
19780TIP3    H280756   4.958   1.691   5.302 -0.3405  0.3423 -0.5102
19781TIP3   OH280757   6.480   0.454  11.645  0.1412  0.2169  0.0435
19781TIP3    H180758   6.519   0.476  11.560 -2.3027  1.5034 -0.8267
19781TIP3    H280759   6.411   0.391  11.625 -1.5107  1.7025  0.8017
19782TIP3   OH280760   0.635   4.464  11.121  0.5893  0.0606 -0.3310
19782TIP3    H180761   0.641   4.385  11.067  0.5885  0.9952 -1.7347
19782TIP3    H280762   0.558   4.449  11.176 -0.7392 -0.0046 -2.1406
19783TIP3   OH280763   3.166   0.600   4.636 -0.2395 -0.1603 -0.1064
19783TIP3    H180764   3.144   0.508   4.649  0.5886 -0.1891  1.3331
19783TIP3    H280765   3.136   0.644   4.716  1.1318  0.4707  0.0996
19784TIP3   OH280766   3.155   1.694  11.345 -0.1715 -0.0049 -0.1160
19784TIP3    H180767   3.075   1.647  11.365 -0.8404  0.7062 -1.0437
19784TIP3    H280768   3.220   1.625  11.331 -0.7536 -0.5998  0.0617
19785TIP3   OH280769   3.420   2.549   1.614 -0.6487  0.8079  0.1784
19785TIP3    H180770   3.431   2.548   1.519 -0.6619  0.2190  0.1816
19785TIP3    H280771   3.458   2.632   1.642  0.5530  0.4072 -0.2013
19786TIP3   OH280772   6.779   3.524  14.800  0.4106 -0.7408  0.2182
19786TIP3    H180773   6.859   3.489  14.761  0.2032 -1.6224  0.5660
19786TIP3    H280774   6.765   3.472  14.879 -2.2235 -2.8357 -1.4335
19787TIP3   OH280775   5.230   2.361  12.000 -0.0773 -0.0237 -0.5931
19787TIP3    H180776   5.186   2.277  12.012  0.8597 -0.5442 -0.6932
19787TIP3    H280777   5.188   2.419  12.063  1.6297 -1.4932  2.1252
19788TIP3   OH280778   3.792   0.938  10.489 -0.6427  0.0781  0.4126
19788TIP3    H180779   3.834   0.858  10.457  1.7126  1.3600  0.0610
19788TIP3    H280780   3.852   0.972  10.555 -1.5577  1.5570  0.5360
19789TIP3   OH280781   5.421   1.841   1.099 -0.1002  0.1935 -0.4301
19789TIP3    H180782   5.411   1.901   1.173  0.0173 -0.2921 -0.0134
19789TIP3    H280783   5.339   1.792   1.096 -0.6191  1.0721 -1.4172
19790TIP3   OH280784   3.459   1.520  10.740  0.2442  0.3606  0.3526
19790TIP3    H180785   3.440   1.580  10.669 -1.0244 -0.7893 -0.3208
19790TIP3    H280786   3.508   1.449  10.699  0.5693  0.2687  0.8804
19791TIP3   OH280787   0.275   4.199   1.439  0.1798  0.4012 -0.4541
19791TIP3    H180788   0.297   4.255   1.365  0.2816  0.4445 -0.3896
19791TIP3    H280789   0.184   4.221   1.459  0.0945  0.2627 -0.6803
19792TIP3   OH280790   0.557   3.476  11.149  0.1094 -0.1012 -0.0809
19792TIP3    H180791   0.577   3.459  11.241  0.1929 -0.2881 -0.1353
19792TIP3    H280792   0.560   3.390  11.107  3.8108  0.2964 -1.0237
19793TIP3   OH280793   3.330   2.832   3.671  0.1235  0.0060 -0.1395
19793TIP3    H180794   3.254   2.825   3.613 -1.6328 -0.9314  2.1084
19793TIP3    H280795   3.388   2.760   3.646 -1.4387 -1.4845  0.3473
19794TIP3   OH280796   6.801   1.024   2.775  0.6086  0.5636  0.1947
19794TIP3    H180797   6.883   0.975   2.773 -1.2795 -2.8330 -1.7227
19794TIP3    H280798   6.791   1.058   2.686 -0.9967 -0.8576 -0.2079
19795TIP3   OH280799   1.961   5.897  13.476 -0.1860 -0.2953  0.6117
19795TIP3    H180800   1.868   5.884  13.457  0.0732  0.3914 -1.4467
19795TIP3    H280801   2.005   5.864  13.398  1.1873  1.0448  0.7880
19796TIP3   OH280802   4.020   2.573   4.774 -0.5136 -0.4334  0.2002
19796TIP3    H180803   3.939   2.623   4.761 -0.0451  0.2263 -0.2345
19796TIP3    H280804   3.994   2.482   4.759 -0.8191 -0.0726 -1.7174
19797TIP3   OH280805   2.842   0.755   5.645 -0.1295 -0.1467  0.1168
19797TIP3    H180806   2.929   0.779   5.678  0.1122  0.4603 -0.8888
19797TIP3    H280807   2.787   0.749   5.722  0.4062  1.2110  0.6408
19798TIP3   OH280808   6.217   4.348  12.475  0.0744  0.2561 -0.4896
19798TIP3    H180809   6.154   4.418  12.459 -2.3023 -1.2906  1.4003
19798TIP3    H280810   6.241   4.359  12.567 -0.4980 -1.4644 -0.1023
19799TIP3   OH280811   0.608   2.245  16.321 -0.1009  0.0840 -0.1685
19799TIP3    H180812   0.562   2.162  16.306  0.8691 -0.2050 -1.8441
19799TIP3    H280813   0.540   2.312  16.309 -0.6324 -0.4269 -0.0593
19800TIP3   OH280814   4.881   5.291  16.374  0.2806  0.1665 -0.1984
19800TIP3    H180815   4.868   5.366  16.316  0.9432  0.3358 -0.1405
19800TIP3    H280816   4.932   5.326  16.447  1.9475 -0.6453 -0.9159
19801TIP3   OH280817   1.918   3.181  11.760  0.0746  0.1039 -0.0332
19801TIP3    H180818   1.935   3.175  11.666  1.2344 -0.1839  0.1789
19801TIP3    H280819   2.005   3.178  11.801 -0.2444  2.1664  0.9507
19802TIP3   OH280820   3.819   1.937   6.411 -0.1171 -0.6621 -0.5077
19802TIP3    H180821   3.826   1.864   6.473  0.7589  2.1198  3.0096
19802TIP3    H280822   3.725   1.949   6.399 -0.3099 -1.3011  0.2563
19803TIP3   OH280823   1.695   3.668  11.665 -0.3209  0.7000 -0.5107
19803TIP3    H180824   1.649   3.723  11.602 -1.5373  0.9613  0.5635
19803TIP3    H280825   1.689   3.715  11.748 -0.3264 -0.4743  0.1834
19804TIP3   OH280826   2.478   6.427  16.756  0.4846 -0.6088 -0.0501
19804TIP3    H180827   2.487   6.339  16.720 -2.4452 -1.1119  0.1833
19804TIP3    H280828   2.443   6.414  16.844 -0.2457  0.7483 -0.1064
19805TIP3   OH280829   6.233   1.418   1.422 -0.5046  0.5200  0.6038
19805TIP3    H180830   6.159   1.358   1.420 -1.5320  1.6903  1.5346
19805TIP3    H280831   6.193   1.505   1.416  0.8706  1.1632  0.1798
19806TIP3   OH280832   5.356   5.138  15.108  0.1497  0.4099 -0.2974
19806TIP3    H180833   5.337   5.060  15.161 -0.5204  0.7330 -0.0492
19806TIP3    H280834   5.270   5.165  15.075  0.4993  0.5033 -1.1442
19807TIP3   OH280835   1.550   1.596  15.729  0.7889  0.2552 -0.4220
19807TIP3    H180836   1.520   1.544  15.654  1.8130  0.9979 -1.3732
19807TIP3    H280837   1.613   1.657  15.692  0.6507  1.2443  0.9122
19808TIP3   OH280838   3.417   1.340   4.623  0.1821 -0.5219 -0.5467
19808TIP3    H180839   3.494   1.333   4.679  0.2797  2.1012 -0.2167
19808TIP3    H280840   3.346   1.365   4.683 -0.7939 -2.2218 -0.9481
19809TIP3   OH280841   5.215   3.647  15.909 -0.4374 -0.2106  0.3222
19809TIP3    H180842   5.264   3.589  15.850 -0.6934 -0.7430  0.6201
19809TIP3    H280843   5.282   3.687  15.964 -0.3633 -1.5576  1.2778
19810TIP3   OH280844   3.658   6.089  14.013  0.4012 -0.0961  0.1184
19810TIP3    H180845   3.729   6.115  14.071  1.5105 -1.8370 -0.3801
19810TIP3    H280846   3.615   6.171  13.988  4.1053  1.4277 -1.9538
19811TIP3   OH280847   5.743   5.423  11.820  0.4021  0.5361  0.3356
19811TIP3    H180848   5.653   5.395  11.806  0.1012  0.4104  2.2384
19811TIP3    H280849   5.749   5.509  11.780 -0.5552  0.5453  0.2028
19812TIP3   OH280850   3.483   4.866   6.423  0.2687 -0.4263  0.0319
19812TIP3    H180851   3.481   4.855   6.328  1.5438 -2.0436  0.1468
19812TIP3    H280852   3.401   4.827   6.453 -0.1260  0.0681 -0.3933
19813TIP3   OH280853   2.022   6.062   0.695  0.1980  0.1500  0.2871
19813TIP3    H180854   2.082   6.129   0.661  0.1136 -0.4066 -1.0438
19813TIP3    H280855   2.077   6.002   0.744  0.7710 -0.3765 -0.9555
19814TIP3   OH280856   0.171   4.773   4.373 -0.2417  0.1332 -0.7596
19814TIP3    H180857   0.258   4.752   4.339 -0.4296 -0.7403 -0.7380
19814TIP3    H280858   0.181   4.858   4.415  0.5599  0.1152 -0.8999
19815TIP3   OH280859   6.710   0.609  16.199 -0.1311  0.6391 -0.3201
19815TIP3    H180860   6.696   0.514  16.193 -0.8653  0.6791  0.5600
19815TIP3    H280861   6.785   0.617  16.259 -0.8067  0.6383  0.5453
19816TIP3   OH280862   1.165   4.987   4.636 -0.1525 -0.0010 -0.1920
19816TIP3    H180863   1.234   4.943   4.586 -0.9981 -0.1592 -1.2628
19816TIP3    H280864   1.191   5.079   4.636  0.1116 -0.0715 -0.5029
19817TIP3   OH280865   0.011   6.357  12.198  0.1736 -1.0957  0.2162
19817TIP3    H180866  -0.059   6.331  12.138  0.0394 -0.5883  0.1454
19817TIP3    H280867  -0.006   6.450  12.214  1.4670 -0.6741 -0.6756
19818TIP3   OH280868   5.003   2.643   0.395  0.5239  0.7850 -0.0458
19818TIP3    H180869   4.984   2.568   0.339  0.7120 -0.1812  1.1425
19818TIP3    H280870   5.098   2.655   0.389  0.2912  2.0674 -1.6088
19819TIP3   OH280871   2.256   2.499   5.236  0.4796 -0.2311 -0.4142
19819TIP3    H180872   2.238   2.583   5.278  3.7104 -0.0439  0.9200
19819TIP3    H280873   2.242   2.516   5.142 -2.0549  0.7892  0.0690
19820TIP3   OH280874   2.124   1.722  12.606  0.1747 -0.4658 -0.4432
19820TIP3    H180875   2.203   1.775  12.609  0.5588 -1.0676  1.3362
19820TIP3    H280876   2.154   1.634  12.585 -0.0548 -0.6123 -0.1763
19821TIP3   OH280877   3.723   5.168   3.255 -0.4000 -0.3036 -0.3435
19821TIP3    H180878   3.720   5.234   3.325  0.6976 -0.0104 -0.5603
19821TIP3    H280879   3.760   5.090   3.298 -2.8129 -1.2300  0.2313
19822TIP3   OH280880   2.514   3.352  12.080  0.0058 -0.3577  0.0596
19822TIP3    H180881   2.472   3.304  12.151 -1.4225 -1.6285 -1.5387
19822TIP3    H280882   2.493   3.444  12.097  0.3054 -0.5511  1.6249
19823TIP3   OH280883   1.679   5.298   2.423 -0.5342 -0.4515 -0.6770
19823TIP3    H180884   1.701   5.390   2.405 -0.1934 -0.4716 -0.3848
19823TIP3    H280885   1.754   5.266   2.474 -1.1948 -0.5729  0.2255
19824TIP3   OH280886   3.328   6.487   1.271 -0.3744 -0.5861  0.3485
19824TIP3    H180887   3.396   6.435   1.230  0.4721 -0.0187  0.9895
19824TIP3    H280888   3.263   6.424   1.302  1.0315 -1.3378  1.8507
19825TIP3   OH280889   2.946   3.557   0.298 -0.0062 -0.4494 -0.0963
19825TIP3    H180890   2.997   3.637   0.284 -1.3485  0.1520 -1.9354
19825TIP3    H280891   2.868   3.569   0.244 -2.0906 -1.3707  2.4708
19826TIP3   OH280892   1.973   3.947   2.682 -0.2673  0.2374 -0.3725
19826TIP3    H180893   2.049   3.942   2.625  1.7387  2.4323  1.8810
19826TIP3    H280894   1.997   3.897   2.759 -0.8350  1.3752  0.5834
19827TIP3   OH280895   4.605   3.807   1.804  0.4724  0.3209 -0.1116
19827TIP3    H180896   4.567   3.881   1.754  0.2890  0.1761 -0.1883
19827TIP3    H280897   4.575   3.729   1.757  0.5273  0.1915  0.0682
19828TIP3   OH280898   6.393   0.417  15.570 -0.3190  0.2560  0.3760
19828TIP3    H180899   6.445   0.491  15.539  0.2730 -0.3625 -0.1237
19828TIP3    H280900   6.384   0.432  15.664 -0.6333  1.2232  0.1983
19829TIP3   OH280901   1.764   6.197  13.512  0.5029 -0.2958  0.1234
19829TIP3    H180902   1.807   6.281  13.524  0.7167 -0.6120  1.8811
19829TIP3    H280903   1.783   6.173  13.422  0.8689  1.2891 -0.2522
19830TIP3   OH280904   5.085   4.482   5.720  0.1394 -0.2172  0.4558
19830TIP3    H180905   5.097   4.507   5.812  1.1210 -2.7262  1.1018
19830TIP3    H280906   5.147   4.411   5.706 -0.6589 -0.5515 -1.9044
19831TIP3   OH280907   3.446   2.932  13.505  0.4617  0.1473  0.1096
19831TIP3    H180908   3.396   3.003  13.546 -0.1440  0.6921 -1.5018
19831TIP3    H280909   3.513   2.978  13.453  0.5164 -0.4798 -0.3795
19832TIP3   OH280910   6.600   5.305  16.051  1.0711 -0.5755 -0.2613
19832TIP3    H180911   6.595   5.393  16.015 -0.6866 -0.2142  0.7410
19832TIP3    H280912   6.685   5.301  16.094  0.4806  1.2978  1.2074
19833TIP3   OH280913   2.527   0.598  14.381  0.2324  0.0213  0.0997
19833TIP3    H180914   2.521   0.684  14.340 -0.9102 -0.5895 -1.1040
19833TIP3    H280915   2.459   0.598  14.447  0.5764  0.2207  0.4537
19834TIP3   OH280916   5.374   3.225  15.803 -0.1380 -0.6179  0.4608
19834TIP3    H180917   5.358   3.162  15.874 -1.2012 -1.3133 -0.3540
19834TIP3    H280918   5.466   3.250  15.814 -0.3474 -0.4588  2.2572
19835TIP3   OH280919   2.924   1.553  11.321 -0.7838  0.4748 -0.0321
19835TIP3    H180920   2.895   1.464  11.342 -0.6698  0.6349  0.8411
19835TIP3    H280921   2.872   1.577  11.244  0.4101 -0.9647 -1.3647
19836TIP3   OH280922   2.683   3.104  12.731 -0.5307 -0.1705 -0.4693
19836TIP3    H180923   2.713   3.195  12.732  0.8862 -0.5960 -0.9438
19836TIP3    H280924   2.761   3.053  12.754 -0.8783 -1.3422 -1.7228
19837TIP3   OH280925   4.901   5.702  16.743  0.2027 -0.2923  0.1591
19837TIP3    H180926   4.921   5.796  16.747  2.8744 -0.7451 -0.6660
19837TIP3    H280927   4.900   5.682  16.649  0.8087 -1.2685  0.3433
19838TIP3   OH280928   0.602   3.736  12.161 -0.3821 -0.3270  0.6221
19838TIP3    H180929   0.555   3.747  12.080 -0.1570 -0.1967  0.5084
19838TIP3    H280930   0.669   3.805  12.161 -1.5313  0.8347  1.7611
19839TIP3   OH280931   0.328   2.214  16.500 -0.1852  0.6648 -0.3108
19839TIP3    H180932   0.308   2.295  16.548 -2.0696  0.4683 -0.7145
19839TIP3    H280933   0.300   2.232  16.410  0.5199 -0.0286 -0.6852
19840TIP3   OH280934   4.162   2.101  16.041  0.4805 -0.2892 -0.6472
19840TIP3    H180935   4.233   2.051  16.082  0.9232  0.5700 -0.3301
19840TIP3    H280936   4.187   2.192  16.054  0.9554  0.0533 -3.3774
19841TIP3   OH280937   1.854   5.160   1.327 -0.5516  0.8701  0.6162
19841TIP3    H180938   1.792   5.225   1.292 -0.3239  0.8879  0.2444
19841TIP3    H280939   1.940   5.202   1.318 -0.5540  1.2092  1.9416
19842TIP3   OH280940   6.093   1.945   5.250  0.3318  0.1212 -0.2354
19842TIP3    H180941   6.144   2.025   5.258 -1.7865  1.6063 -0.5170
19842TIP3    H280942   6.024   1.967   5.188 -0.2651 -1.9794 -0.3959
19843TIP3   OH280943   4.527   6.116   1.610  0.0225 -0.0404 -0.3772
19843TIP3    H180944   4.451   6.094   1.557  0.5579  0.8750 -1.5721
19843TIP3    H280945   4.593   6.052   1.583 -0.6546 -1.6791  1.5958
19844TIP3   OH280946   0.154   4.150  14.985  0.3537  0.0229  0.0973
19844TIP3    H180947   0.102   4.161  15.065 -0.9587 -1.0013 -0.5745
19844TIP3    H280948   0.113   4.209  14.922 -0.0113 -0.7744 -0.4317
19845TIP3   OH280949   0.866   0.555   4.512 -0.0665 -0.2187 -0.0110
19845TIP3    H180950   0.832   0.469   4.535  0.3496 -0.2432  0.5149
19845TIP3    H280951   0.828   0.615   4.577 -2.0956  0.3758 -1.6210
19846TIP3   OH280952   4.494   3.629  15.126  0.0473  0.2027 -0.3314
19846TIP3    H180953   4.530   3.686  15.194 -0.8259  1.0110 -0.5264
19846TIP3    H280954   4.400   3.629  15.143 -0.2973  1.1720 -2.1040
19847TIP3   OH280955   0.474   2.260   3.556 -0.3616  0.0601 -0.3002
19847TIP3    H180956   0.396   2.238   3.608  0.3653 -1.9874  0.0148
19847TIP3    H280957   0.493   2.351   3.580  0.3939 -0.9501  3.7228
19848TIP3   OH280958   5.334   5.382   1.141  0.1972  0.6153  0.2991
19848TIP3    H180959   5.418   5.341   1.117 -0.5580 -0.2991 -0.8830
19848TIP3    H280960   5.269   5.337   1.088 -1.1465  0.9056  1.6294
19849TIP3   OH280961   1.232   2.658  15.005  0.0081  0.5399  0.0936
19849TIP3    H180962   1.163   2.660  14.938  0.5897 -1.0395 -0.6073
19849TIP3    H280963   1.185   2.644  15.087 -0.5241 -1.5093 -0.4873
19850TIP3   OH280964   2.011   1.490  15.958 -0.6932  0.1480 -0.3838
19850TIP3    H180965   2.004   1.459  15.867  0.6866  2.4377 -1.3387
19850TIP3    H280966   1.920   1.506  15.984 -1.0640  0.3268 -1.6888
19851TIP3   OH280967   4.276   0.035  14.482  0.0210  0.1154 -0.3291
19851TIP3    H180968   4.194  -0.003  14.451  1.0598 -0.5319 -2.5006
19851TIP3    H280969   4.267   0.129  14.464  0.3686 -0.1707 -2.2410
19852TIP3   OH280970   5.262   2.279   6.589  0.0184  0.2613  0.4949
19852TIP3    H180971   5.287   2.200   6.636 -1.5425 -1.3877 -1.2886
19852TIP3    H280972   5.170   2.266   6.568  0.5170  1.0570 -2.6298
19853TIP3   OH280973   5.243   5.653   2.531  0.7690  0.0235 -0.5591
19853TIP3    H180974   5.226   5.612   2.447 -0.9251  1.4904 -0.9849
19853TIP3    H280975   5.159   5.691   2.557  0.8997 -1.4070  2.3921
19854TIP3   OH280976   3.411   5.404   2.839 -0.0967  0.3988  0.4254
19854TIP3    H180977   3.435   5.427   2.749 -0.2703  2.8102  0.9344
19854TIP3    H280978   3.487   5.356   2.872  1.4544  2.4710  0.0296
19855TIP3   OH280979   5.988   1.276   0.049 -0.2877 -0.2837  0.1709
19855TIP3    H180980   5.919   1.237  -0.004 -0.0946 -0.0099 -0.2858
19855TIP3    H280981   5.945   1.298   0.132 -0.7790 -0.0211 -0.1442
19856TIP3   OH280982   2.034   4.176   3.612  0.1342 -0.2310  0.5383
19856TIP3    H180983   2.083   4.249   3.650 -0.6389 -0.4428  2.0647
19856TIP3    H280984   1.970   4.153   3.680  0.0099 -1.9894 -0.1129
19857TIP3   OH280985   2.913   5.223   6.008  0.5243  0.2237 -0.1583
19857TIP3    H180986   2.919   5.200   6.101  0.2668  0.4059 -0.0963
19857TIP3    H280987   2.877   5.312   6.008  0.2802  0.1254 -0.4407
19858TIP3   OH280988   0.148   0.498  11.169  0.2020 -0.2148  0.0763
19858TIP3    H180989   0.183   0.543  11.246  1.0475 -0.6463 -0.0437
19858TIP3    H280990   0.054   0.489  11.187  0.4441 -0.6220  1.2223
19859TIP3   OH280991   6.648   0.932  11.942  0.1415 -0.0247 -0.4607
19859TIP3    H180992   6.587   0.925  11.868 -1.7437  1.5169  0.8453
19859TIP3    H280993   6.727   0.971  11.904  0.3437 -1.9279 -2.1664
19860TIP3   OH280994   2.189   6.483  12.920 -0.1356 -0.0782  0.3086
19860TIP3    H180995   2.199   6.542  12.995  2.4619  0.2280 -0.2051
19860TIP3    H280996   2.278   6.466  12.890 -0.9749 -2.0326 -1.3287
19861TIP3   OH280997   6.762   2.469  14.486  0.6307 -0.3212 -0.4342
19861TIP3    H180998   6.773   2.563  14.471 -2.6149  0.4013  1.0067
19861TIP3    H280999   6.736   2.434  14.401 -0.3408  0.4955 -0.4817
19862TIP3   OH281000   5.990   0.932   4.157 -0.0563  0.5051 -0.4769
19862TIP3    H181001   6.034   0.998   4.211 -0.4025  0.7511 -0.4910
19862TIP3    H281002   5.897   0.945   4.175 -0.2101  0.9271 -1.5132
19863TIP3   OH281003   4.473   3.221  14.530  0.2499 -0.3003 -0.2781
19863TIP3    H181004   4.427   3.300  14.559  0.7155  0.1081 -0.6152
19863TIP3    H281005   4.525   3.194  14.605 -1.1972 -1.2828  0.4003
19864TIP3   OH281006   3.811   4.518  16.870  0.5998 -0.1632  0.1178
19864TIP3    H181007   3.802   4.543  16.962  0.8130 -1.5814  0.5381
19864TIP3    H281008   3.906   4.513  16.856  0.6721  2.2271 -0.8279
19865TIP3   OH281009   3.508   0.395  15.062 -0.2172 -0.6392 -0.2174
19865TIP3    H181010   3.565   0.335  15.110 -0.1579 -0.6996 -0.3600
19865TIP3    H281011   3.510   0.476  15.112  0.8211 -0.3058 -0.7708
19866TIP3   OH281012   3.793   6.101  11.473 -0.1513 -0.0549 -0.6738
19866TIP3    H181013   3.884   6.069  11.471  0.2473  0.8845  0.7643
19866TIP3    H281014   3.742   6.027  11.507  0.3192 -0.1081 -0.0586
19867TIP3   OH281015   1.894   4.477  11.111  0.2399 -0.4401 -0.2711
19867TIP3    H181016   1.966   4.449  11.054 -0.3188  0.4085 -1.4352
19867TIP3    H281017   1.815   4.450  11.065 -0.2361  0.4404  0.0063
19868TIP3   OH281018   6.767   0.248  13.993 -0.1863 -0.7269 -0.5050
19868TIP3    H181019   6.721   0.196  13.927  2.5778 -1.6454 -1.8644
19868TIP3    H281020   6.836   0.292  13.944 -0.1746  1.3540  1.2656
19869TIP3   OH281021   5.987   0.811   3.301 -0.6813 -0.3963  0.8858
19869TIP3    H181022   5.928   0.849   3.235  1.3398 -0.8092 -1.3028
19869TIP3    H281023   6.069   0.859   3.291  0.1974 -1.5901  1.9529
19870TIP3   OH281024   2.902   1.786  13.429  0.1188 -0.1290  0.1642
19870TIP3    H181025   2.894   1.827  13.515 -3.2216  0.0847 -0.1205
19870TIP3    H281026   2.957   1.709  13.443  1.3921  1.0609  2.0005
19871TIP3   OH281027   6.798   2.992   5.189  0.5291 -0.5061 -0.7718
19871TIP3    H181028   6.866   2.925   5.191  0.2904 -0.7369  0.2971
19871TIP3    H281029   6.717   2.945   5.212  0.5486  0.3282  1.2245
19872TIP3   OH281030   1.547   4.515   2.271 -0.3184 -0.3100 -0.9177
19872TIP3    H181031   1.526   4.507   2.364  0.0596  1.5593 -0.6229
19872TIP3    H281032   1.463   4.536   2.229 -0.2102  0.5514 -0.7238
19873TIP3   OH281033   0.399   6.028  14.005  0.0265  0.2694  0.3181
19873TIP3    H181034   0.427   6.033  14.097 -0.5805 -0.4597  0.5539
19873TIP3    H281035   0.481   6.015  13.956  0.2391 -0.6988  0.8944
19874TIP3   OH281036   3.397   0.018   4.831 -0.1818 -0.6253 -0.0457
19874TIP3    H181037   3.343   0.095   4.848  0.0324 -0.3274 -0.6766
19874TIP3    H281038   3.418  -0.017   4.917 -0.7053 -0.2724  0.2266
19875TIP3   OH281039   5.662   0.034  12.928 -0.0420 -0.4648  0.0589
19875TIP3    H181040   5.650  -0.018  13.008 -1.5742  0.8504  0.7401
19875TIP3    H281041   5.751   0.068  12.935  0.1629 -1.1081  0.7372
19876TIP3   OH281042   1.026   1.124  12.193 -0.5309 -0.4190  0.2835
19876TIP3    H181043   1.025   1.162  12.282 -0.7229  0.0148  0.1013
19876TIP3    H281044   1.008   1.199  12.136 -0.5674 -0.7296 -0.1116
19877TIP3   OH281045   1.513   0.252   4.055 -0.0784 -0.1245  0.5404
19877TIP3    H181046   1.516   0.347   4.048 -1.0702 -0.2190 -3.0670
19877TIP3    H281047   1.421   0.232   4.073 -0.2604 -0.4274 -0.6679
19878TIP3   OH281048   1.551   5.467  14.955 -0.3237  0.1097  0.0558
19878TIP3    H181049   1.483   5.494  14.893 -2.3759  0.3650  2.2900
19878TIP3    H281050   1.578   5.548  14.998  1.1499 -0.0539 -0.4964
19879TIP3   OH281051   1.162   3.926  12.872 -0.1124  0.3065  0.3764
19879TIP3    H181052   1.231   3.870  12.835 -0.5156  0.1439 -0.1467
19879TIP3    H281053   1.146   3.991  12.803 -2.9059 -1.6841 -1.0550
19880TIP3   OH281054   6.463   0.966  16.371 -0.1867 -0.6971  0.5930
19880TIP3    H181055   6.496   0.960  16.461 -0.2027  1.8989  0.8552
19880TIP3    H281056   6.370   0.945  16.378  0.2599 -2.7513  0.7593
19881TIP3   OH281057   4.543   2.121  15.717 -0.1097 -0.3109  0.5572
19881TIP3    H181058   4.475   2.061  15.748  0.1977 -1.1390 -0.3191
19881TIP3    H281059   4.526   2.131  15.624  2.7923 -3.1835 -0.4813
19882TIP3   OH281060   5.606   1.014   6.113 -0.0297 -0.0190 -0.4880
19882TIP3    H181061   5.559   1.094   6.089  0.6431  0.0329 -1.7417
19882TIP3    H281062   5.567   0.946   6.058  0.6734 -0.1625 -0.8289
19883TIP3   OH281063   3.188   3.213  14.594 -0.6738  0.0975  0.4462
19883TIP3    H181064   3.210   3.295  14.550  0.2047 -0.1558  0.4004
19883TIP3    H281065   3.108   3.233  14.642 -2.2082  0.1514 -1.9348
19884TIP3   OH281066   4.256   1.449  14.442 -0.0041 -0.2575  0.0635
19884TIP3    H181067   4.237   1.466  14.534 -2.8957 -1.6063 -0.1696
19884TIP3    H281068   4.208   1.516  14.394 -0.4854 -0.9817 -0.4972
19885TIP3   OH281069   6.072   4.498  14.756 -0.4007 -0.4979  0.5220
19885TIP3    H181070   6.122   4.543  14.824 -0.2780  0.3270 -0.1033
19885TIP3    H281071   6.039   4.419  14.799 -1.3889  0.6312  1.9077
19886TIP3   OH281072   0.154   2.520  11.181 -0.8878  0.4120  0.0259
19886TIP3    H181073   0.237   2.472  11.183 -2.4864 -2.5168  0.0745
19886TIP3    H281074   0.153   2.562  11.095 -0.8614 -2.5063 -1.5051
19887TIP3   OH281075   6.238   3.582   3.301 -0.3751  0.5602  0.0489
19887TIP3    H181076   6.182   3.659   3.290  1.1835  2.2266  2.6968
19887TIP3    H281077   6.186   3.523   3.355 -0.8810  0.5611 -0.4291
19888TIP3   OH281078   2.148   0.454  13.539  0.0993 -0.1100 -0.3505
19888TIP3    H181079   2.162   0.369  13.497 -1.7741 -1.0027  0.7109
19888TIP3    H281080   2.105   0.507  13.472  0.2573 -0.3868 -0.6710
19889TIP3   OH281081   1.546   5.133   3.546  0.5869  0.1488 -0.1157
19889TIP3    H181082   1.539   5.188   3.624  0.9373 -1.5431  1.1458
19889TIP3    H281083   1.488   5.059   3.562  1.4288 -0.7380 -1.0050
19890TIP3   OH281084   6.237   5.543   2.743  0.3932 -0.0982  0.2552
19890TIP3    H181085   6.190   5.573   2.821 -0.0305 -1.0399  0.3855
19890TIP3    H281086   6.211   5.451   2.734  1.6639 -0.4462 -0.0929
19891TIP3   OH281087   4.062   3.665  14.379 -0.1111  0.5669 -0.5734
19891TIP3    H181088   4.037   3.573  14.364 -1.5685  0.8774 -0.2229
19891TIP3    H281089   3.994   3.699  14.437  1.0564  1.5692  0.2480
19892TIP3   OH281090   0.085   2.979  13.736  0.0303  0.4253 -0.1715
19892TIP3    H181091   0.169   3.021  13.717 -0.2179  0.9146 -0.1969
19892TIP3    H281092   0.094   2.890  13.701 -0.5340  1.3803 -3.0271
19893TIP3   OH281093   2.462   2.634  11.538 -0.1425  0.0532 -0.5143
19893TIP3    H181094   2.462   2.544  11.569  1.1584 -0.4791 -1.9430
19893TIP3    H281095   2.515   2.682  11.602  2.3083 -0.9805 -1.6297
19894TIP3   OH281096   5.747   4.334  14.631  0.1372 -0.1658 -0.1401
19894TIP3    H181097   5.734   4.413  14.682 -0.9987 -1.1500  1.1806
19894TIP3    H281098   5.731   4.262  14.693 -0.2302 -1.4154 -1.6094
19895TIP3   OH281099   4.291   5.913  15.479 -0.2065  0.4785 -0.1733
19895TIP3    H181100   4.258   5.864  15.555 -0.7298  0.4946 -0.3868
19895TIP3    H281101   4.254   5.868  15.404 -0.8795  1.3318 -0.3651
19896TIP3   OH281102   1.354   1.722   1.655 -0.4122  0.0295  0.5901
19896TIP3    H181103   1.358   1.712   1.750  0.7079  0.9148  0.6518
19896TIP3    H281104   1.292   1.793   1.640 -0.1338  0.3006  0.7031
19897TIP3   OH281105   0.567   0.536  12.605 -0.5511 -0.4400  0.5644
19897TIP3    H181106   0.605   0.610  12.652  0.8893 -1.2255  0.6847
19897TIP3    H281107   0.564   0.565  12.514 -0.9900  0.1424  0.7548
19898TIP3   OH281108   1.215   6.015  16.677 -0.2578 -0.1924  0.3321
19898TIP3    H181109   1.229   5.995  16.769  1.3027 -3.7196 -0.5263
19898TIP3    H281110   1.296   6.059  16.649 -0.0229 -0.6659  0.2666
19899TIP3   OH281111   3.202   4.742  13.720  0.7744  0.2272 -0.0868
19899TIP3    H181112   3.148   4.701  13.653 -1.7363  1.2223  1.1511
19899TIP3    H281113   3.207   4.677  13.790  1.3623  0.0553 -0.2907
19900TIP3   OH281114   2.882   5.593  13.283 -0.1796 -0.3168  0.5595
19900TIP3    H181115   2.919   5.592  13.371  0.7426 -0.0471  0.1849
19900TIP3    H281116   2.953   5.625  13.227 -0.3050 -1.7648 -0.4938
19901TIP3   OH281117   6.345   1.796  10.443 -0.3279 -0.1373 -0.1985
19901TIP3    H181118   6.427   1.814  10.398 -1.4487 -0.2584 -2.4496
19901TIP3    H281119   6.338   1.700  10.443 -0.0042 -0.1760  0.9423
19902TIP3   OH281120   3.034   1.315   0.695  0.4988  0.4619  0.5271
19902TIP3    H181121   3.040   1.221   0.674 -1.5224 -0.2861  2.8043
19902TIP3    H281122   2.983   1.352   0.623  0.0233 -0.5196  0.3384
19903TIP3   OH281123   1.203   4.322  15.764  0.4658  0.0750 -0.4255
19903TIP3    H181124   1.157   4.241  15.741 -1.3057  1.0251 -0.4565
19903TIP3    H281125   1.263   4.296  15.833 -0.8958 -1.0839  0.3915
19904TIP3   OH281126   2.925   1.233  16.151  0.1477  0.1677 -0.6518
19904TIP3    H181127   2.835   1.206  16.171 -0.1342  0.1395 -1.8749
19904TIP3    H281128   2.969   1.151  16.127  1.7402 -0.6106  3.8996
19905TIP3   OH281129   5.018   6.017  14.548 -0.0048  0.1299 -0.7825
19905TIP3    H181130   4.985   5.927  14.553 -0.1592  0.1819 -0.8587
19905TIP3    H281131   4.940   6.072  14.558  0.2729  0.2817  0.7617
19906TIP3   OH281132   5.967   2.330  12.697 -0.1029 -0.3813 -0.4623
19906TIP3    H181133   5.895   2.300  12.751  0.8018  1.0531  1.6536
19906TIP3    H281134   6.037   2.350  12.759  0.8410  1.8065 -2.1111
19907TIP3   OH281135   4.981   3.588   1.988 -0.5034  0.0519  0.2409
19907TIP3    H181136   5.041   3.592   1.914  0.4040 -1.1055  0.8865
19907TIP3    H281137   4.973   3.679   2.017  2.5249  0.0889  1.3350
19908TIP3   OH281138   3.835   1.639   4.236  0.2879  0.2596 -0.2128
19908TIP3    H181139   3.908   1.593   4.194  0.5633  0.0613  0.4597
19908TIP3    H281140   3.758   1.585   4.218  0.4628 -0.0083 -0.1658
19909TIP3   OH281141   0.063   0.194   6.390  0.1708  0.0428  0.2396
19909TIP3    H181142   0.049   0.288   6.377  0.8987  0.1663  0.3167
19909TIP3    H281143   0.146   0.188   6.435  0.2634 -0.6591 -0.0079
19910TIP3   OH281144   1.779   6.339  16.013  0.3142  0.0520  0.2675
19910TIP3    H181145   1.831   6.397  15.958  0.9908 -0.5006  0.3057
19910TIP3    H281146   1.690   6.373  16.007  0.6211  0.8155 -0.0658
19911TIP3   OH281147   5.214   3.527   0.680 -0.1721  0.1645  0.6507
19911TIP3    H181148   5.145   3.592   0.671  0.3593  0.4941 -1.5477
19911TIP3    H281149   5.194   3.461   0.614  2.0884  0.7692 -0.7346
19912TIP3   OH281150   3.344   2.352   1.408  0.3742  0.5071  0.7371
19912TIP3    H181151   3.276   2.417   1.386  0.9101  1.0819  0.7472
19912TIP3    H281152   3.314   2.312   1.490 -1.0818 -0.8604 -0.4032
19913TIP3   OH281153   2.923   4.846  11.381  0.2377 -0.0181 -0.3217
19913TIP3    H181154   2.899   4.801  11.462  0.7516  0.2026 -0.0428
19913TIP3    H281155   2.904   4.783  11.312 -1.6837  0.3447 -0.1668
19914TIP3   OH281156   2.522   5.961   6.054  0.3214 -0.1214 -1.0389
19914TIP3    H181157   2.618   5.959   6.048  0.3336  0.8475 -1.3980
19914TIP3    H281158   2.500   5.884   6.106  1.3579  0.0358 -0.3104
19915TIP3   OH281159   5.675   3.626  10.794 -0.6033 -0.3606 -0.5121
19915TIP3    H181160   5.672   3.545  10.845  0.8902 -0.3921 -0.4270
19915TIP3    H281161   5.688   3.597  10.703  3.8451 -0.2880 -0.1134
19916TIP3   OH281162   2.682   3.537  16.348  0.3535 -0.0158  0.1281
19916TIP3    H181163   2.747   3.498  16.407 -1.8474  1.5858  3.9465
19916TIP3    H281164   2.662   3.622  16.386  0.5605  2.4493 -4.5127
19917TIP3   OH281165   1.729   1.343   0.026  0.5547  0.9649  0.2900
19917TIP3    H181166   1.692   1.431   0.024 -0.9811  0.3765  1.0382
19917TIP3    H281167   1.683   1.296  -0.044 -0.2191  0.2043  1.2736
19918TIP3   OH281168   4.468   6.037   0.890  0.4279 -0.1635 -0.1050
19918TIP3    H181169   4.417   6.040   0.809  0.0095  3.6430  0.1372
19918TIP3    H281170   4.557   6.056   0.863  0.3145  0.9640  0.2461
19919TIP3   OH281171   6.805   4.141  13.941 -0.2279  0.7735  0.5459
19919TIP3    H181172   6.776   4.065  13.891  0.0251  0.7405  0.4492
19919TIP3    H281173   6.829   4.206  13.875 -0.2497  0.8657  0.6272
19920TIP3   OH281174   5.431   0.623   4.452 -0.5690  0.7629  0.2193
19920TIP3    H181175   5.404   0.700   4.502 -0.0007  0.5848  0.8245
19920TIP3    H281176   5.453   0.558   4.519  0.4242  0.5940 -0.2488
19921TIP3   OH281177   4.278   1.572  15.895  0.7432 -0.2829  0.0830
19921TIP3    H181178   4.263   1.615  15.979  1.8527 -1.0878  0.7284
19921TIP3    H281179   4.244   1.483  15.907  1.3187 -0.5455 -0.1406
19922TIP3   OH281180   1.705   5.266  12.013  0.4851 -0.2106 -0.4545
19922TIP3    H181181   1.694   5.336  11.948  0.3644 -1.0749 -1.3971
19922TIP3    H281182   1.616   5.249  12.044  0.8428  2.8844  2.9654
19923TIP3   OH281183   3.201   6.132   4.213  0.6099  0.0285 -0.4674
19923TIP3    H181184   3.136   6.201   4.200 -0.6020 -1.0461 -0.2914
19923TIP3    H281185   3.235   6.114   4.125  0.2918  0.2340 -0.6327
19924TIP3   OH281186   1.359   3.193   4.183  0.6820  1.1522 -0.0671
19924TIP3    H181187   1.268   3.221   4.192  1.0094  2.3332 -0.1806
19924TIP3    H281188   1.361   3.144   4.100  0.1996  1.3339 -0.1895
19925TIP3   OH281189   5.889   5.845  11.563  0.0636  0.2912 -0.7438
19925TIP3    H181190   5.841   5.892  11.495 -0.8493 -2.1474 -1.8699
19925TIP3    H281191   5.826   5.836  11.635  0.5077  1.4087 -0.1729
19926TIP3   OH281192   6.118   1.688   3.189  0.2446 -0.1764  0.1748
19926TIP3    H181193   6.060   1.628   3.236  0.9163 -0.3548  0.7969
19926TIP3    H281194   6.081   1.775   3.203 -0.3013 -0.3664 -0.0820
19927TIP3   OH281195   6.235   2.749   6.053 -0.0970 -0.2631 -0.0386
19927TIP3    H181196   6.168   2.789   6.108  0.1845  0.7657 -0.4373
19927TIP3    H281197   6.314   2.749   6.107 -0.4068 -1.5412  0.4577
19928TIP3   OH281198   0.999   2.210  12.994  0.1183  0.6331  0.3339
19928TIP3    H181199   1.005   2.124  13.037 -1.6747  0.6013  0.5707
19928TIP3    H281200   0.909   2.215  12.964  1.1446  0.8210 -3.1194
19929TIP3   OH281201   6.772   3.940  15.018 -0.2773 -0.2748 -0.1121
19929TIP3    H181202   6.844   3.999  14.994 -1.0607  0.8188  0.1532
19929TIP3    H281203   6.738   3.909  14.934 -1.4653  1.6632 -0.4112
19930TIP3   OH281204   6.023   0.704   4.870  0.0340 -0.1837 -0.5676
19930TIP3    H181205   5.937   0.744   4.883  0.1339 -0.4268  1.1528
19930TIP3    H281206   6.081   0.777   4.850 -0.1062  0.3499  0.8596
19931TIP3   OH281207   3.982   4.576   3.330 -0.4895 -0.0592 -0.3361
19931TIP3    H181208   3.928   4.620   3.265 -1.7999 -1.3252 -0.1725
19931TIP3    H281209   4.069   4.614   3.320 -1.2550  1.6022 -1.0499
19932TIP3   OH281210   3.283   5.612  11.955  0.0639 -0.3561  0.3008
19932TIP3    H181211   3.243   5.661  11.883  2.6537  0.7876 -0.4838
19932TIP3    H281212   3.278   5.671  12.030  0.5547 -0.0737  0.1152
19933TIP3   OH281213   0.123   1.444  10.955 -0.6869  0.4665 -0.2588
19933TIP3    H181214   0.065   1.454  10.880 -1.6311 -0.1106  0.3815
19933TIP3    H281215   0.068   1.409  11.024  0.3280  0.3205  0.5020
19934CLA    CLA81216   2.090   0.913   3.028 -0.0894 -0.2044  0.0602
19935LIG     O181217   4.084   3.910   7.672  0.1064 -0.2332 -0.2131
19935LIG     O281218   3.871   3.977   7.656  0.4116  0.0907 -0.5635
19935LIG     O381219   3.888   3.536   8.440  0.1999  0.5855  0.0194
19935LIG     O481220   3.488   3.690   8.322  0.2980  0.5183 -0.5525
19935LIG      N81221   3.901   3.674   7.739 -0.4645 -0.1331 -1.0499
19935LIG     C181222   3.910   3.748   7.608  0.0008 -0.1205  0.5498
19935LIG     C281223   3.810   3.750   7.829 -0.1956  0.3112  0.1171
19935LIG     C381224   3.836   3.543   7.700  0.1230 -0.8536 -0.9307
19935LIG     C481225   4.042   3.646   7.786 -0.5628 -0.4908 -0.3494
19935LIG     C581226   3.966   3.897   7.592  0.3304  0.1518  0.6390
19935LIG     C681227   3.817   3.681   7.966 -0.6682 -1.3833 -0.5051
19935LIG     C781228   3.709   3.605   7.997 -0.1307  0.3582 -0.5616
19935LIG     C881229   3.913   3.718   8.062 -0.1301  0.6972 -0.1753
19935LIG     C981230   3.691   3.565   8.139  0.0467  0.0283  0.9989
19935LIG    C1081231   3.906   3.661   8.188  0.6133 -0.4255 -0.5344
19935LIG    C1181232   4.201   3.914   7.596  0.5236 -0.3536  0.2779
19935LIG    C1281233   3.909   4.115   7.663  0.5049 -0.8286  0.1068
19935LIG    C1381234   3.788   3.599   8.237  0.3383 -0.0734  0.7852
19935LIG    C1481235   4.323   3.917   7.694  0.0289 -0.3173  0.1224
19935LIG    C1581236   3.824   4.192   7.767 -0.4260  0.0250  0.6668
19935LIG    C1681237   3.782   3.555   8.378 -0.0236 -0.0061 -0.1115
19935LIG    C1781238   3.648   3.517   8.437  0.5797 -0.2841 -0.8116
19935LIG    C1881239   3.519   3.577   8.408  0.7111 -0.4834  0.4276
19935LIG    C1981240   3.648   3.396   8.509 -0.2006  0.7861 -0.5068
19935LIG    C2081241   3.404   3.538   8.475  0.6002  0.4072  0.1865
19935LIG    C2181242   3.414   3.423   8.561  0.1585 -0.5357 -0.1022
19935LIG    C2281243   3.531   3.351   8.571  0.2081 -0.1726  0.7377
19935LIG    C2381244   3.302   3.380   8.651 -0.0448 -0.4893 -0.2995
19935LIG     H181245   3.811   3.758   7.566  0.2656 -1.7465 -0.5791
19935LIG     H281246   3.959   3.690   7.531  1.0259  0.3031  0.8719
19935LIG     H381247   3.710   3.741   7.790 -0.2304  2.2298 -0.3197
19935LIG     H481248   3.837   3.854   7.828  0.3678  0.1692 -1.3436
19935LIG     H581249   3.744   3.554   7.645 -2.4747 -2.9163  2.6349
19935LIG     H681250   3.812   3.490   7.790  1.7960  0.3215  0.2748
19935LIG     H781251   3.905   3.479   7.646  0.4651 -0.3438 -1.1055
19935LIG     H881252   4.092   3.581   7.716  1.5345 -1.9684  2.3130
19935LIG     H981253   4.036   3.593   7.880 -0.0602  0.5781  0.3051
19935LIG    H1081254   4.096   3.740   7.785 -1.1239 -0.1609 -0.5334
19935LIG    H1181255   3.973   3.929   7.486  0.4252 -0.2833  0.5094
19935LIG    H1281256   3.643   3.576   7.916  0.9026 -0.7979 -1.0257
19935LIG    H1381257   3.994   3.786   8.042 -0.8355  2.1260  1.5202
19935LIG    H1481258   3.609   3.500   8.165  0.9419 -0.7614  1.9552
19935LIG    H1581259   3.988   3.679   8.256 -1.2770  2.3584  1.2357
19935LIG    H1681260   4.211   4.000   7.527  0.1771  0.0356  0.7042
19935LIG    H1781261   4.196   3.823   7.533 -2.2276 -0.6731  0.8453
19935LIG    H1881262   3.891   4.171   7.569  0.7204  0.2317  0.6872
19935LIG    H1981263   4.015   4.126   7.693  1.0318 -1.8375 -1.2723
19935LIG    H2081264   4.415   3.926   7.633 -1.0110 -0.0090 -1.4905
19935LIG    H2181265   4.330   3.827   7.758 -0.0033 -0.6264 -0.2992
19935LIG    H2281266   4.317   4.009   7.755  0.2695  0.2567 -0.7005
19935LIG    H2381267   3.717   4.163   7.772 -0.4251 -0.3336 -0.8773
19935LIG    H2481268   3.828   4.302   7.750 -1.0307  0.0315  0.5577
19935LIG    H2581269   3.872   4.177   7.866 -1.3322 -0.9199  0.9768
19935LIG    H2681270   3.736   3.335   8.519 -0.9361 -0.5093 -1.5631
19935LIG    H2781271   3.309   3.588   8.462  1.8871  2.7286 -0.9873
19935LIG    H2881272   3.540   3.264   8.635 -2.2134 -1.0181  0.0481
19935LIG    H2981273   3.226   3.461   8.648  0.5321  0.0675 -0.0741
19935LIG    H3081274   3.334   3.351   8.753  0.4105 -1.0151 -0.5848
19935LIG    H3181275   3.247   3.299   8.599 -0.8707  1.6249 -3.0098
19935LIG    H3281276   3.394   3.706   8.329 -0.3560 -3.2412  1.7432
   6.82037   6.82037  17.02776
